/*--------------------------------*- C++ -*----------------------------------*\
  =========                 |
  \\      /  F ield         | OpenFOAM: The Open Source CFD Toolbox
   \\    /   O peration     | Website:  https://openfoam.org
    \\  /    A nd           | Version:  9
     \\/     M anipulation  |
\*---------------------------------------------------------------------------*/
FoamFile
{
    format      ascii;
    class       volScalarField;
    location    "29";
    object      p;
}
// * * * * * * * * * * * * * * * * * * * * * * * * * * * * * * * * * * * * * //

dimensions      [0 2 -2 0 0 0 0];

internalField   nonuniform List<scalar> 
918
(
0.343776
1.00003
0.0399704
0.343019
-0.0109631
0.967059
-0.716206
0.517064
0.323854
-0.29763
-0.277555
0.31629
0.827823
0.59422
-1.34249
-0.224667
0.469132
-0.59501
0.322841
-0.22742
0.554042
0.330499
0.33354
0.324139
0.384168
0.575119
0.708837
-0.0152197
0.0213772
-0.0185359
-0.0715977
-0.138054
-0.183071
0.850687
0.901791
0.92448
0.292591
0.119964
-0.574144
-0.646371
-0.636774
-0.764455
0.509232
0.51252
-0.380859
0.516894
0.527984
0.31122
0.323214
0.324135
0.325251
0.32417
0.325583
0.211987
-0.304847
-0.332906
-0.276582
-0.271184
-0.108103
-0.262738
-0.259013
-0.290645
-0.305325
0.245318
0.313029
0.310517
0.321133
0.328065
0.93958
0.911482
0.937621
0.851396
0.867831
0.805772
0.778311
0.614447
0.636387
0.58017
0.566527
-1.78199
-2.74775
-0.744841
-0.489735
-0.022578
-0.180464
-0.154113
0.458912
0.460891
0.4694
0.481422
0.865695
-0.591087
-0.725793
0.32295
0.321737
0.330177
0.330856
0.326863
0.325955
-0.269547
-0.289069
-0.0695584
-0.204091
-0.159737
0.54138
0.539508
0.324692
0.321728
0.335757
0.3565
0.34798
0.0824104
0.390407
0.407383
0.395712
0.56188
0.558488
0.566305
0.682453
0.646274
0.745764
0.769014
-0.000677555
0.00167002
-0.237329
-0.21444
-0.237415
0.288582
0.281443
0.306837
0.295895
0.29829
0.0351617
-0.101178
0.206484
0.231128
-0.482991
-0.547813
-0.652958
-0.669069
-0.779958
0.375717
0.498901
0.499373
-0.400012
-0.318657
-0.458875
-0.244918
-0.30854
0.301737
0.308537
0.303627
0.318932
0.313463
0.315388
0.327447
0.324549
0.326085
0.275406
0.398012
0.139817
0.107281
-0.453398
-0.353994
-0.446823
-0.263128
-0.260104
-0.102249
-0.0854519
-0.124792
-0.118781
-0.253206
-0.257831
-0.254963
-0.324296
-0.324558
0.238114
0.227371
0.256973
0.264087
0.304463
0.305363
0.308109
0.306604
0.729021
0.751515
0.758971
0.732595
-3.75252
-6.56403
-0.159531
-0.0198957
-0.0333214
-0.0310596
-0.0160877
-0.0416513
-0.020806
-0.0210059
-0.100578
-0.102816
-0.104148
-0.124106
0.444464
0.444958
0.781768
0.776325
0.767707
0.718625
0.310952
0.313119
0.318685
0.314535
-0.336527
-0.313287
-0.324857
0.525713
0.533589
0.533592
0.0468344
-0.0369937
0.128935
0.15607
0.430092
0.413126
0.428079
0.458523
0.495493
0.776543
0.79481
0.792967
0.801312
0.845279
0.861623
0.827099
0.269396
0.278567
0.273784
0.310108
0.307777
0.308723
0.303829
0.305534
0.303195
-0.254252
-0.640179
0.290651
0.306922
0.279404
0.290755
0.451136
0.522115
0.48017
0.48855
0.490209
-0.178338
-0.237595
0.0681646
0.0417027
0.18148
0.215766
0.196294
0.700334
0.660419
0.710553
0.683893
0.645042
0.67136
-0.592312
-2.11124
-1.22002
0.337407
0.147401
0.236973
-0.131964
-0.127629
-0.116038
0.765507
0.8451
0.453007
0.614248
0.626215
0.531537
0.561171
0.620417
0.545722
0.580759
0.615007
0.593226
0.334424
0.301892
0.299107
0.590691
0.646403
-0.0645241
-0.117542
-0.163709
-0.0675317
-0.00995544
-0.0377
0.812953
0.705425
0.779571
0.321446
0.322127
-0.0598801
-0.103031
0.32621
0.326226
-0.0876182
-0.206393
0.218179
-1.05205
-0.0769666
0.314614
0.30508
0.321846
-0.287671
0.174929
-0.243843
-0.108725
-0.149294
0.314145
0.254484
0.216785
-0.0953749
-0.269099
-0.286591
-0.412037
0.31911
0.317441
0.321319
0.322361
0.322996
-0.128971
-0.11549
-0.0850137
-0.289593
-0.182746
-0.219819
0.286898
0.303397
-0.368868
0.321476
0.323582
0.323419
0.316541
0.322212
0.320445
-0.233735
-0.221983
-0.294699
0.0328565
0.149297
0.466368
0.563457
0.430604
0.203558
-0.0361397
0.365785
0.431517
0.333468
0.492771
0.491093
0.507195
-0.0152157
-0.161904
-0.00632974
-0.0615276
0.312518
0.311156
0.303356
0.300519
0.316735
0.314821
0.319413
0.316335
0.319271
0.320699
-0.243453
-0.261186
-0.284008
-0.342549
0.133644
0.388436
0.0657671
0.0931829
-0.0339003
-0.26645
-0.276989
-0.230339
-0.250778
-0.162669
-0.169879
-0.120245
-0.117135
-0.162395
-0.160111
-0.168979
-0.190048
-0.18815
0.307864
0.306911
0.313104
0.320198
0.263646
0.26773
0.234196
0.253497
0.239193
0.182981
0.216433
0.191435
-0.0831741
-0.123223
-0.0741304
-0.264672
-0.185803
-0.26699
-0.211371
-0.304338
-0.188767
-0.192048
-0.346677
-0.332228
-0.373329
-0.487758
0.767063
0.711546
-0.0976958
0.308404
0.31474
0.311595
0.31622
0.319359
0.32028
0.318021
0.314574
0.304074
0.30591
0.302193
0.302529
-0.309386
-0.44566
-0.270291
-0.337451
-0.0726915
0.422284
0.162682
0.103564
0.0982258
0.316124
0.711819
0.50972
0.510948
0.535541
-0.555091
-0.157958
-0.487798
0.130651
-0.0462672
0.466113
0.515489
0.536218
0.484462
0.436189
-0.32643
0.333391
-0.256493
-0.212908
-0.0222539
-0.126854
0.50949
0.473584
0.478096
0.49457
0.513488
0.478792
0.456735
0.452991
0.491214
0.4969
0.289188
0.0652538
0.0207568
-0.0171661
0.456884
0.331016
0.389078
0.303272
0.307317
0.31021
0.308745
0.291671
0.298839
0.294673
0.300103
0.303234
0.312473
0.31279
0.308256
0.310527
-0.245847
-0.255509
-0.224118
-0.335617
-0.325784
-0.377007
-0.267727
-0.132685
-0.166212
0.0223073
0.129956
-0.158344
-0.27472
-0.244567
-0.216497
-0.0316676
-0.00682229
-0.107133
-0.0204034
-0.038557
-0.0481074
0.0477991
0.0554664
-0.239901
-0.207346
-0.225281
-0.23074
-0.139145
-0.0824765
-0.0647671
-0.238155
-0.186745
-0.297366
-0.316197
-0.229125
-0.220334
-0.210466
-0.179731
-0.315315
-0.26577
-0.268797
-0.282386
-0.231296
-0.238264
0.30247
0.30399
0.304036
0.312312
0.326406
0.341132
0.305317
0.284968
0.276339
0.279224
0.254041
0.263392
0.259466
0.271967
0.291439
0.299147
0.298294
0.300687
0.28397
0.285786
0.273113
0.276102
0.253731
0.236266
0.225277
-0.262927
-0.192082
-0.25955
-0.212684
-0.133841
-0.170947
-0.177672
-0.239267
-0.219017
-0.191434
-0.153548
-0.380571
-0.34136
-0.285793
-0.210394
-0.39326
-0.425742
-0.49462
0.675389
0.787746
0.602911
0.384677
0.388822
0.622181
0.713567
0.352614
0.523964
0.553178
0.348116
0.608073
0.313116
0.312758
0.310411
0.309832
0.311124
-0.225483
-0.125918
-0.111717
-0.0608287
0.0583129
0.173901
0.0806203
-0.0435953
0.0925403
0.0999069
0.416924
0.43344
0.378416
0.40337
0.401215
0.228624
0.305508
0.360325
0.314536
0.358552
0.380688
0.341949
0.372147
0.319143
0.277118
0.275869
0.221073
0.242249
0.219704
0.201706
0.302521
0.280968
0.291095
0.281923
0.301282
0.32891
0.323229
0.349941
0.361675
0.287286
0.24797
0.257216
0.284822
0.246536
0.259734
0.274774
0.00378825
-0.0973992
-0.00899845
-0.300321
-0.217476
-0.233515
-0.279537
-0.235848
0.0506726
-0.648486
-0.62177
-1.25629
0.273776
0.741827
0.464834
0.435752
0.50893
0.486882
0.489508
0.514223
0.521091
0.446355
0.463635
0.46789
0.42054
0.444574
0.468625
0.466315
0.302793
0.181212
0.172388
0.133268
0.0103472
0.0425013
0.246724
0.168452
0.0956884
0.100831
0.26426
0.154808
0.220256
0.25846
0.190301
0.146358
0.346085
0.413851
0.405054
0.379171
0.295288
0.307393
0.33354
0.369047
0.395807
0.429992
0.300018
0.305655
0.306957
0.304581
0.301632
0.30447
0.304596
0.307095
0.307968
0.310918
0.309878
-0.246172
-0.227304
-0.247674
-0.255997
-0.21997
-0.226766
-0.180703
-0.185284
-0.206071
-0.19896
-0.229254
-0.229636
-0.226078
-0.217139
-0.095488
-0.0792361
-0.0929492
-0.138032
0.0354396
0.171737
0.233966
0.117111
0.00802082
0.0373256
0.0656385
-0.211666
-0.159631
-0.171707
-0.136151
-0.150746
-0.287476
-0.318413
-0.316585
-0.217572
-0.257439
-0.369982
-0.354839
-0.365931
-0.363759
-0.335948
-0.344321
0.287187
0.280789
0.281806
0.276244
0.275128
0.288385
0.292539
0.294165
0.299255
0.300906
0.291941
0.297026
0.300363
-0.359802
-0.416957
-0.403214
-0.375778
-0.440079
-0.4316
-0.399682
-0.102268
-0.175383
-0.169937
-0.211477
-0.333399
-0.278337
0.258781
0.257049
0.269933
0.483466
0.337025
0.255725
0.350505
0.453695
0.0436752
0.243835
0.0748004
0.656394
0.545225
0.688743
0.314621
0.0194035
0.173088
0.223772
0.0316132
0.102801
0.112948
0.00162294
0.0336052
0.0638168
0.163281
0.0429072
0.0160921
-0.22977
-0.0451674
0.0803377
0.0594811
0.193895
0.258913
0.0284502
-0.0471387
-0.0915219
0.408114
0.428247
0.446935
0.416688
0.441574
0.36368
0.355008
0.373462
0.382039
0.37592
-0.983725
-0.690921
-1.63592
-0.948581
-0.497745
0.307291
0.268474
0.541889
0.432847
0.500119
0.485029
0.445511
0.410518
0.421743
0.454867
0.156731
0.266951
0.24055
0.247828
0.150625
0.0842432
0.382493
0.37574
0.414438
0.438095
0.403123
0.43734
0.297702
0.297336
0.297049
0.293821
0.292161
0.294116
-0.130813
-0.161333
-0.135867
-0.152632
-0.173034
-0.179589
-0.341458
-0.363978
-0.3853
-0.417919
-0.359743
-0.323287
-0.0654363
-0.120974
-0.194063
-0.165702
-0.222851
-0.284951
-0.303807
-0.206536
-0.118999
-0.126258
0.176445
0.427637
0.252063
0.420886
0.258105
0.314696
0.262513
0.254978
0.285909
0.158179
0.234018
0.00563036
-0.500563
-0.40811
0.55863
0.578271
0.367174
0.179701
-0.0506968
0.137415
0.331223
0.269637
0.309297
0.377834
0.371152
-0.211107
-0.143972
0.116672
0.344284
0.0109883
0.00343197
-0.00154454
0.171938
0.095927
)
;

boundaryField
{
    wall-4
    {
        type            zeroGradient;
    }
    velocity-inlet-5
    {
        type            zeroGradient;
    }
    velocity-inlet-6
    {
        type            zeroGradient;
    }
    pressure-outlet-7
    {
        type            fixedValue;
        value           uniform 0;
    }
    wall-8
    {
        type            zeroGradient;
    }
    frontAndBackPlanes
    {
        type            empty;
    }
}


// ************************************************************************* //
