/*--------------------------------*- C++ -*----------------------------------*\
  =========                 |
  \\      /  F ield         | OpenFOAM: The Open Source CFD Toolbox
   \\    /   O peration     | Website:  https://openfoam.org
    \\  /    A nd           | Version:  9
     \\/     M anipulation  |
\*---------------------------------------------------------------------------*/
FoamFile
{
    format      ascii;
    class       volVectorField;
    location    "29";
    object      U;
}
// * * * * * * * * * * * * * * * * * * * * * * * * * * * * * * * * * * * * * //

dimensions      [0 1 -1 0 0 0 0];

internalField   nonuniform List<vector> 
918
(
(0.985168 -0.000495071 0)
(0.00500834 2.96625 0)
(-0.0473409 1.33294 0)
(0.979699 0.00215083 0)
(-0.000926673 1.3523 1.05412e-19)
(-0.00703943 2.94879 -2.05978e-18)
(0.836184 1.17975 6.29989e-19)
(0.361316 0.165357 -1.14421e-20)
(0.999905 -0.000293381 0)
(0.064991 0.856515 0)
(0.013566 0.66612 0)
(0.733488 -0.00908219 0)
(0.0111136 2.93033 0)
(0.00250896 2.79461 0)
(-0.0174949 3.15879 9.78827e-19)
(-0.0671702 1.29562 1.90452e-19)
(0.450096 0.0609938 7.30541e-19)
(0.18883 1.20837 5.24592e-19)
(0.962775 0.00500776 0)
(-0.0443986 0.765747 0)
(0.0901597 0.202988 -5.51787e-19)
(1.00198 -0.00498552 0)
(1.00021 -0.00980494 0)
(0.975708 -0.00644057 0)
(0.604904 -0.0448595 0)
(0.0162647 2.63742 0)
(-0.014906 2.91006 7.29328e-19)
(-0.119227 1.20826 0)
(-0.152337 1.46824 0)
(-0.0724827 1.27199 0)
(-0.0302863 2.21037 0)
(0.0704856 1.40145 -8.31259e-20)
(0.0403897 1.06987 0)
(-0.0206192 2.98759 -7.27992e-23)
(-0.0166947 3.0053 1.60096e-18)
(0.00210607 3.0002 0)
(0.870169 -0.00933279 0)
(0.404808 0.94116 4.12393e-20)
(0.816773 1.19645 -8.42192e-19)
(0.966622 1.03435 8.14842e-19)
(0.685622 1.2903 -1.46314e-19)
(0.68309 1.27899 8.24549e-19)
(0.402551 0.257618 1.11633e-20)
(0.389667 0.143488 0)
(1.15227 0.558589 0)
(0.363326 0.258207 5.13287e-20)
(0.316969 0.16919 -5.32688e-20)
(0.919642 -0.0075036 0)
(1.00028 0.000139727 0)
(0.999913 0.00033417 0)
(1.00364 -0.00778608 0)
(1.00096 -0.000937512 0)
(1.00017 2.22083e-05 0)
(0.0831374 1.78404 -4.04565e-19)
(0.0374331 1.00989 0)
(0.0803656 0.928203 0)
(0.0236122 0.942798 0)
(0.0281024 0.786296 0)
(0.0275727 1.99393 0)
(0.00746175 0.810806 0)
(-0.000207899 0.695186 0)
(-0.00756003 0.765694 0)
(-0.012345 0.633834 0)
(0.83476 -0.0142296 0)
(0.852997 0.0261269 0)
(0.767752 7.89893e-05 0)
(0.827365 0.0338966 0)
(0.702129 -0.0152931 0)
(0.0146963 3.0004 7.57683e-19)
(0.0115181 3.00796 0)
(0.00612777 3.00281 0)
(0.0135445 2.99734 8.50591e-24)
(0.00798604 2.95847 -1.1261e-18)
(0.0144747 2.98203 0)
(0.0107983 2.90365 0)
(0.0250463 2.93045 1.59175e-24)
(0.00435161 2.82483 0)
(0.0311308 2.91585 0)
(-0.00593035 2.7453 0)
(0.309453 3.55688 0)
(-0.132005 3.6386 0)
(0.140225 3.24936 -9.10917e-19)
(-0.0122834 2.98369 0)
(-0.252286 2.05323 0)
(-0.11184 1.52695 -1.87656e-19)
(-0.130176 1.50983 1.18061e-19)
(0.526332 0.151672 -2.52044e-19)
(0.447967 0.0351267 -2.4361e-19)
(0.509006 0.178498 -7.60811e-19)
(0.432591 0.0840467 -5.06263e-19)
(0.215095 0.917406 0)
(0.269516 1.34702 -5.64122e-19)
(0.382214 1.29366 9.3051e-19)
(0.987493 0.00849918 0)
(0.942034 0.00584552 0)
(1.0003 0.000570451 0)
(1.00287 0.00929825 0)
(1.00304 0.00843489 -1.65923e-18)
(0.991922 0.00971496 1.2529e-18)
(-0.0481755 0.836898 0)
(-0.0195675 0.671008 0)
(-0.116973 1.17262 0)
(-0.0496421 0.937952 0)
(-0.0276911 0.884689 0)
(0.138763 0.211136 1.70611e-19)
(0.192497 0.189456 0)
(0.993519 -0.00840982 0)
(0.95437 -0.00651392 0)
(0.783961 0.0368711 0)
(0.735571 0.0457367 0)
(0.664508 -0.0332478 0)
(0.953067 -0.0044122 0)
(0.666305 0.0606136 0)
(0.502033 -0.0207483 1.01217e-18)
(-0.0363477 2.86455 4.40346e-19)
(0.0423573 2.90917 0)
(0.0549329 2.88451 0)
(-0.00449104 2.69858 0)
(-0.0133189 2.98513 6.7839e-19)
(-0.018078 2.89517 0)
(-0.0154174 2.98811 -2.12901e-18)
(-0.0133517 2.9252 7.32757e-19)
(-0.249258 1.45822 0)
(-0.250659 1.62471 0)
(-0.0141656 1.37706 7.93976e-21)
(0.0447886 1.29995 0)
(-0.0263897 1.12773 0)
(0.937498 -0.00777208 0)
(0.855486 -0.00958604 0)
(0.863945 0.00685203 0)
(0.948842 -0.00807834 0)
(0.883396 -0.00818063 0)
(0.517512 1.13528 -5.95789e-20)
(0.567426 1.18681 0)
(0.367756 0.884976 1.45653e-20)
(0.30988 0.744987 0)
(0.926259 1.07237 -2.32727e-19)
(1.03997 0.874726 4.73812e-19)
(0.37608 1.38708 0)
(0.537845 1.35573 0)
(0.544082 1.31535 0)
(0.105703 0.176897 -1.91668e-19)
(0.442503 0.237781 0)
(0.416286 0.127552 1.44041e-19)
(1.0106 0.928942 0)
(1.07772 0.77685 0)
(1.10338 0.719339 -4.02867e-19)
(1.13179 0.618182 0)
(1.17828 0.402781 5.64915e-20)
(0.957338 -0.00876216 0)
(0.962276 -0.0100756 0)
(0.901364 -0.00811644 0)
(0.984121 -0.00920974 0)
(0.97456 -0.00935113 0)
(0.936974 -0.00638224 0)
(1.00019 0.00231954 0)
(1.00091 0.00143144 0)
(0.999904 0.000844409 0)
(0.0340226 2.0438 2.4005e-19)
(0.121249 1.72378 0)
(0.0153515 2.1626 2.90039e-19)
(0.0497181 1.84273 -1.98579e-19)
(0.129249 1.20157 -4.33535e-19)
(0.0432296 1.08182 0)
(0.115829 1.07369 0)
(0.0297686 0.894362 0)
(0.0154067 0.722673 0)
(-0.0102969 2.1823 1.43212e-21)
(0.0307934 1.98608 0)
(-0.0157399 2.15438 1.06076e-19)
(0.0156539 1.99855 -2.1478e-19)
(0.0108666 0.859572 0)
(0.00112046 0.836774 0)
(-0.00140842 0.692003 0)
(-0.0116207 0.749642 0)
(-0.0239292 0.622476 0)
(0.931693 0.00729093 0)
(0.839999 -0.015274 0)
(0.92372 -0.000517772 0)
(0.838185 -0.0109493 0)
(0.813703 0.00405458 0)
(0.903719 0.0185961 0)
(0.882002 0.0216454 0)
(0.790427 0.00271369 0)
(0.00581006 3.06492 -6.81454e-21)
(0.0165203 3.05779 0)
(0.0146526 2.9691 0)
(0.0086195 2.87634 0)
(0.927325 3.97475 0)
(1.24256 3.30695 9.8498e-19)
(0.0704998 3.07592 0)
(-0.0279396 2.90644 0)
(-0.333601 1.65778 0)
(-0.33461 1.99482 0)
(-0.295242 1.82588 0)
(-0.106792 2.2534 -5.82815e-20)
(-0.25366 2.17935 0)
(-0.162001 2.12869 0)
(-0.0808822 1.8951 -1.08816e-20)
(-0.125392 1.91892 -8.84305e-20)
(-0.138783 1.72746 -1.15498e-19)
(-0.124926 1.73969 0)
(0.554343 0.124098 3.73586e-19)
(0.465132 0.0108116 -3.66074e-19)
(0.261277 1.55199 0)
(0.26279 0.692865 -2.42963e-19)
(0.177187 1.63865 -8.16585e-19)
(0.225978 1.16627 8.18666e-19)
(0.902496 0.00669779 0)
(0.96763 0.0109805 0)
(0.97472 0.0107217 0)
(0.923638 0.00657977 0)
(-0.00291211 0.744291 0)
(-0.022959 0.77152 0)
(-0.0312231 0.643921 0)
(0.307691 0.250604 4.70076e-19)
(0.250303 0.227142 -5.59027e-19)
(0.263822 0.180871 0)
(1.08183 0.0867863 7.04822e-21)
(1.06477 0.040586 0)
(0.99472 0.0407176 0)
(0.889706 -0.00218981 0)
(0.5779 0.0952782 0)
(0.607352 0.0718023 -1.62509e-18)
(0.480316 -0.00168071 6.15631e-19)
(0.00925741 2.9817 5.16925e-19)
(-0.0322933 2.86659 4.75956e-20)
(0.00366336 3.05027 -1.46082e-20)
(0.0200838 3.04338 5.22518e-19)
(-0.0149826 2.99656 2.42481e-20)
(-0.0129634 2.94943 -9.79073e-23)
(-0.0172791 3.01198 -4.55375e-19)
(0.0148506 3.0239 3.29786e-19)
(0.00736518 3.03686 -5.17851e-19)
(0.931457 -0.00189629 0)
(0.937805 -0.00369961 0)
(0.84328 -0.00889241 0)
(0.956907 0.0115476 0)
(0.943378 0.0126052 0)
(0.882092 0.00641897 0)
(0.91931 0.0153475 0)
(0.92725 0.0141052 0)
(0.839835 0.00530821 0)
(0.72189 1.41442 2.30365e-19)
(0.755597 1.52363 0)
(0.198998 0.349883 4.20768e-20)
(0.204317 0.642301 3.39291e-19)
(0.253538 0.716176 -1.96853e-19)
(0.273921 0.553818 3.81845e-19)
(0.315906 0.749284 1.04167e-18)
(0.121832 0.206492 2.66771e-19)
(0.484708 0.200491 5.40353e-19)
(0.464351 0.216036 1.37789e-19)
(0.423575 0.108358 2.70443e-19)
(1.16702 0.459923 2.07035e-19)
(1.17873 0.254282 2.12511e-19)
(0.0129926 2.20579 8.16352e-20)
(0.0424457 1.90257 0)
(0.954701 0.0291884 0)
(0.931094 0.0125906 0)
(0.853277 -0.0149921 0)
(0.0112795 3.07452 0)
(0.0199333 2.94425 9.20573e-19)
(0.0164511 2.95644 0)
(0.00622006 2.85058 -9.13104e-19)
(0.00631274 3.09199 2.20358e-19)
(0.00703943 3.08224 0)
(0.788888 1.82665 -2.1274e-19)
(1.25037 2.50534 5.75045e-19)
(0.771072 1.96645 -1.40586e-18)
(0.0202887 2.98255 -4.08215e-19)
(0.0359596 3.00287 0)
(-0.033578 2.87927 0)
(-0.0462744 2.10669 7.35028e-22)
(-0.0757073 2.03958 2.07572e-19)
(-0.0137552 1.97155 1.8724e-21)
(0.274773 1.35908 7.93132e-19)
(0.215869 0.473444 -5.45622e-19)
(0.0649726 1.96901 5.6071e-19)
(0.138187 1.85849 -6.86876e-19)
(0.176607 1.45953 8.68756e-20)
(0.00587615 3.11829 -1.18557e-18)
(0.0121127 3.11907 1.29691e-18)
(-0.00908452 2.98062 6.04482e-19)
(-0.00391782 2.97741 -5.4991e-19)
(-0.0215716 2.88112 -6.15656e-19)
(0.00847023 3.09911 -1.62227e-18)
(0.00162785 3.1057 1.63181e-18)
(0.258682 0.661915 0)
(0.216425 0.650806 -6.91536e-19)
(0.103037 0.219176 3.08856e-19)
(0.33571 0.871382 7.99978e-19)
(0.177727 0.246905 -1.22894e-18)
(1.16933 0.17349 -1.38343e-20)
(1.17946 0.308288 0)
(1.15727 0.121108 7.26649e-20)
(-0.00872151 2.20279 9.19809e-22)
(0.000837375 2.21117 0)
(0.0314328 1.95677 0)
(0.336659 1.25885 -2.87245e-19)
(0.358915 1.08138 -6.14852e-19)
(0.189392 0.340865 1.07345e-18)
(1.00586 -0.0108789 0)
(1.00766 -0.00767744 3.04712e-19)
(-0.264083 1.4472 0)
(-0.265229 1.31044 0)
(1.0022 0.00348693 1.78409e-21)
(1.00372 0.00946124 6.24192e-19)
(-0.121649 2.28556 7.33045e-20)
(-0.110367 2.32763 0)
(0.0364766 3.1797 2.12154e-19)
(0.396783 3.49402 0)
(1.13027 0.651996 1.98569e-20)
(1.01301 0.0129596 -2.14653e-21)
(1.02118 -0.0105047 0)
(1.00172 0.000156515 8.37673e-23)
(0.102353 1.3544 0)
(0.145546 2.57663 0)
(0.079938 1.23754 0)
(-0.000218277 2.6206 -1.12386e-19)
(-0.0269993 2.58463 -1.19764e-19)
(1.00534 0.0288503 2.74422e-21)
(1.06058 0.000775184 0)
(1.08675 0.014397 0)
(-0.324785 1.99903 0)
(-0.233724 2.54364 0)
(-0.139103 1.07333 0)
(0.276563 1.46299 -3.44749e-19)
(1.01124 -0.00971763 0)
(1.00935 -0.014973 0)
(1.00242 0.000735974 3.88859e-19)
(1.00548 -0.00484849 -4.57537e-19)
(1.00117 -0.00104589 0)
(-0.379845 1.80511 0)
(-0.326182 1.47671 0)
(-0.329308 1.67047 0)
(-0.151392 1.05121 0)
(-0.231503 1.1586 0)
(-0.146421 1.04343 0)
(1.03419 -0.00679684 0)
(1.02094 0.0156218 -9.72068e-22)
(0.790526 1.25534 4.27849e-19)
(1.00229 0.000343053 -3.87588e-19)
(1.00408 0.00523719 4.55365e-19)
(1.00116 0.00203802 0)
(1.01287 0.0102179 3.82594e-19)
(1.00805 0.00827295 -4.68496e-19)
(1.00862 0.0146699 0)
(-0.222196 2.54495 0)
(-0.171584 2.46126 -2.96192e-19)
(-0.187073 2.44712 2.27278e-19)
(1.20396 0.261151 1.5999e-19)
(1.14137 0.0845368 0)
(0.0461168 3.0778 -6.45634e-19)
(0.0660477 2.85319 -4.93861e-20)
(0.143281 3.19447 1.01435e-18)
(0.138101 3.2233 -6.71981e-20)
(0.136694 3.23621 0)
(0.0197424 3.13777 1.52863e-19)
(0.0772113 3.16096 6.32668e-19)
(0.0699805 3.1872 -2.91607e-19)
(0.02313 3.1292 0)
(0.660798 0.305626 0)
(0.576417 0.369408 0)
(1.10254 0.680644 -1.0898e-19)
(1.09946 0.812141 2.01459e-19)
(1.15885 0.570137 0)
(1.1885 0.513134 0)
(1.01619 0.0132518 -7.10537e-19)
(1.01498 0.0142548 8.89963e-19)
(1.02507 -0.0100674 0)
(1.02308 -0.0122084 0)
(1.00649 0.00256228 0)
(1.01038 0.00365394 0)
(1.00438 0.00190315 0)
(1.00978 0.00604358 0)
(1.00794 0.0058642 0)
(1.0045 0.00467532 0)
(0.0931046 1.35038 0)
(0.0867589 1.31741 0)
(0.115304 1.38249 0)
(0.127951 1.40582 0)
(0.145103 2.59976 0)
(0.187125 2.66141 -2.80855e-19)
(0.10472 2.65717 0)
(0.0847598 2.66057 5.22105e-20)
(0.0394559 2.6783 7.40241e-20)
(0.100409 1.20761 0)
(0.0694499 1.0944 0)
(0.0596034 1.28342 0)
(0.0113859 1.24172 0)
(0.0119992 1.9737 1.40386e-19)
(-0.0407485 2.60564 -1.65365e-19)
(-0.0151049 2.66226 -1.7818e-19)
(-0.0253392 2.66451 0)
(-0.0638421 2.6182 3.42499e-19)
(-0.0594299 2.60355 2.12487e-19)
(-0.00959669 1.98334 -1.01348e-19)
(-0.0422076 2.4531 2.30469e-19)
(-0.00550858 2.44723 2.10523e-19)
(1.01434 0.0346804 7.1653e-19)
(1.00879 0.0182287 -8.83288e-19)
(1.00589 0.0418548 -7.23364e-19)
(0.986581 0.0230042 9.25904e-19)
(1.06143 0.00511686 0)
(1.04727 -0.00990174 0)
(1.08606 0.0231716 0)
(1.06919 0.00696619 0)
(1.06572 -0.00428026 0)
(1.12468 0.0742102 0)
(1.09842 0.0364569 0)
(1.09977 0.0276462 0)
(-0.200493 2.35031 1.78499e-20)
(-0.347855 2.21315 0)
(-0.265549 2.23288 0)
(-0.230542 2.60392 -1.63493e-19)
(-0.203269 2.5557 3.48921e-21)
(-0.363896 1.94914 -2.81135e-19)
(-0.34821 1.81977 2.7642e-19)
(-0.285729 1.42896 0)
(-0.328769 1.45421 0)
(-0.347154 1.4943 0)
(-0.0862951 1.05546 0)
(-0.0361094 0.932866 0)
(0.372464 1.47596 6.41626e-19)
(0.40568 1.48685 2.65401e-19)
(0.593715 2.44825 -1.8242e-19)
(0.405644 2.54125 5.13268e-19)
(0.353867 2.08421 -9.79033e-21)
(1.02083 -0.00835194 0)
(1.01541 -0.00989803 0)
(1.01482 -0.0156243 0)
(1.00756 -0.00137535 0)
(1.00499 -0.00102988 0)
(1.00774 -0.00487344 0)
(1.0092 -0.00387189 0)
(1.01412 -0.00456735 0)
(1.02164 0.0157673 6.87135e-19)
(1.0183 0.0157099 -8.83203e-19)
(1.02209 0.0176026 -6.90139e-19)
(1.01965 0.0163319 8.64804e-19)
(0.758775 1.30514 0)
(0.692205 1.35957 4.83366e-19)
(0.868107 1.20044 2.65204e-19)
(0.911264 1.1579 -3.5293e-19)
(1.16049 2.61269 -2.60837e-19)
(0.824005 0.0960431 3.99111e-19)
(1.14134 0.102581 0)
(1.18442 0.18672 -1.25384e-19)
(1.16936 0.157288 -5.17871e-21)
(1.00292 0.129973 0)
(0.13953 2.96326 2.73262e-19)
(0.116968 2.86916 -8.32137e-19)
(0.0285967 2.36905 5.78207e-19)
(0.0937371 0.022159 -2.49397e-19)
(0.34171 3.42299 -3.62451e-19)
(0.195961 3.31524 0)
(0.238399 3.35753 4.72031e-19)
(0.248111 3.03619 -1.11298e-18)
(0.342357 3.1949 0)
(0.00694643 3.12069 3.28589e-20)
(0.0180175 3.12942 -4.01732e-19)
(0.0157224 3.12546 5.91289e-19)
(0.0360031 3.13967 0)
(0.0342356 3.15097 0)
(1.21944 2.61232 0)
(0.542928 0.841689 -3.41027e-19)
(1.03116 0.983625 -1.31634e-19)
(0.968683 1.05423 0)
(0.814565 0.957867 -3.01407e-21)
(1.05409 0.869959 3.00377e-20)
(0.37121 0.416752 -6.5956e-19)
(0.702803 0.322498 -2.22478e-20)
(0.689578 0.253882 2.98999e-19)
(0.591903 0.397934 2.2578e-20)
(0.51152 0.375242 -9.15475e-19)
(0.67122 0.347302 0)
(0.695101 0.431854 4.98135e-19)
(0.701866 0.428955 0)
(0.62883 0.384974 0)
(0.609918 0.315474 0)
(0.781243 0.615051 2.33976e-19)
(1.20036 0.279319 -1.47719e-19)
(1.1957 0.414487 0)
(1.20971 0.363776 0)
(0.767159 0.200321 4.42753e-19)
(0.826444 0.540493 -2.61074e-19)
(0.73261 0.51714 4.42251e-19)
(0.924456 0.419163 -4.53636e-19)
(1.01998 0.0144331 4.74179e-19)
(1.01796 0.0141404 -4.80249e-19)
(1.01596 0.0156591 0)
(1.03559 -0.00644622 0)
(1.02938 -0.00889132 -4.41806e-19)
(1.02709 -0.012598 4.37319e-19)
(1.02515 0.00929942 0)
(1.02372 0.012971 0)
(1.01141 0.00391801 0)
(1.01433 0.00881165 0)
(1.01507 0.00370802 0)
(1.01416 0.002697 0)
(0.0707528 1.33636 0)
(0.0635318 1.29423 0)
(0.150948 1.33936 2.20862e-19)
(0.259084 1.46033 1.93694e-19)
(0.150026 1.43543 4.11024e-19)
(0.179865 1.44237 -6.70048e-19)
(0.168962 1.37248 0)
(0.122735 1.58936 1.59131e-19)
(0.112726 1.56106 0)
(0.350952 2.03895 1.42276e-20)
(0.351867 2.36991 3.58976e-19)
(0.182812 1.44097 -1.38854e-19)
(0.260237 1.36233 1.35344e-19)
(0.190736 1.3535 -1.08403e-19)
(0.267509 1.30188 1.79531e-19)
(0.232777 1.57415 0)
(0.256875 1.61614 -1.02699e-19)
(0.0417063 2.27183 5.48292e-20)
(0.0393847 2.67003 0)
(0.0630504 2.41017 -7.20072e-20)
(0.0508775 2.42891 0)
(0.0740646 2.67259 -5.88408e-20)
(0.0497453 2.69917 0)
(0.107918 1.4563 2.46609e-19)
(0.0306063 1.49521 0)
(0.038239 1.39672 0)
(0.108659 1.3928 -2.73156e-19)
(-0.00451255 2.6475 -2.66167e-20)
(0.0224336 2.6971 -1.08666e-19)
(0.00751242 2.71632 -7.33438e-22)
(0.0936584 1.9444 -1.93375e-19)
(0.0527941 1.68389 -6.55409e-20)
(0.0554291 1.07085 0)
(0.036311 0.963554 0)
(0.026991 1.5748 -3.07314e-19)
(0.0353937 1.4415 -2.9572e-19)
(0.0491572 1.52045 3.7775e-19)
(0.0296863 1.59802 0)
(-0.245866 2.4654 7.66743e-19)
(-0.241289 2.61844 -3.01338e-19)
(-0.218086 2.58234 7.96597e-20)
(0.0325123 1.97651 2.33869e-19)
(-0.097176 2.56453 9.73459e-20)
(-0.0461269 2.49523 -2.91092e-19)
(1.02064 0.0202075 -4.69226e-19)
(1.01767 0.0252195 4.71246e-19)
(1.01478 0.0166155 0)
(1.01864 0.0615627 6.64728e-19)
(0.996782 0.0532156 -7.631e-19)
(0.959677 0.0374807 8.65582e-19)
(1.01759 0.0925615 -8.77231e-20)
(1.04189 -0.0063933 0)
(1.04953 -0.00263185 4.10831e-19)
(1.03811 -0.0106524 -4.11294e-19)
(1.06686 0.033008 -2.36232e-20)
(1.06137 0.0164351 2.06452e-19)
(1.06167 0.0444246 0)
(1.057 0.0382259 -7.52471e-20)
(1.03387 0.0365055 0)
(1.02776 0.0338256 0)
(1.02758 0.0122782 0)
(1.02437 0.0152212 0)
(1.0397 0.0270692 1.55818e-19)
(1.03784 0.0224795 -3.49066e-19)
(1.05157 0.0264032 -1.62588e-19)
(1.04891 0.0262353 -1.81531e-19)
(1.07244 0.0515498 3.43574e-19)
(1.08631 0.0427887 0)
(1.09327 0.0901519 0)
(-0.270032 2.46608 3.21075e-19)
(-0.331792 2.23958 2.5622e-20)
(-0.317763 2.29024 0)
(-0.254013 2.48739 -3.15714e-19)
(-0.231845 2.39583 -4.33373e-20)
(-0.212121 2.46162 6.21148e-20)
(-0.102146 2.62312 -1.72632e-19)
(-0.164654 2.61898 1.85325e-20)
(-0.131848 2.57608 -7.11967e-20)
(-0.168986 2.62424 1.14405e-19)
(-0.115371 2.58543 -1.3979e-19)
(-0.293509 1.7024 -1.90587e-20)
(-0.294951 1.99408 -4.6649e-19)
(0.362813 1.41075 -3.11298e-19)
(0.360214 1.3521 -2.56911e-19)
(0.640189 1.40601 -4.67593e-19)
(0.507398 1.47224 -2.57122e-19)
(0.557601 1.44714 0)
(0.589602 2.42272 1.52391e-19)
(0.6567 2.41262 2.62259e-19)
(0.411119 2.51753 8.04054e-20)
(0.404924 2.55706 -3.12794e-19)
(0.515531 2.5111 3.74468e-19)
(0.547761 2.46171 0)
(0.488237 2.51156 -4.2139e-19)
(0.246845 2.58969 7.80857e-19)
(0.352844 2.56606 -8.09644e-20)
(0.284591 2.64908 -1.12789e-18)
(0.933813 2.38522 4.05803e-19)
(0.829685 2.38659 0)
(1.01106 0.000152004 1.56187e-20)
(1.01522 -0.00551616 -1.26517e-20)
(1.01742 -0.00364005 -2.3021e-19)
(1.01479 -0.00112053 2.31683e-19)
(1.01228 0.000740238 0)
(0.626273 1.27281 0)
(0.645524 1.16366 0)
(0.747407 1.0683 0)
(0.638076 1.13325 0)
(1.18784 2.62875 5.72629e-20)
(1.07831 2.37227 0)
(0.845587 2.2036 1.23521e-22)
(0.827512 2.46849 0)
(0.921989 2.55548 -1.23511e-19)
(0.958885 2.5096 8.23119e-20)
(0.835947 0.145645 0)
(0.804661 0.136185 1.12103e-19)
(0.925629 0.121708 6.1045e-19)
(0.853515 0.119576 -2.37478e-19)
(0.835864 0.0608116 -7.16669e-19)
(1.05791 0.221777 -4.78537e-19)
(0.976844 0.274623 -1.57072e-20)
(0.909219 0.271139 5.63764e-19)
(0.99231 0.203442 4.45301e-19)
(0.944946 0.161589 -7.9122e-19)
(0.916155 0.17027 1.00571e-19)
(0.94238 0.232971 -2.0654e-19)
(0.920715 0.192862 0)
(0.988151 0.163295 3.85495e-19)
(1.03511 0.170045 0)
(1.03019 0.196365 0)
(1.09014 0.1117 1.5445e-19)
(1.06178 0.161717 -1.34087e-20)
(1.05218 0.225617 -8.50741e-20)
(1.08525 0.195404 0)
(1.02486 0.0410677 3.60239e-19)
(1.04482 0.0496068 4.3885e-19)
(1.03539 0.0375835 -3.57844e-19)
(1.04715 0.055279 -2.94695e-19)
(1.02173 0.0641957 -4.67718e-19)
(0.988433 0.133245 0)
(1.00362 0.0873886 0)
(0.973217 0.0517754 -3.10698e-19)
(0.92606 0.0671746 1.25582e-19)
(1.04155 0.0897198 4.10411e-19)
(1.0656 0.111925 -4.55567e-19)
(1.06929 0.141184 4.11414e-19)
(1.03225 0.128919 0)
(1.07286 0.0975459 0)
(1.05973 0.0777424 -1.87182e-19)
(1.05126 0.0850416 -3.329e-19)
(0.58847 1.09059 -1.32421e-20)
(0.620098 1.41967 1.14609e-19)
(1.16046 2.74453 -1.36162e-20)
(1.22648 3.08479 -4.53336e-20)
(1.25173 2.72709 3.22893e-19)
(1.28241 2.71055 -2.33843e-19)
(1.2108 2.35155 -9.49819e-21)
(1.21363 2.98911 9.40019e-20)
(1.23271 2.95452 -5.80545e-20)
(1.21766 3.23856 -2.24953e-19)
(1.37878 2.97101 3.1119e-19)
(1.36992 2.88927 0)
(0.544486 0.848739 -2.61144e-20)
(0.142637 1.26468 4.41015e-19)
(0.525551 0.472871 4.31688e-19)
(0.361317 0.228223 4.70082e-19)
(0.530326 0.40546 5.14863e-19)
(0.53904 0.491338 -8.22806e-19)
(0.541554 0.495955 6.73732e-19)
(0.495795 0.422598 -2.607e-19)
(0.426573 0.363305 5.97596e-19)
(0.768799 0.256536 -2.50525e-19)
(0.728623 0.290763 0)
(0.725636 0.228925 1.00327e-20)
(0.712412 0.51658 2.58772e-19)
(0.682527 0.490998 -9.49588e-19)
(0.603233 0.488897 1.64178e-20)
(0.620858 0.475279 0)
(0.670652 0.736385 2.36884e-19)
(0.811908 0.767765 1.77671e-19)
(0.741794 0.850029 -2.13055e-19)
(0.854869 0.800403 -6.72381e-20)
(0.886372 0.838408 -4.50849e-21)
(0.894788 0.840578 4.61543e-21)
(0.820735 0.642569 -3.92781e-19)
(0.898917 0.69368 6.24529e-20)
(0.956486 0.70562 0)
(0.945216 0.681233 -8.18079e-20)
(1.00273 0.316017 1.17843e-19)
(1.11297 0.288144 1.07367e-19)
(1.04222 0.258722 1.95543e-19)
(0.982163 0.349053 -2.4903e-19)
(1.02598 0.415581 0)
(1.08088 0.403813 0)
(0.897514 0.350645 4.88968e-21)
(0.837341 0.285765 0)
(0.857132 0.274405 2.7714e-19)
(0.893262 0.277573 -6.37243e-21)
(0.915817 0.422255 1.25431e-18)
(0.872786 0.484116 3.2156e-19)
(0.878048 0.44907 -3.70676e-19)
(0.809091 0.436685 3.97715e-19)
(0.791271 0.432935 2.53205e-19)
(0.761577 0.417971 -2.48686e-19)
(1.02749 -0.000591213 3.79493e-19)
(1.0202 -0.000158718 0)
(1.0186 0.000705552 2.48452e-19)
(1.02106 -0.00214575 -5.60935e-19)
(1.02235 0.0042241 2.72964e-19)
(1.02043 0.0107916 -5.71892e-19)
(1.02142 0.0101987 0)
(1.02091 0.0104026 -1.19875e-19)
(1.01612 0.00739344 3.00701e-19)
(1.01682 0.0101615 -1.50173e-19)
(1.01747 0.00951183 1.10545e-19)
(0.0582367 1.31345 0)
(0.0474086 1.36791 0)
(0.0493751 1.32165 0)
(0.0326665 1.27353 0)
(0.0718876 1.37167 -4.82475e-19)
(0.0873916 1.34072 1.53197e-19)
(0.103587 1.50365 1.0212e-19)
(0.0944463 1.33713 -1.13436e-19)
(0.0305537 1.45664 2.92024e-19)
(0.0304353 1.44719 -2.25605e-19)
(0.0588042 1.35649 -5.37385e-21)
(0.0524106 1.35965 2.99208e-19)
(0.0491778 1.3408 4.36592e-20)
(0.030852 1.3795 3.91225e-20)
(0.102097 2.38631 8.24814e-20)
(0.0951551 2.42944 0)
(0.160837 2.0667 1.02685e-20)
(0.101694 1.70659 -5.82703e-20)
(0.226641 2.06076 -8.35274e-21)
(0.210846 2.45651 0)
(0.268863 2.40982 -2.69756e-19)
(0.302467 2.40993 1.92533e-19)
(0.229012 2.02121 -2.15932e-20)
(0.147159 2.18671 4.74896e-20)
(0.143779 2.3083 0)
(0.0252627 1.87556 3.13399e-19)
(-0.0045558 2.40593 2.74025e-19)
(-0.0381167 2.15258 0)
(-0.000910946 2.46432 -1.36748e-20)
(0.0275967 2.31574 -1.38381e-19)
(0.131324 1.43977 -5.44883e-20)
(0.149505 1.35046 9.42133e-19)
(0.103498 1.41144 -3.15238e-19)
(0.129362 1.47183 -2.58247e-19)
(0.125124 1.49199 0)
(0.101152 1.3767 0)
(-0.0639914 1.01864 -4.00418e-19)
(0.0133936 1.24077 1.27958e-19)
(0.091896 1.30686 0)
(0.000924492 0.989141 -2.8266e-19)
(-0.0172394 0.90126 5.75724e-19)
(1.04016 0.0108113 0)
(1.04608 0.00690338 -3.85157e-20)
(1.03867 0.0201727 -2.79598e-19)
(1.04739 0.017533 0)
(1.05211 0.0171852 0)
(1.03537 0.0104471 -6.37946e-21)
(1.03127 0.0106036 4.53547e-19)
(1.0311 0.0152274 5.50822e-19)
(1.02616 0.0189925 0)
(1.02365 0.0198297 0)
(1.03475 0.0226668 2.80046e-19)
(1.02569 0.0248067 0)
(1.02557 0.0237361 0)
(-0.0923406 2.28343 0)
(-0.225026 2.08254 -2.37066e-20)
(-0.195206 2.19299 -1.67982e-19)
(0.0206673 1.25689 0)
(-0.12088 1.84429 -2.94609e-19)
(-0.126697 1.54492 1.77176e-19)
(-0.0721812 1.23153 0)
(0.394169 1.69363 0)
(0.360491 1.27845 4.16211e-19)
(0.303728 1.33599 0)
(0.415472 1.27678 -5.66224e-19)
(0.45963 1.44498 0)
(0.440512 1.38727 2.712e-19)
(1.03142 2.69963 -8.18374e-21)
(0.957118 2.41771 -5.11243e-19)
(0.902559 2.1842 5.85027e-19)
(0.842122 2.37939 1.61251e-19)
(0.844696 2.51383 0)
(0.914339 2.50768 0)
(0.917185 2.37901 0)
(0.894882 2.36211 -6.1961e-19)
(0.692912 2.48761 -1.37921e-19)
(0.801399 2.47923 -4.08207e-20)
(0.812922 2.4503 3.12431e-20)
(0.690621 2.39061 0)
(0.794529 2.38918 0)
(0.753808 2.39968 -2.74171e-19)
(0.769601 2.50353 0)
(0.610327 1.08441 0)
(0.492297 0.934961 -1.80107e-19)
(0.558094 0.964916 -1.21731e-20)
(0.529633 1.06755 0)
(0.530276 1.01811 2.7192e-19)
(0.76514 0.87076 -3.67978e-20)
(0.773648 1.00711 0)
(0.747915 0.962353 2.46119e-20)
(0.64157 1.02574 0)
(0.643771 0.939225 0)
(1.16625 2.76668 -4.33481e-20)
(1.14484 2.83012 4.72266e-20)
(0.936988 2.35406 -1.50919e-19)
(0.903712 2.33269 -5.14404e-21)
(1.13051 2.74151 0)
(1.08254 2.71253 6.37427e-21)
(1.08982 2.49413 -1.62104e-19)
(0.985124 2.23716 -3.06844e-20)
(0.502873 1.37186 0)
(0.516176 1.08282 1.16924e-20)
(0.550049 1.15153 0)
(0.860331 0.214757 0)
(0.812102 0.170185 0)
(0.770761 0.149939 0)
(0.853359 0.222481 -4.36068e-19)
(0.788092 0.214526 2.63514e-19)
(0.935354 0.0546338 -2.58332e-19)
(0.950845 0.101487 0)
(0.925695 0.106844 1.13493e-19)
(0.877146 0.0845424 4.59253e-19)
(0.860194 0.0463145 -2.84791e-19)
(1.16476 3.36399 -8.90583e-19)
(1.21253 3.28316 0)
(1.16303 3.39198 -1.77945e-18)
(0.649691 3.5526 1.52231e-18)
(0.875239 3.11946 2.68639e-19)
(0.519268 0.86042 3.63919e-19)
(0.440493 0.857893 0)
(0.342366 0.505781 -1.07119e-19)
(0.444097 0.688793 5.52967e-19)
(0.528096 0.477233 -1.44506e-19)
(0.504439 0.525628 1.66569e-19)
(0.649079 0.543539 3.54802e-19)
(0.678979 0.564249 0)
(0.630682 0.624427 0)
(0.587844 0.564195 0)
(0.951774 0.591922 1.14537e-22)
(0.875229 0.533261 -3.12164e-19)
(0.89937 0.565701 2.00545e-19)
(0.934367 0.501694 -2.36454e-19)
(1.03761 0.474611 0)
(1.04591 0.563629 -3.98993e-20)
(0.83491 0.387834 -5.69281e-19)
(0.839381 0.372977 -6.77979e-19)
(0.789356 0.382484 4.4508e-19)
(0.782118 0.3542 -4.79505e-19)
(0.836339 0.312689 -3.62671e-19)
(0.791903 0.30935 4.46068e-19)
(1.02647 0.00545202 -2.83678e-19)
(1.02625 0.00558847 5.73192e-19)
(1.02939 -0.000633331 3.6485e-19)
(1.03305 6.03481e-05 -4.38812e-19)
(1.03316 0.00800489 0)
(1.02982 0.00853082 -7.09688e-19)
(0.044517 1.64833 -3.07432e-20)
(0.0335889 1.57319 0)
(0.0892214 1.6992 -3.02053e-19)
(0.0826353 1.68007 2.81322e-19)
(0.0956808 1.53124 -1.91599e-19)
(0.083633 1.4988 0)
(0.145585 1.90119 0)
(0.101615 1.58405 1.24319e-19)
(0.0859507 1.43532 -1.11277e-19)
(0.0110118 1.71529 2.40386e-20)
(-0.0378808 2.17663 2.13596e-19)
(-0.00909541 2.15463 -7.46699e-20)
(0.495937 1.38017 1.87334e-19)
(0.489225 1.38567 -1.99219e-19)
(0.437078 1.27554 2.70826e-19)
(0.432723 1.29365 -1.45386e-20)
(0.621178 1.28779 0)
(0.536564 1.37431 3.86349e-19)
(0.552431 1.38356 -3.76076e-19)
(0.443291 1.26402 -2.61092e-19)
(0.497703 1.21893 0)
(0.553238 1.18888 0)
(0.659534 2.44669 2.02657e-19)
(0.66933 2.47612 7.71777e-19)
(0.717675 2.49201 -5.31016e-19)
(0.621951 2.47414 -1.48508e-19)
(0.563046 2.56581 1.58979e-19)
(0.512576 2.53778 -4.44245e-19)
(0.971629 2.38193 -3.21547e-19)
(1.0116 2.39894 0)
(0.91667 2.16452 -3.93154e-19)
(1.05137 2.69304 0)
(1.05352 2.68014 0)
(0.616527 2.27877 1.04961e-19)
(1.04561 3.16605 3.55927e-19)
(0.91653 3.036 -2.8522e-19)
(0.285101 0.927044 0)
(0.324784 0.788402 -2.13566e-19)
(0.484514 0.743959 -1.63188e-19)
(0.391379 2.02687 0)
(0.46893 2.78761 -1.87031e-19)
(0.425483 2.55199 0)
(0.679977 0.687665 -4.9736e-19)
(0.756234 0.678266 6.61768e-19)
(0.774409 0.624362 -6.51527e-19)
(0.657905 0.65397 -6.85515e-20)
(0.711026 0.601464 -2.82954e-19)
(1.00833 2.77024 -2.70636e-19)
(1.04409 2.8254 1.28047e-19)
(0.64271 2.15685 2.9423e-19)
(0.602695 1.72374 -2.29362e-19)
(0.705286 1.9148 -7.18852e-20)
(0.994371 2.45375 -8.44304e-20)
(0.997893 2.44635 -1.06906e-21)
(0.666657 1.85374 6.74685e-21)
(0.460648 1.34551 2.7663e-23)
)
;

boundaryField
{
    wall-4
    {
        type            noSlip;
    }
    velocity-inlet-5
    {
        type            fixedValue;
        value           uniform (1 0 0);
    }
    velocity-inlet-6
    {
        type            fixedValue;
        value           uniform (0 3 0);
    }
    pressure-outlet-7
    {
        type            zeroGradient;
    }
    wall-8
    {
        type            noSlip;
    }
    frontAndBackPlanes
    {
        type            empty;
    }
}


// ************************************************************************* //
