/*--------------------------------*- C++ -*----------------------------------*\
  =========                 |
  \\      /  F ield         | OpenFOAM: The Open Source CFD Toolbox
   \\    /   O peration     | Website:  https://openfoam.org
    \\  /    A nd           | Version:  9
     \\/     M anipulation  |
\*---------------------------------------------------------------------------*/
FoamFile
{
    format      ascii;
    class       volScalarField;
    location    "1.4";
    object      p;
}
// * * * * * * * * * * * * * * * * * * * * * * * * * * * * * * * * * * * * * //

dimensions      [0 2 -2 0 0 0 0];

internalField   nonuniform List<scalar> 
400
(
3.04558e-06
-0.0058248
-0.0129628
-0.0184153
-0.0204331
-0.0182395
-0.011775
-0.00148471
0.0118365
0.0271484
0.0432438
0.0588225
0.0725782
0.0833081
0.0900525
0.0922667
0.0900255
0.0842435
0.0768802
0.0710667
0.00578126
-0.000218065
-0.00580409
-0.00954292
-0.0105995
-0.00843347
-0.00297082
0.0054732
0.016302
0.0287109
0.0417491
0.0543854
0.065586
0.0744095
0.0801199
0.0823153
0.0810768
0.0770543
0.0712736
0.0653173
0.0133354
0.00503372
-0.00099548
-0.00442346
-0.00527343
-0.0032646
0.00160153
0.00902667
0.0185011
0.0293484
0.0407647
0.051869
0.061768
0.0696359
0.0748065
0.0768776
0.0758411
0.0720853
0.0658048
0.0575348
0.0201397
0.00869596
0.00122566
-0.00266889
-0.0037226
-0.00188593
0.00273052
0.0097837
0.0187794
0.0290941
0.0399911
0.0506533
0.0602323
0.0679154
0.0730027
0.0750009
0.0737652
0.0694554
0.0616022
0.0501017
0.0245022
0.00977312
0.000589578
-0.00398726
-0.0053027
-0.00350791
0.00117406
0.00833376
0.0174611
0.0279481
0.0390841
0.0500691
0.0600481
0.0681644
0.0736257
0.0757971
0.0743683
0.069289
0.0595247
0.0445362
0.0251781
0.00715005
-0.00380219
-0.00905753
-0.0105126
-0.00850051
-0.00335742
0.00442872
0.0143125
0.0256781
0.0378129
0.0499024
0.0610473
0.0703024
0.0767339
0.0795162
0.0781382
0.0723327
0.0605384
0.041889
0.0210936
-0.000262388
-0.0129347
-0.0187096
-0.0200302
-0.0174144
-0.0113189
-0.00232032
0.00898973
0.0219754
0.0359088
0.0499435
0.0631113
0.0743444
0.0825211
0.0865687
0.08572
0.0794463
0.0656195
0.0430707
0.0111427
-0.0136183
-0.0278752
-0.0338545
-0.0346039
-0.030858
-0.0232134
-0.0123458
0.00110423
0.0164832
0.0330518
0.0499328
0.0660825
0.080289
0.0911999
0.0974293
0.0978695
0.0916353
0.0758955
0.0491156
-0.00596742
-0.0342667
-0.0498703
-0.0555489
-0.0550905
-0.049515
-0.039594
-0.0261139
-0.00975769
0.00882238
0.0289003
0.0495928
0.0697967
0.0881538
0.103047
0.1127
0.11555
0.110191
0.0928335
0.0614106
-0.0318575
-0.0638765
-0.0804173
-0.0850075
-0.0824204
-0.0740787
-0.0609814
-0.0440371
-0.0239521
-0.00133748
0.023145
0.0486604
0.074095
0.0979716
0.118395
0.133125
0.139988
0.136817
0.11844
0.0819332
-0.0686678
-0.104604
-0.121345
-0.12359
-0.117516
-0.105127
-0.0877186
-0.066326
-0.0416375
-0.0141561
0.015605
0.0469527
0.0788552
0.109793
0.137623
0.159585
0.172726
0.173778
0.15552
0.11357
-0.119403
-0.159357
-0.174915
-0.172757
-0.161148
-0.142929
-0.119759
-0.0927773
-0.0625778
-0.0294481
0.00637269
0.0444731
0.0840547
0.123703
0.161136
0.193086
0.215668
0.224077
0.20805
0.160632
-0.188629
-0.232242
-0.243939
-0.233948
-0.213694
-0.187154
-0.156372
-0.122501
-0.085898
-0.0464723
-0.00401467
0.0415386
0.0898419
0.139829
0.189319
0.234689
0.271074
0.291664
0.281743
0.229776
-0.283974
-0.329305
-0.331831
-0.30828
-0.274708
-0.23644
-0.195764
-0.15361
-0.10984
-0.063745
-0.0144377
0.0388636
0.0965544
0.158277
0.222374
0.285288
0.341397
0.381575
0.384914
0.331834
-0.419318
-0.459671
-0.44235
-0.395791
-0.342128
-0.287739
-0.234615
-0.182929
-0.131609
-0.0789842
-0.0232133
0.037476
0.104554
0.178838
0.259862
0.344971
0.428617
0.499701
0.529676
0.485392
-0.620531
-0.636743
-0.578676
-0.494192
-0.411239
-0.335657
-0.267779
-0.205976
-0.147535
-0.0893817
-0.0284248
0.0383495
0.113808
0.200473
0.299976
0.412026
0.533031
0.651776
0.732773
0.722397
-0.935922
-0.878513
-0.74174
-0.597947
-0.474391
-0.372657
-0.288867
-0.217761
-0.153952
-0.0924623
-0.0287157
0.0416973
0.123265
0.22072
0.338927
0.482156
0.651998
0.841343
1.01527
1.0975
-1.47642
-1.20663
-0.920501
-0.691386
-0.517303
-0.387542
-0.290059
-0.213335
-0.148122
-0.0872137
-0.0245758
0.0454593
0.128939
0.233073
0.367105
0.54268
0.771295
1.05932
1.40329
1.73014
-2.53965
-1.63055
-1.04444
-0.710957
-0.495748
-0.352091
-0.254529
-0.183581
-0.126167
-0.0735932
-0.0192672
0.0427886
0.119214
0.218784
0.354814
0.547986
0.826395
1.23658
1.91168
2.92419
-4.36666
-2.04463
-0.97354
-0.563178
-0.357844
-0.240144
-0.170117
-0.123781
-0.0874793
-0.0535084
-0.0166527
0.0276624
0.0846091
0.161731
0.272413
0.442101
0.718221
1.22571
2.41104
4.84853
)
;

boundaryField
{
    movingWall
    {
        type            zeroGradient;
    }
    fixedWalls
    {
        type            zeroGradient;
    }
    frontAndBack
    {
        type            empty;
    }
}


// ************************************************************************* //
