/*--------------------------------*- C++ -*----------------------------------*\
  =========                 |
  \\      /  F ield         | OpenFOAM: The Open Source CFD Toolbox
   \\    /   O peration     | Website:  https://openfoam.org
    \\  /    A nd           | Version:  9
     \\/     M anipulation  |
\*---------------------------------------------------------------------------*/
FoamFile
{
    format      ascii;
    class       volScalarField;
    location    "19";
    object      p;
}
// * * * * * * * * * * * * * * * * * * * * * * * * * * * * * * * * * * * * * //

dimensions      [0 2 -2 0 0 0 0];

internalField   nonuniform List<scalar> 
918
(
0.24116
0.924787
0.0185643
0.240045
3.29334e-05
0.891906
-0.82724
0.420829
0.221157
-0.436916
-0.0308949
0.210046
0.752461
0.520427
-1.45104
0.00907152
0.375711
-0.705409
0.219861
0.00169626
0.497726
0.227937
0.230926
0.22149
0.280466
0.510268
0.633193
0.0074704
-0.00135951
0.000482381
0.00585171
-0.00426832
0.0017466
0.775519
0.826646
0.849315
0.190602
0.0202003
-0.675157
-0.753624
-0.738954
-0.879509
0.408405
0.413336
-0.473996
0.423653
0.439514
0.208819
0.220411
0.22126
0.222728
0.221526
0.222969
0.178769
-0.453193
-0.473764
-0.404572
-0.372483
-0.0270373
-0.0548817
-0.0851753
-0.0100962
-0.00482739
0.147777
0.206772
0.205624
0.215647
0.225128
0.864339
0.836206
0.862355
0.776195
0.792642
0.730379
0.702935
0.53981
0.561274
0.507485
0.496487
-1.89482
-2.86934
-0.848456
-0.588375
5.63899e-05
0.0115379
0.0141188
0.361976
0.370284
0.373592
0.38564
0.781181
-0.693774
-0.841023
0.219902
0.218546
0.227245
0.227881
0.223868
0.222964
0.00982954
0.0174869
-0.00703939
0.00127782
-0.00120657
0.480758
0.475504
0.222022
0.219081
0.232687
0.255271
0.243683
-0.00916332
0.291387
0.313006
0.31585
0.492446
0.490221
0.497492
0.606573
0.570321
0.670385
0.693521
0.01485
0.00424401
0.00376759
0.00371842
0.00306373
0.186655
0.179628
0.20304
0.194171
0.196249
-0.0639484
-0.199131
0.10456
0.128164
-0.582724
-0.649811
-0.761722
-0.775912
-0.89739
0.241133
0.397483
0.400405
-0.49124
-0.406915
-0.554475
-0.332627
-0.404471
0.19997
0.206486
0.201872
0.216316
0.210915
0.212875
0.224559
0.221659
0.223237
0.215656
0.311599
0.128065
0.0603551
-0.57531
-0.49182
-0.568063
-0.339308
-0.285327
-0.041406
-0.0535455
-0.0386776
-0.00770881
-0.238869
-0.126365
-0.182264
0.00479894
0.00580885
0.140785
0.131768
0.15694
0.163388
0.198403
0.199409
0.202893
0.200805
0.653493
0.675862
0.683537
0.657251
-3.8823
-6.70824
-0.253767
-0.110061
0.00334862
0.00315236
0.00249927
0.00560224
0.00280127
0.000891155
0.00858413
0.0097771
0.0143378
0.0150815
0.346282
0.350808
0.703264
0.69681
0.692815
0.673927
0.207786
0.209858
0.21558
0.211455
0.0140821
0.0191963
0.0153034
0.44186
0.46153
0.458786
-0.04476
-0.132553
0.0377981
0.0642702
0.333388
0.318403
0.335336
0.379422
0.418134
0.70097
0.719419
0.717581
0.726165
0.770124
0.786475
0.75192
0.168446
0.175369
0.171547
0.206895
0.204457
0.205387
0.199153
0.201709
0.198516
-0.353337
-0.739881
0.198242
0.210663
0.17226
0.180383
0.329388
0.403895
0.37945
0.3892
0.393053
-0.269072
-0.334744
0.00296721
-0.0164149
0.0893261
0.120823
0.104683
0.624749
0.585254
0.635227
0.608497
0.569866
0.59537
-0.691764
-2.22399
-1.32338
0.256002
0.0606671
0.152473
0.00533332
-0.00156934
0.00470566
0.662432
0.740939
0.378946
0.560327
0.562374
0.458002
0.489084
0.544033
0.470055
0.504094
0.538917
0.519067
0.197887
0.199047
0.175957
0.476183
0.53276
-0.158272
-0.207176
-0.263009
-0.0794877
-0.043751
-0.0671178
0.712228
0.598248
0.676129
0.218915
0.21957
0.0143444
0.0230098
0.223311
0.223158
0.00733078
0.00681224
0.132568
-1.16263
-0.164885
0.211693
0.202554
0.219022
-0.450307
0.0418596
-0.0651768
0.0655803
0.0753452
0.209357
0.157299
0.124123
0.00680661
0.0167193
0.000896382
-0.517446
0.216579
0.214936
0.21863
0.219695
0.220357
0.00791801
0.0102341
0.00713589
0.0031755
0.00646815
0.0037209
0.185152
0.199036
-0.47584
0.218532
0.220835
0.220519
0.213576
0.219072
0.217411
0.0138287
0.00803883
0.00672168
-0.0578628
0.0562735
0.390767
0.499918
0.343275
0.114245
-0.131052
0.285628
0.354965
0.251441
0.419587
0.383073
0.408062
-0.104938
-0.251218
-0.0967474
-0.153343
0.209502
0.208113
0.200911
0.198477
0.21401
0.212209
0.216462
0.213551
0.216317
0.217817
-0.465279
-0.380275
-0.437008
-0.462631
-0.00309758
0.284981
-0.119891
0.0201965
-0.0930829
-0.0366185
-0.0168969
-0.108506
-0.128457
-0.0814599
0.0478072
0.0624342
-0.00841768
0.0661847
0.0129452
-0.0676222
0.0157421
-0.0241593
0.203851
0.200621
0.208971
0.215751
0.164882
0.166654
0.139512
0.155261
0.14413
0.0882027
0.121231
0.0994442
0.00773153
0.00797738
0.00629331
0.0203409
0.0189505
0.00958204
0.00969395
0.0165273
0.0103859
0.00861226
0.00466183
0.0123957
-0.477767
-0.591062
0.679501
0.675555
-0.108051
0.205826
0.212194
0.209059
0.213437
0.216682
0.217545
0.215458
0.211814
0.199964
0.202136
0.198334
0.198379
-0.420037
-0.554179
-0.373617
-0.434878
-0.173479
0.324238
0.0687848
0.00963062
0.00557194
0.215548
0.605887
0.416677
0.452425
0.47949
-0.662263
-0.259106
-0.591615
0.0253013
-0.156288
0.388224
0.441019
0.464845
0.410484
0.358934
-0.426522
0.213374
-0.348842
-0.307964
-0.120298
-0.218026
0.437042
0.3675
0.374276
0.398738
0.423919
0.374315
0.35281
0.352104
0.387597
0.39178
0.189469
-0.0255542
-0.071542
-0.107009
0.355833
0.229271
0.285396
0.203608
0.203974
0.207212
0.205671
0.189367
0.196684
0.192678
0.196483
0.199891
0.209756
0.209521
0.205186
0.207606
-0.363111
-0.352413
-0.423766
-0.450191
-0.457137
-0.509298
-0.406364
-0.360006
-0.501092
-0.0164187
0.0204326
-0.301022
-0.388146
-0.359492
-0.349591
-0.139457
-0.0813373
-0.391414
-0.0824038
-0.246245
-0.286302
-0.0575393
-0.0630355
-0.090731
-0.135046
-0.213118
-0.125876
-0.00761038
-0.128581
-0.108437
0.013466
-0.0034586
-0.0109654
0.00291602
-0.264073
-0.261087
-0.223929
-0.372581
0.0156779
0.0184618
0.0201374
0.0209994
0.0267838
0.0265656
0.197313
0.197794
0.196944
0.211792
0.223076
0.238196
0.205954
0.18376
0.175832
0.177634
0.154576
0.16228
0.159555
0.171152
0.188348
0.196079
0.194617
0.197333
0.181971
0.183253
0.172237
0.175876
0.155611
0.138398
0.128882
0.0119642
0.00878003
0.0101796
0.00994844
0.00985935
0.0102899
0.0302653
0.0253193
0.0284738
0.0232817
0.0153386
0.0171036
0.0137012
-0.389029
-0.32101
-0.500955
-0.534635
-0.60068
0.589596
0.69976
0.540148
0.291535
0.303514
0.526602
0.64855
0.271763
0.460816
0.518097
0.198327
0.493288
0.21024
0.209703
0.207729
0.206935
0.208165
-0.323595
-0.222822
-0.212636
-0.160186
-0.0422888
0.071318
-0.01202
-0.161138
-0.0130143
0.00565964
0.318858
0.332418
0.276826
0.303681
0.303456
0.130868
0.204478
0.260363
0.215461
0.256606
0.278598
0.243218
0.270666
0.217583
0.177563
0.176706
0.125533
0.14399
0.121568
0.104872
0.199547
0.179942
0.188778
0.182043
0.200461
0.228708
0.223148
0.246204
0.259939
0.188146
0.151097
0.159043
0.185618
0.150108
0.161879
0.175667
-0.101015
-0.197341
-0.116078
-0.415039
-0.320336
-0.335497
-0.38198
-0.34569
-0.0581692
-0.767704
-0.730337
-1.36941
0.151613
0.637096
0.38838
0.358722
0.421664
0.397204
0.398716
0.433994
0.440711
0.345198
0.359421
0.363169
0.317401
0.342264
0.373262
0.369232
0.194528
0.0801282
0.0672661
0.0364916
-0.0825184
-0.0530512
0.146302
0.0694615
5.83838e-05
0.0071873
0.165199
0.0611917
0.123203
0.159445
0.0928495
0.0515012
0.245302
0.314811
0.304476
0.27733
0.193086
0.205853
0.229578
0.266029
0.293032
0.326232
0.198325
0.202703
0.203732
0.201768
0.199054
0.201569
0.201334
0.20403
0.204992
0.207657
0.206787
-0.192314
-0.23976
-0.31589
-0.245187
-0.577292
-0.581449
-0.517704
-0.483476
-0.327957
-0.4037
-0.504267
-0.415282
-0.34134
-0.310376
-0.366316
-0.341497
-0.286428
-0.389528
-0.0486894
0.0952195
0.176958
0.0682315
-0.0873888
-0.0723768
-0.0541655
-0.231915
-0.0949408
-0.0956887
-0.15885
-0.257401
-0.0202662
-0.020391
-0.024692
-0.0142098
-0.0415784
-0.0140191
0.0125951
0.00836871
0.00371208
0.00783172
0.0128191
0.187313
0.180239
0.178901
0.175251
0.174943
0.183877
0.188691
0.190877
0.196079
0.197063
0.188932
0.193497
0.196263
0.0216034
0.0177706
0.0214265
0.00985341
0.0136112
0.0162259
0.0117423
-0.218671
-0.241254
-0.230455
-0.304354
-0.436401
-0.379073
0.15094
0.12079
0.164656
0.36405
0.220182
0.137777
0.2074
0.314743
-0.0704509
0.138622
-0.0398625
0.570144
0.447037
0.59034
0.214226
-0.0873031
0.0530651
0.110008
-0.0833847
-0.0123088
0.00741219
-0.100742
-0.0675853
-0.038647
0.0586168
-0.0556046
-0.0839632
-0.326934
-0.143876
-0.0181197
-0.0403416
0.0897495
0.1522
-0.0688183
-0.147765
-0.19402
0.307471
0.327062
0.344029
0.31459
0.338883
0.26427
0.256385
0.274218
0.285103
0.278503
-1.10353
-0.81661
-1.75541
-1.06624
-0.626519
0.17806
0.136069
0.421864
0.318721
0.401687
0.385327
0.347802
0.309972
0.316707
0.354546
0.0608738
0.166197
0.141826
0.147612
0.0543999
-0.00905706
0.279627
0.274466
0.308941
0.333163
0.303286
0.334762
0.195365
0.19447
0.195778
0.192068
0.191579
0.192199
-0.487356
-0.449594
-0.454224
-0.461804
-0.505175
-0.49458
0.0282955
0.00823033
0.00892767
0.0113938
0.0304518
0.0297038
-0.173639
-0.234375
-0.292337
-0.282953
-0.324965
-0.388671
-0.406185
-0.303349
-0.220915
-0.230502
0.0868215
0.340593
0.159928
0.341399
0.197324
0.246582
0.167973
0.158666
0.1944
0.0583669
0.131941
-0.142854
-0.630876
-0.542605
0.435224
0.455854
0.236964
0.0385371
-0.182108
0.0184988
0.22699
0.168076
0.207649
0.275187
0.268317
-0.338133
-0.257498
-0.0396398
0.189591
-0.0990438
-0.106897
-0.110498
0.0475444
-0.0174807
)
;

boundaryField
{
    wall-4
    {
        type            zeroGradient;
    }
    velocity-inlet-5
    {
        type            zeroGradient;
    }
    velocity-inlet-6
    {
        type            zeroGradient;
    }
    pressure-outlet-7
    {
        type            fixedValue;
        value           uniform 0;
    }
    wall-8
    {
        type            zeroGradient;
    }
    frontAndBackPlanes
    {
        type            empty;
    }
}


// ************************************************************************* //
