/*--------------------------------*- C++ -*----------------------------------*\
  =========                 |
  \\      /  F ield         | OpenFOAM: The Open Source CFD Toolbox
   \\    /   O peration     | Website:  https://openfoam.org
    \\  /    A nd           | Version:  9
     \\/     M anipulation  |
\*---------------------------------------------------------------------------*/
FoamFile
{
    format      ascii;
    class       surfaceScalarField;
    location    "19";
    object      phi;
}
// * * * * * * * * * * * * * * * * * * * * * * * * * * * * * * * * * * * * * //

dimensions      [0 3 -1 0 0 0 0];

internalField   nonuniform List<scalar> 
1300
(
3.75095
5.62643
-6.01717
3.75095
-5.88627
5.62643
-4.55509
4.55509
-1.28489
1.28489
1.87671
1.87425
-2.71584
2.71584
-4.07189
4.07189
-2.68194
2.68194
-5.24648
5.24648
-5.06821
5.06821
4.68516
-4.68516
-4.78678
4.78678
-1.76465
1.76465
-3.81916
3.81916
3.17038
-3.17038
-4.6421
4.6421
-0.449275
0.449275
-0.553316
4.30427
3.19764
3.19764
-2.38997
2.38997
-4.85382
4.85382
6.21838
-6.21838
9.11491
-9.11491
-3.09774
-3.42631
1.32121
-8.21127
-4.56506
-4.56506
-8.44042
8.44042
-2.81399
2.81244
2.93812
-2.93812
-1.75314
1.75314
-4.50277
-0.0523225
-4.50277
4.54053
0.0145639
4.54053
-1.39643
0.111543
-1.39643
4.02327
-4.02327
1.13702
0.147863
1.13702
3.064
-3.064
-1.87701
3.75372
1.87394
-1.87159
6.17586
-1.87936
3.75361
-5.64134
5.64134
-3.00212
0.286272
-3.00212
2.66816
0.0476814
2.66816
-5.26809
5.26809
-3.75411
-0.317772
-3.75411
4.30068
-0.228794
4.30068
2.90744
-2.90744
-2.71531
0.0333647
-2.71531
2.62971
0.0522351
2.62971
0.353579
5.27285
-5.98001
8.79245
-5.27285
0.0263725
5.20855
0.0379264
5.20855
-5.10603
0.0378197
-5.10603
5.00947
0.0587363
5.00947
4.77943
-0.0942671
4.77943
-4.79783
0.112671
-4.79783
-3.33498
-3.46828
-4.87838
0.0915988
-4.87838
-1.74633
-0.0183235
-1.74633
1.71757
0.047079
1.71757
-3.49952
3.49952
-4.26712
0.447958
-4.26712
3.12585
0.044528
3.12585
1.86868
1.88228
5.61963
-5.61963
2.44925
-4.5779
-0.0641986
-4.5779
-4.74084
-4.37407
4.74084
-0.0987419
-0.755793
0.306519
-0.755793
3.15947
0.0381646
3.15947
2.55197
0.0777364
-2.55197
0.162005
3.35711
-3.35711
1.75778
0.632186
1.75778
-5.57047
5.57047
4.94935
0.0601232
-4.94935
0.0955251
6.15724
0.061143
6.15724
-6.19956
-0.0188205
-6.19956
3.34548
-6.77179
-3.45087
4.6815
0.105282
-4.6815
0.116439
2.90086
0.0372591
2.90086
-2.91984
2.91984
-2.98269
0.0445695
-2.98269
-2.1697
0.416562
-2.1697
1.43566
0.317475
1.43566
-4.36891
-0.133862
-4.36891
-4.4402
0.173079
4.4402
0.100335
0.919347
-0.919347
-1.52933
0.132895
-1.52933
-4.18067
-0.188235
4.18067
-0.157404
-3.9081
-0.115169
-3.9081
-3.02269
0.0400005
3.02269
0.0413062
3.11216
0.0473177
-3.11216
0.0481565
-1.87089
3.75316
-1.88007
3.75401
-5.43218
-0.209164
-5.43218
5.70927
-0.067931
5.70927
3.43228
0.386882
-3.43228
0.430161
2.9221
-0.253938
2.9221
-5.2476
-0.0204986
-5.2476
5.22664
0.0414574
5.22664
3.32902
-0.406918
-3.32902
-0.425097
4.43601
-0.135332
4.43601
2.9645
-0.0570654
2.9645
-2.86979
-0.0376488
-2.86979
2.79075
-2.79075
2.73852
0.0522301
-2.73852
0.0232069
-11.1328
11.1139
-0.0351554
-11.0976
5.1734
5.1734
4.20491
0.574515
4.20491
-5.00779
0.209964
-5.00779
3.31128
-6.76215
3.45572
-6.79069
3.46051
-11.6718
3.36868
-6.83696
5.08422
-5.08422
4.97235
0.11187
-4.97235
0.0939634
-1.76237
0.0160376
-1.76237
-2.84572
-0.653798
-2.84572
4.20838
-0.708864
4.20838
-3.03324
3.03324
-3.08087
0.0476361
3.08087
0.0449764
4.51544
-0.0794317
-4.51544
-0.0624555
0.958513
0.178512
-0.958513
0.20272
3.56247
-0.205362
3.56247
-3.16456
-0.192549
-3.16456
-1.76692
0.00455835
1.76692
-0.00914187
-5.81829
0.24782
-5.81829
-11.1906
0.0930266
-11.1527
-6.10653
-6.10653
2.33389
11.1263
-2.86698
-0.00280465
2.86698
0.0338801
2.97843
0.054804
-2.97843
0.058591
-2.85795
0.0672025
2.85795
0.061894
-2.5588
0.389105
-2.5588
-1.02257
1.02257
-1.2071
0.184531
1.2071
0.22856
1.17694
-0.257589
1.17694
1.63168
0.0858972
-1.63168
0.102349
-3.81341
-0.0946906
-3.81341
5.55101
0.158263
5.55101
-3.043
-0.121562
3.043
-0.0784965
-0.03328
11.1472
-5.14012
0.0340885
5.14012
-11.2084
11.2425
-3.24245
0.683646
3.24245
0.962461
5.29435
0.276121
-5.29435
0.286554
5.1872
0.0394358
-5.1872
0.102983
-2.34962
-0.496097
-2.34962
-4.95028
-0.481898
4.95028
-0.741898
-11.4762
-0.201736
11.678
-11.4175
6.02002
0.137216
-6.02002
11.3797
-0.890656
-0.0286913
0.890656
0.131913
1.49068
-0.313739
1.49068
3.72623
-0.163756
-3.72623
-0.0871836
-5.35369
0.106092
5.35369
0.197319
-1.90706
-0.442558
1.90706
-0.416387
-4.26633
4.3045
1.90953
-3.29146
-3.48033
-7.66552
1.85201
1.90115
4.30126
-7.2215
-4.45028
-7.10506
7.27359
-6.98704
-9.30477
9.21051
7.4914
-7.60657
-5.7836
5.82858
6.48203
-6.44072
1.87821
1.87551
6.65571
-6.36944
-16.0473
15.8381
8.38184
-8.69961
13.4741
-13.4946
-13.8074
13.8468
-5.76539
5.79875
-6.64545
6.60781
-6.81941
6.74091
-3.25328
-3.53742
9.39289
-9.30129
11.637
-11.7012
-8.37811
8.82607
3.38251
0.921987
3.42983
-1.88218
3.76038
-1.87143
3.78096
3.46946
-6.72274
3.29269
-6.77302
6.05962
5.5774
-5.96088
-1.70465
-5.8787
5.91596
-5.82123
5.88313
8.96491
-9.01723
-1.88649
3.762
-1.86752
3.76867
-3.42455
-2.35906
3.38002
0.92124
5.72867
3.66422
-5.83395
-1.27111
-7.69808
7.53432
-7.9896
7.79705
-0.454962
5.82547
-5.37051
4.39886
-1.55229
7.37776
5.7213
5.93127
5.86825
-5.59213
1.11878
-6.4893
-6.39377
-2.5878
2.72069
2.61644
-2.46857
5.90033
1.59107
5.74292
-5.48903
-2.11754
-5.58372
3.81836
2.01022
3.86599
4.07633
2.4057
4.11633
3.02978
-3.0365
0.00671711
-3.05636
6.08614
0.725501
-5.41542
-4.49418
3.69164
2.96407
3.73932
-4.95285
-1.41659
-4.52269
-9.66471
-6.3826
-10.1466
10.3145
5.52363
10.2466
-11.5158
11.7131
6.06603
2.3158
5.83724
-4.8799
-3.81971
-5.305
11.1611
-0.950523
-10.2106
-8.24599
-5.56136
8.20453
5.26954
8.18051
5.66628
8.28349
3.18576
7.97535
-8.4553
2.89394
-3.85261
-1.91278
-3.82941
3.74307
2.05568
3.79531
-4.14194
-2.50352
-4.14474
-4.19448
-2.62493
4.25154
2.35626
-4.29666
-3.69294
4.41822
2.32269
3.17815
-7.62843
3.65881
-7.19623
-6.62517
-2.67612
-6.53121
4.25798
2.56153
-6.81951
-2.46476
10.9424
-5.36502
9.23778
-7.12477
-4.57645
-7.18723
-6.76109
-1.61702
-6.58801
-8.74991
8.25381
-9.07972
8.37085
12.6616
-5.66402
-6.99763
-3.96903
-2.47169
3.92088
-0.491048
-3.7112
3.71792
0.0491795
3.83014
4.75212
4.26108
-3.88817
-1.93306
-3.82958
3.82721
2.05592
3.89441
6.76776
2.19715
6.78232
-6.4033
-2.61393
-6.53716
9.08219
-8.66563
2.96538
-2.96082
5.21549
2.58157
-5.01012
-2.68795
6.02546
-3.03378
-2.99168
-12.2237
10.5962
1.62747
-4.8459
-0.447042
0.0022331
-5.51492
-3.78986
5.40224
0.529022
11.1252
7.33536
-5.51353
5.76135
6.16443
6.22455
-0.169223
5.85176
-5.16811
5.23688
-2.24496
-2.99192
5.24911
-5.43735
-1.28805
-5.23216
3.94411
0.305576
1.89563
-1.58911
-2.065
-0.522796
-1.96265
1.6086
1.00784
1.78711
0.966189
1.7545
-2.97914
0.602527
2.37661
-2.01295
-1.86605
-3.53505
-0.976757
4.5118
5.48074
2.05358
-5.39355
-0.19017
2.74034
-2.69326
-0.689925
-2.84512
2.15895
-2.84887
-3.50925
-1.88294
5.39219
-3.36874
-0.460841
3.31393
0.55206
-3.81808
-2.06062
3.77351
0.342816
-3.1316
6.21686
-3.08527
-5.06466
2.52882
3.55733
4.53904
-4.78963
2.44357
2.34606
-1.2323
3.55426
0.185066
3.30032
-6.29485
4.87826
5.49537
3.3307
-5.88225
1.35956
-4.93529
8.91
-8.17739
-0.732601
3.88679
5.02321
7.23518
5.42647
-5.7207
12.9559
-2.18282
-5.99458
7.11811
-3.78741
5.11912
-8.90653
-10.5456
4.55101
-11.1975
11.5741
-0.376573
-2.92474
-8.59108
14.1222
-1.81376
-12.3085
8.43282
-6.38296
-3.77338
10.1563
-7.33348
7.59309
-3.67747
-3.91562
-9.21852
-4.27606
9.11243
2.60072
-9.36448
12.2584
-1.38913
5.49955
0.33769
5.36422
5.31649
-5.62835
0.311862
2.01699
-5.69446
4.2039
-9.83226
-5.17648
9.87002
-4.69354
-7.8526
-7.27225
-0.580351
1.7562
10.5022
-7.42249
5.40809
2.01439
3.3186
0.575815
-3.37083
-0.458577
0.349545
4.48085
-4.83039
4.14485
4.22259
3.39887
1.08198
3.79098
2.12498
-3.82486
-0.319885
-4.09263
1.4677
-1.73637
-3.61175
5.07945
-4.03572
0.423966
-2.69235
-3.54725
6.2396
-4.60513
3.06075
3.15611
5.11667
-4.93678
1.38953
-2.4347
-2.50208
2.64619
-4.38256
1.93774
3.14172
4.26043
0.567486
5.07647
4.79354
-7.63801
0.441778
8.45776
-7.18665
2.01275
6.27074
-7.42084
0.148591
-6.38261
1.01581
-6.38084
-5.80369
5.20186
-6.81888
-3.70467
6.13383
0.648488
-6.23417
-0.353846
-5.93507
-2.81484
-6.37762
-3.08634
-5.99337
-8.80705
-1.60664
-7.20041
6.64717
-6.5878
-3.5588
7.3297
1.04115
-7.35786
7.32916
-7.42085
7.10711
0.0949487
3.62297
4.35602
1.88434
-2.39067
4.27501
-5.01787
7.21502
-8.45596
3.4381
3.9263
-6.54023
-4.52966
5.01643
4.06577
5.3339
9.01186
-10.5538
1.54198
-10.9092
12.2462
-1.33697
-16.6949
5.78568
-7.68305
2.69762
0.267764
2.71365
0.668475
2.4119
-3.08038
-2.29235
-2.30149
-2.25205
-3.30466
5.55671
1.09414
-3.32288
2.22874
-3.43481
4.52896
-0.0801867
-3.2427
5.21993
-2.80802
5.48769
-3.515
1.97269
3.21744
5.49475
-2.27731
4.23559
-1.65402
1.75702
-4.03433
-1.54764
-3.00249
5.05816
-3.23711
3.66108
-0.227772
3.88885
-4.01142
0.977638
-0.612553
3.61004
3.77204
4.15044
-3.06846
2.87557
-4.52959
-1.15876
-3.9621
-0.820389
-0.370337
-3.68165
4.05198
6.04738
-6.41772
-5.30622
9.60269
-4.29647
7.73099
-5.43449
-2.2965
-4.27925
-4.38638
3.89014
1.96161
9.6926
0.197824
-5.63231
-4.97029
-4.00783
3.2059
2.03098
-2.07557
3.70304
2.07333
-0.177704
0.5949
1.19221
1.93028
-1.33538
0.19418
1.7361
-1.39493
1.98161
0.758737
-2.0675
0.104851
-1.29355
3.4525
1.08306
-2.09089
0.755514
1.12079
-3.36575
4.66375
-2.35662
-2.30713
5.78453
1.17434
-3.53096
4.05782
-3.75225
2.27727
-3.25403
-1.25369
-5.00594
-3.41486
-2.44759
4.67633
-3.10912
5.1627
1.16708
-4.97253
6.13961
-3.53465
1.65171
-2.96906
3.72779
-0.994302
-1.97476
2.75213
2.64007
-2.85187
0.00674529
-0.0997405
2.32121
-2.42095
-0.527664
-2.54061
-4.56666
4.90947
-2.11405
4.55762
2.16096
-1.91166
6.46928
1.8153
-3.72696
-3.24936
-3.7102
-1.3809
3.15814
-1.73041
-3.57459
-5.64604
3.9815
-0.681184
-6.35866
7.63271
-1.27405
-3.39459
-1.48367
5.37046
-7.4551
1.76064
-3.2512
4.38151
4.56658
3.88539
-12.4347
0.126247
-6.91109
0.962959
-7.87405
5.98617
-3.39145
7.94246
-10.6056
7.04678
-9.56443
7.20986
-0.664188
5.9734
-5.66154
4.23719
-8.51324
-5.91253
6.48994
-4.17414
6.82763
-4.59307
11.4207
-5.9822
7.04682
4.37388
-1.55499
-5.63224
-6.69937
5.14438
0.347456
5.71167
4.95096
-2.82597
4.63107
2.255
-4.6897
-2.12756
-6.563
1.8733
-3.40689
-1.91844
3.79173
3.19823
3.77405
1.28966
-3.31547
7.05364
-7.63399
-2.3601
-3.44359
6.72983
-1.58545
4.22745
-7.67105
-2.15338
5.00094
-0.982821
-4.01811
0.663081
-4.36775
1.65107
-6.01883
5.16781
-5.52165
2.18082
-9.86386
-5.17704
-5.04512
-2.24878
-5.17207
-7.68519
5.43641
-1.89951
5.42966
-8.72558
7.74275
-3.52062
8.95703
-5.34953
-1.0281
5.76591
1.34119
10.2982
0.0838105
-4.61347
-1.78084
3.88569
-2.10485
1.42506
-3.59784
0.287851
2.46488
3.31966
-6.40899
-0.131247
-4.74472
-3.90417
7.96994
5.69852
11.7459
1.19206
9.18571
-1.21577
10.3778
4.11813
4.34669
-3.01589
4.55786
1.0361
4.47419
-0.832919
2.80561
1.88073
1.86241
0.830854
2.30311
1.46894
3.28074
0.200365
-2.10112
4.66562
-8.67344
-0.966694
-8.09893
1.11158
5.75272
-4.64114
3.1305
-1.09952
1.02565
0.205742
-1.81917
1.61342
-2.78617
-1.99687
-0.26077
-1.60824
2.36375
1.84426
-2.10298
-0.683192
0.313284
-3.72814
2.94074
-2.934
-0.293931
5.84568
-2.71296
0.292012
-1.06125
-2.2486
-2.7714
2.66654
6.19627
0.273008
3.111
5.18248
3.12186
0.295888
6.21177
-6.58834
-3.62049
-6.4621
-0.475928
4.89453
2.57689
7.92533
6.95077
5.36532
-2.30573
-9.93972
6.58571
-2.02784
5.24874
-1.23062
-4.7882
4.91677
2.29825
-5.56526
0.0436079
-4.7446
-6.77244
-0.61157
8.35432
-9.68665
8.65856
5.84371
1.35669
-4.36012
-0.685003
4.17559
0.171102
10.5489
-1.1383
-6.91116
8.04946
-4.61442
3.64772
0.901134
2.8019
2.51456
1.41504
-5.49612
-10.1373
-1.77867
-1.58708
-4.0858
0.426006
-2.27027
6.27844
-2.63071
3.98194
5.41875
6.4444
-2.21166
-4.20606
6.50813
-2.52619
3.91821
)
;

boundaryField
{
    wall-4
    {
        type            calculated;
        value           uniform 0;
    }
    velocity-inlet-5
    {
        type            calculated;
        value           uniform -3.75095;
    }
    velocity-inlet-6
    {
        type            calculated;
        value           uniform -5.62643;
    }
    pressure-outlet-7
    {
        type            calculated;
        value           nonuniform List<scalar> 8(6.01717 5.88627 6.52404 6.89006 6.80326 6.79635 6.767 6.82919);
    }
    wall-8
    {
        type            calculated;
        value           uniform 0;
    }
    frontAndBackPlanes
    {
        type            empty;
        value           nonuniform List<scalar> 0();
    }
}


// ************************************************************************* //
