/*--------------------------------*- C++ -*----------------------------------*\
  =========                 |
  \\      /  F ield         | OpenFOAM: The Open Source CFD Toolbox
   \\    /   O peration     | Website:  https://openfoam.org
    \\  /    A nd           | Version:  9
     \\/     M anipulation  |
\*---------------------------------------------------------------------------*/
FoamFile
{
    format      ascii;
    class       volVectorField;
    location    "19";
    object      U;
}
// * * * * * * * * * * * * * * * * * * * * * * * * * * * * * * * * * * * * * //

dimensions      [0 1 -1 0 0 0 0];

internalField   nonuniform List<vector> 
918
(
(0.985144 -0.000534599 0)
(0.00500363 2.96626 0)
(-0.00810825 1.60335 0)
(0.979694 0.00215574 0)
(-0.00395977 1.56917 2.90858e-21)
(-0.00703126 2.94878 -1.89474e-18)
(0.856793 1.20366 7.27434e-19)
(0.436639 0.199228 -9.22e-21)
(0.999908 -0.000323728 0)
(0.0434965 0.794431 0)
(-0.0256236 1.18005 0)
(0.779188 -0.0095997 0)
(0.0110854 2.93037 0)
(0.00163147 2.79464 0)
(-0.0179166 3.16893 1.0767e-18)
(-0.00413436 1.46954 -9.64449e-21)
(0.559857 0.0926262 5.8015e-19)
(0.194207 1.18154 6.3831e-19)
(0.962931 0.00507449 0)
(-0.00137331 1.34149 0)
(0.145346 0.255607 -4.92509e-19)
(1.00203 -0.00500454 0)
(1.00025 -0.00972623 0)
(0.975796 -0.00645706 0)
(0.693301 -0.0345649 0)
(0.0176401 2.63173 0)
(-0.0151307 2.91018 6.57037e-19)
(-0.0232605 1.61584 0)
(-0.0248209 1.73958 0)
(-0.0223486 1.60963 0)
(-0.00639668 1.83682 0)
(-0.00156395 1.59274 -2.30086e-21)
(-0.00447449 1.47813 0)
(-0.0206308 2.98758 -6.63665e-23)
(-0.0167059 3.00531 1.47287e-18)
(0.00210549 3.00022 0)
(0.869263 -0.00881675 0)
(0.391643 0.927371 -2.31007e-20)
(0.840996 1.21883 -1.01257e-18)
(0.989092 1.05898 9.53408e-19)
(0.707261 1.31364 -1.68937e-19)
(0.702844 1.29727 9.46421e-19)
(0.465641 0.278025 8.99571e-21)
(0.45717 0.181469 0)
(1.16957 0.565606 0)
(0.43793 0.297551 4.22913e-20)
(0.398717 0.201592 -4.38845e-20)
(0.919514 -0.00756811 0)
(1.00034 7.11616e-05 0)
(0.999913 0.000310356 0)
(1.00344 -0.00776682 0)
(1.00094 -0.00106865 0)
(1.00018 -1.5287e-05 0)
(0.0124768 1.73559 -3.42936e-19)
(0.0535013 0.915034 0)
(0.075508 0.868642 0)
(-0.00685532 0.86192 0)
(-0.00251664 0.77618 0)
(0.0321994 1.55131 0)
(-0.0375806 1.27723 0)
(-0.0454348 1.08976 0)
(-0.0217555 1.36986 0)
(-0.0140531 1.23968 0)
(0.856751 -0.00127151 0)
(0.872374 0.00952672 0)
(0.790516 -0.00432422 0)
(0.865875 0.0152926 0)
(0.76381 -0.0104717 0)
(0.0147045 3.00039 6.94098e-19)
(0.0115327 3.00784 0)
(0.00614535 3.00286 0)
(0.0135383 2.99731 7.74623e-24)
(0.00800486 2.95847 -1.0316e-18)
(0.0144849 2.98211 0)
(0.0107641 2.90366 0)
(0.0250934 2.9305 1.39717e-24)
(0.00414637 2.8249 0)
(0.0313355 2.91554 0)
(-0.00659601 2.74382 0)
(0.311039 3.56883 0)
(-0.132513 3.65113 0)
(0.140925 3.25964 -1.00203e-18)
(-0.0108252 2.9917 0)
(-0.0174601 1.81382 0)
(0.000296409 1.62253 9.51399e-21)
(-0.00324599 1.47761 -1.29942e-20)
(0.6088 0.152132 -1.99517e-19)
(0.553612 0.0515596 -1.95712e-19)
(0.591185 0.190276 -6.03053e-19)
(0.53752 0.120757 -4.01636e-19)
(0.224607 0.905454 0)
(0.281232 1.33703 -6.57178e-19)
(0.391761 1.29687 1.08341e-18)
(0.987576 0.0084405 0)
(0.94287 0.00600913 0)
(1.0003 0.00054262 0)
(1.00289 0.0092652 0)
(1.00306 0.00842762 -1.13567e-18)
(0.991982 0.00972391 8.57529e-19)
(-0.0135477 1.49778 0)
(-0.00310114 1.32751 0)
(-0.0325225 1.61993 0)
(-0.0232578 1.53338 0)
(-0.0046724 1.37927 0)
(0.217159 0.270913 1.51882e-19)
(0.264964 0.248974 0)
(0.993588 -0.00824515 0)
(0.954423 -0.00648908 0)
(0.836398 0.0224105 0)
(0.80337 0.0347744 0)
(0.743288 -0.024881 0)
(1.00048 -0.00491318 0)
(0.747132 0.0509314 0)
(0.606895 -0.0144921 7.78902e-19)
(-0.0356789 2.86596 3.43078e-19)
(0.0436149 2.90766 0)
(0.0567288 2.88308 0)
(-0.00549797 2.6964 0)
(-0.0131104 2.98533 6.04512e-19)
(-0.0182856 2.8956 0)
(-0.0153281 2.98816 -1.91111e-18)
(-0.0134654 2.92525 6.59702e-19)
(-0.0221399 1.81487 0)
(-0.0173717 1.81192 0)
(-0.00121854 1.61821 -1.56252e-22)
(-0.00103734 1.59119 0)
(-0.00582602 1.47636 0)
(0.933981 -0.00566294 0)
(0.852774 -0.00892345 0)
(0.863043 0.00887429 0)
(0.948063 -0.00679367 0)
(0.884406 -0.007633 0)
(0.505288 1.12308 1.83931e-20)
(0.557422 1.1788 0)
(0.351372 0.865125 5.53133e-21)
(0.294658 0.727649 0)
(0.949405 1.09432 -2.74998e-19)
(1.06212 0.894678 5.61608e-19)
(0.396739 1.39489 0)
(0.558333 1.3742 0)
(0.558889 1.32545 0)
(0.0937619 0.137421 -1.32017e-19)
(0.503717 0.262506 0)
(0.48875 0.164026 1.14883e-19)
(1.03057 0.945852 0)
(1.09545 0.787456 0)
(1.12169 0.730195 -4.86527e-19)
(1.14933 0.624295 0)
(1.20103 0.405916 5.87153e-20)
(0.956824 -0.00861965 0)
(0.962018 -0.0100052 0)
(0.900972 -0.00805388 0)
(0.984247 -0.00910761 0)
(0.974618 -0.00941443 0)
(0.936811 -0.00620202 0)
(1.00016 0.00227598 0)
(1.00088 0.00138687 0)
(0.999907 0.00085728 0)
(-0.0329779 1.99475 1.97052e-19)
(0.103698 1.68995 0)
(-0.0258268 1.97226 2.40701e-19)
(0.01008 1.74495 -1.19191e-19)
(0.117284 1.18294 -5.29351e-19)
(0.0693094 1.03267 0)
(0.129514 1.02141 0)
(-0.0391834 0.902325 0)
(-0.0423792 0.844243 0)
(0.0633373 1.72432 5.71421e-23)
(-0.00127549 1.54665 0)
(0.0362626 1.7224 2.0214e-20)
(-0.00030707 1.54819 -2.11951e-20)
(-0.0581096 1.01431 0)
(-0.0581081 1.15611 0)
(-0.0524343 0.967693 0)
(-0.014257 1.43576 0)
(-0.00792982 1.27497 0)
(0.942841 0.0152465 0)
(0.879512 0.000674178 0)
(0.923995 0.00865057 0)
(0.845532 -0.00284488 0)
(0.809249 0.0042437 0)
(0.901449 0.0114749 0)
(0.886167 0.00665328 0)
(0.792528 -0.000372124 0)
(0.00597814 3.0649 -6.11953e-21)
(0.0164381 3.05801 0)
(0.0147416 2.96917 0)
(0.00857318 2.87636 0)
(0.928739 3.98847 0)
(1.24431 3.31723 1.01318e-18)
(0.0717414 3.08374 0)
(-0.0260855 2.91134 0)
(-0.0215501 1.8015 0)
(-0.0227438 1.80866 0)
(-0.0198046 1.80403 0)
(-0.0102817 1.8245 5.51545e-21)
(-0.0164853 1.82285 0)
(-0.0141468 1.8207 0)
(-0.00417983 1.498 -4.97795e-21)
(0.00100746 1.66983 7.97118e-21)
(0.00129836 1.64105 1.33254e-20)
(-0.00528427 1.4799 0)
(0.633044 0.120841 2.9404e-19)
(0.568248 0.0243758 -2.8614e-19)
(0.255956 1.51655 0)
(0.268924 0.660932 -2.18215e-19)
(0.202054 1.62851 -7.49751e-19)
(0.220487 1.17432 7.52181e-19)
(0.90439 0.00733194 0)
(0.968053 0.0107495 0)
(0.974972 0.010467 0)
(0.924936 0.00669767 0)
(-0.0133012 1.47258 0)
(-0.0136103 1.48785 0)
(-0.00591784 1.29946 0)
(0.396495 0.305594 3.91817e-19)
(0.336653 0.287356 -4.78194e-19)
(0.344191 0.223092 0)
(1.12267 0.0836775 -2.451e-21)
(1.10818 0.0382287 0)
(1.03628 0.0374289 0)
(0.942539 0.00594234 0)
(0.656998 0.0919115 0)
(0.687593 0.0655922 -1.25391e-18)
(0.584274 0.00846324 4.79049e-19)
(0.00992759 2.98252 4.32041e-19)
(-0.0317865 2.86815 4.94308e-20)
(0.0037804 3.05017 -1.32079e-20)
(0.0199835 3.04354 4.74909e-19)
(-0.0150301 2.99655 2.19213e-20)
(-0.0129657 2.94942 -8.87579e-23)
(-0.0172729 3.01202 -4.15293e-19)
(0.014744 3.02417 3.00114e-19)
(0.00725768 3.03668 -4.69145e-19)
(0.923686 0.0034211 0)
(0.930758 -0.00128427 0)
(0.840684 -0.00655038 0)
(0.957328 0.0122234 0)
(0.943751 0.0133512 0)
(0.88303 0.00802214 0)
(0.916674 0.0136659 0)
(0.926894 0.0145307 0)
(0.836693 0.00792813 0)
(0.71411 1.40927 3.17319e-19)
(0.750156 1.52119 0)
(0.222166 0.370989 2.82192e-20)
(0.176125 0.578127 2.26386e-19)
(0.263011 0.686531 -1.24766e-19)
(0.225142 0.57248 2.30765e-19)
(0.283878 0.68525 7.54211e-19)
(0.107078 0.174058 2.18872e-19)
(0.563756 0.22164 4.32407e-19)
(0.532911 0.243505 1.07153e-19)
(0.513025 0.14613 2.17913e-19)
(1.18975 0.462622 2.85725e-19)
(1.20614 0.256785 2.99208e-19)
(-0.0173371 1.91996 2.96411e-20)
(-0.0245072 1.67058 0)
(0.987293 0.0273524 0)
(0.955646 0.0180436 0)
(0.903887 -0.00142931 0)
(0.0109717 3.0745 0)
(0.0199647 2.94419 8.17547e-19)
(0.0165414 2.95641 0)
(0.0061528 2.85072 -8.10827e-19)
(0.00618422 3.0919 1.93968e-19)
(0.00732454 3.08252 0)
(0.784043 1.82705 -2.36371e-19)
(1.2512 2.51258 6.49179e-19)
(0.766947 1.96908 -1.48589e-18)
(0.0210886 2.9843 -3.18365e-19)
(0.037383 3.00751 0)
(-0.0322068 2.88211 0)
(0.0205698 1.69427 5.47677e-21)
(0.00594937 1.69768 -4.47843e-21)
(0.00614007 1.52496 -3.00396e-21)
(0.274997 1.32268 6.92291e-19)
(0.231935 0.441443 -4.75444e-19)
(0.00844411 1.9493 4.87489e-19)
(0.121478 1.85107 -6.19492e-19)
(0.17714 1.46896 9.70053e-20)
(0.0046271 3.11786 -1.09497e-18)
(0.0165109 3.11811 1.17274e-18)
(-0.00872029 2.98086 5.271e-19)
(-0.0027585 2.9777 -4.68717e-19)
(-0.0216456 2.88234 -5.36835e-19)
(0.00881306 3.09861 -1.42133e-18)
(0.00206497 3.10668 1.38802e-18)
(0.219608 0.601576 0)
(0.160099 0.584318 -4.37755e-19)
(0.125922 0.198324 1.93454e-19)
(0.319229 0.81089 6.57465e-19)
(0.170998 0.219282 -1.00726e-18)
(1.20437 0.170495 -5.23014e-20)
(1.20619 0.308728 0)
(1.1924 0.118705 1.16647e-19)
(0.0394812 1.76178 1.28797e-21)
(-0.00771667 1.81954 0)
(0.00309423 1.59651 0)
(0.323415 1.20285 -2.53311e-19)
(0.349158 1.02114 -5.34211e-19)
(0.193265 0.314548 9.20505e-19)
(1.00583 -0.0110919 0)
(1.00761 -0.00765719 2.07817e-19)
(-0.0227532 1.8009 0)
(-0.0322664 1.80818 0)
(1.00216 0.0033941 1.58842e-21)
(1.00381 0.00943653 4.26736e-19)
(-0.00987304 1.82939 -7.42613e-21)
(-0.00651465 1.82844 0)
(0.0400348 3.18432 1.23848e-19)
(0.400367 3.50416 0)
(1.11259 0.644651 5.83889e-20)
(1.01264 0.0126748 -2.17323e-21)
(1.02144 -0.0106027 0)
(1.0017 1.91275e-05 -5.2149e-23)
(0.117129 1.134 0)
(0.14307 2.65078 0)
(-0.174585 1.49533 0)
(-0.134933 2.21448 2.01882e-20)
(-0.0787644 1.98722 5.38335e-20)
(1.00538 0.00985721 2.70231e-21)
(1.04695 0.0143221 0)
(1.07163 0.0293105 0)
(-0.0243593 1.81137 0)
(-0.0144431 1.8538 0)
(-0.0276444 1.7828 0)
(0.302355 1.44045 -4.39049e-19)
(1.01111 -0.00957048 0)
(1.0095 -0.0154249 0)
(1.00233 0.000413636 2.62044e-19)
(1.00551 -0.00497198 -3.12707e-19)
(1.00122 -0.00108493 0)
(-0.0277305 1.80533 0)
(-0.0248633 1.79823 0)
(-0.0249655 1.80281 0)
(-0.0281032 1.78278 0)
(-0.0278786 1.78464 0)
(-0.0287393 1.7852 0)
(1.03011 -0.0155635 0)
(1.02076 0.0178235 -8.46075e-22)
(0.785849 1.26735 5.15313e-19)
(1.00288 0.000224634 -2.65197e-19)
(1.00322 0.00565696 3.16639e-19)
(1.0013 0.00219318 0)
(1.01295 0.0104058 2.57831e-19)
(1.00815 0.00830666 -3.19951e-19)
(1.00864 0.0142513 0)
(-0.0132933 1.85296 0)
(-0.00966491 1.84061 9.78833e-21)
(-0.0071196 1.83982 -6.6143e-21)
(1.18677 0.252206 -4.32403e-20)
(1.12577 0.0887823 0)
(0.054238 3.07825 -5.35502e-19)
(0.0687655 2.85106 -4.27852e-20)
(0.148561 3.19811 8.33038e-19)
(0.142642 3.22701 -8.84617e-21)
(0.14104 3.24393 0)
(0.021526 3.13856 1.17363e-19)
(0.081167 3.16275 5.227e-19)
(0.0740158 3.19001 -2.26537e-19)
(0.0253322 3.1288 0)
(0.671257 0.327871 0)
(0.620007 0.370907 0)
(1.08578 0.671702 -2.29104e-19)
(1.08236 0.812084 3.60037e-19)
(1.14509 0.561989 0)
(1.17589 0.506996 0)
(1.01573 0.0131271 -4.76217e-19)
(1.01406 0.0138815 5.95357e-19)
(1.02506 -0.010159 0)
(1.02285 -0.0119582 0)
(1.0066 0.00290221 0)
(1.01033 0.00351444 0)
(1.00498 0.001661 0)
(1.00961 0.0055973 0)
(1.00828 0.00603282 0)
(1.00477 0.00496014 0)
(0.134878 1.13059 0)
(0.0406961 0.957953 0)
(0.209776 1.19492 0)
(0.160283 1.22574 0)
(0.143984 2.6643 0)
(0.19534 2.67742 -2.11419e-19)
(0.059692 2.75394 0)
(0.00158463 2.7207 -1.77861e-20)
(-0.164546 2.59622 1.27718e-19)
(-0.141037 1.52375 0)
(-0.111944 1.56731 0)
(-0.202647 1.43674 0)
(-0.171976 1.32333 0)
(-0.352605 2.04145 5.87361e-20)
(-0.111425 2.05465 2.95236e-20)
(-0.124993 2.2037 1.52527e-20)
(-0.0779264 2.12262 0)
(-0.0743709 1.98524 -1.03686e-19)
(-0.0548242 1.95621 -2.73954e-20)
(-0.355089 2.02151 -6.04986e-20)
(-0.191531 2.00256 -3.86865e-20)
(-0.207728 2.11923 -1.9979e-20)
(1.01445 0.020519 4.72322e-19)
(1.0129 0.0050625 -5.80841e-19)
(1.00714 0.020838 -4.92057e-19)
(0.992309 0.0135121 6.22281e-19)
(1.04702 0.0156706 0)
(1.0343 -0.0019323 0)
(1.06858 0.0388748 0)
(1.05388 0.0220781 0)
(1.05381 0.0148941 0)
(1.10905 0.0791321 0)
(1.08239 0.0476193 0)
(1.08682 0.0380603 0)
(-0.015265 1.83234 -1.46688e-21)
(-0.0244743 1.82348 0)
(-0.018604 1.82393 0)
(-0.0235143 1.8704 1.24267e-20)
(-0.0218524 1.87464 -3.99282e-22)
(-0.0357034 1.81448 1.13827e-20)
(-0.0317314 1.80851 -1.15109e-20)
(-0.0338139 1.79499 0)
(-0.0317733 1.79925 0)
(-0.0315026 1.79948 0)
(-0.0338713 1.7732 0)
(-0.0230837 1.74667 0)
(0.378516 1.47085 8.34688e-19)
(0.399606 1.47501 3.29232e-19)
(0.582939 2.41411 -1.52461e-19)
(0.404614 2.51276 4.39084e-19)
(0.353755 2.07381 -1.9681e-20)
(1.02096 -0.0080363 0)
(1.01514 -0.0097424 0)
(1.01517 -0.0157884 0)
(1.00726 -0.000983577 0)
(1.00466 -0.00157657 0)
(1.00744 -0.00471915 0)
(1.00952 -0.00401409 0)
(1.01356 -0.0043396 0)
(1.02267 0.0176923 4.54711e-19)
(1.01706 0.0168389 -5.81665e-19)
(1.0232 0.0216707 -4.63891e-19)
(1.01733 0.0216138 5.81819e-19)
(0.760909 1.31252 0)
(0.689663 1.37219 6.10187e-19)
(0.859231 1.20486 3.5146e-19)
(0.901347 1.16148 -4.67242e-19)
(1.14581 2.61299 -5.1227e-19)
(0.834845 0.112104 3.03252e-19)
(1.12521 0.0984125 0)
(1.17169 0.176878 3.97998e-20)
(1.15938 0.15659 1.80281e-21)
(0.977233 0.122831 0)
(0.150335 2.9678 1.39362e-19)
(0.127068 2.87398 -6.86019e-19)
(0.0397102 2.35338 4.97525e-19)
(0.105212 0.109152 -2.08865e-19)
(0.344744 3.43234 -4.36237e-19)
(0.19964 3.32309 0)
(0.240783 3.36841 5.6812e-19)
(0.257008 3.04166 -7.71367e-19)
(0.351132 3.20125 0)
(0.00662515 3.12079 2.7283e-20)
(0.017827 3.12958 -3.46447e-19)
(0.0154561 3.12546 5.0992e-19)
(0.0377679 3.14018 0)
(0.0364163 3.15181 0)
(1.21103 2.61639 0)
(0.505121 0.850649 -2.40652e-19)
(1.01505 0.992402 -1.93095e-19)
(0.953354 1.05092 0)
(0.795795 0.951095 4.83706e-20)
(1.0357 0.862438 3.09493e-20)
(0.406485 0.471846 -5.60643e-19)
(0.7058 0.336577 -2.29891e-20)
(0.690936 0.280873 2.30926e-19)
(0.626325 0.408499 1.84434e-20)
(0.564801 0.400644 -7.59565e-19)
(0.683983 0.356032 0)
(0.719459 0.418822 3.71771e-19)
(0.716449 0.415656 0)
(0.659111 0.382804 0)
(0.640405 0.326801 0)
(0.751956 0.589232 1.42767e-19)
(1.18596 0.26888 1.97409e-20)
(1.18195 0.401877 0)
(1.19292 0.356794 0)
(0.76243 0.211474 3.4833e-19)
(0.809127 0.511007 -1.92692e-19)
(0.733022 0.490301 3.15255e-19)
(0.912317 0.411706 -2.99151e-19)
(1.01969 0.0144767 3.13097e-19)
(1.0174 0.0139496 -3.21467e-19)
(1.01418 0.0160635 0)
(1.03162 -0.0135564 0)
(1.02827 -0.010823 -2.90624e-19)
(1.02446 -0.0163866 2.87575e-19)
(1.02804 0.00695993 0)
(1.02546 0.0150065 0)
(1.01137 0.00452034 0)
(1.01434 0.00891325 0)
(1.01545 0.00410439 0)
(1.0136 0.0020217 0)
(-0.0540918 1.02564 0)
(-0.1028 1.02594 0)
(0.311792 1.21186 4.77562e-19)
(0.293431 1.44284 2.59008e-19)
(0.208717 1.35848 5.77426e-19)
(0.21416 1.36977 -9.15352e-19)
(0.341679 1.32696 0)
(0.365016 1.66866 3.56566e-19)
(0.341973 1.71038 0)
(0.362534 2.02657 2.85895e-20)
(0.358112 2.38797 2.19591e-19)
(0.423179 1.46637 -3.1613e-19)
(0.314212 1.41603 1.91639e-19)
(0.359471 1.32692 -1.58069e-19)
(0.329529 1.36377 3.10684e-19)
(0.287164 1.63261 0)
(0.334035 1.62825 -2.01695e-19)
(-0.282849 2.47442 1.97698e-19)
(-0.157997 2.65791 0)
(-0.0514687 2.58533 -3.25011e-19)
(-0.143689 2.60477 0)
(-0.10071 2.72898 1.57704e-20)
(-0.121883 2.69723 0)
(-0.329712 1.67795 1.14708e-19)
(-0.420248 1.7822 0)
(-0.319734 1.51229 0)
(-0.30024 1.53328 -1.29377e-19)
(-0.196127 2.3555 -9.30003e-20)
(-0.161714 2.5598 -1.6594e-19)
(-0.138854 2.4389 -9.77808e-22)
(-0.207671 1.89485 1.32597e-20)
(-0.271169 1.88218 -1.63854e-20)
(-0.0922019 1.6187 0)
(-0.0603376 1.64326 0)
(-0.440938 1.89365 -3.5877e-19)
(-0.36467 1.53896 -3.51436e-19)
(-0.402381 1.75911 4.38439e-19)
(-0.320444 1.81844 0)
(-0.0420202 1.84824 -4.32945e-20)
(-0.0418935 1.86808 1.74997e-20)
(-0.0515332 1.87589 -5.81599e-21)
(-0.168397 1.85572 -1.60684e-20)
(-0.0850414 1.91714 -1.00353e-20)
(-0.0997546 1.94201 6.11881e-20)
(1.02112 0.0210757 -3.07076e-19)
(1.02082 0.0167641 3.08832e-19)
(1.01587 0.0151002 0)
(1.0021 0.0463117 4.47517e-19)
(0.993366 0.0335346 -5.19238e-19)
(0.966567 0.0219655 5.99597e-19)
(1.00182 0.0797758 -5.84938e-20)
(1.03249 -0.0146931 0)
(1.03595 -0.000533792 2.60132e-19)
(1.02716 -0.0176561 -2.65221e-19)
(1.05133 0.042575 -1.45278e-20)
(1.05232 0.0292383 1.29146e-19)
(1.04883 0.0492976 0)
(1.04021 0.0429745 -4.79729e-20)
(1.03505 0.0274374 0)
(1.03016 0.0196782 0)
(1.03298 0.00967127 0)
(1.03004 0.0143694 0)
(1.04239 0.0260379 9.90066e-20)
(1.04447 0.0193258 -2.24484e-19)
(1.04372 0.0309308 -1.01299e-19)
(1.04144 0.0301049 -1.16345e-19)
(1.04745 0.0555979 2.1219e-19)
(1.07319 0.0501254 0)
(1.07354 0.0943484 0)
(-0.0361326 1.84769 -1.47514e-20)
(-0.0260847 1.82777 -1.54054e-21)
(-0.0294586 1.83113 0)
(-0.0219789 1.84614 1.48082e-20)
(-0.0174719 1.83564 2.88395e-21)
(-0.0173929 1.84167 -2.79951e-21)
(-0.0493033 1.94281 2.09542e-20)
(-0.0582876 1.89312 -2.144e-21)
(-0.0699349 1.90391 1.06525e-20)
(-0.0359445 1.90516 -1.25805e-20)
(-0.0371501 1.91239 1.54655e-20)
(-0.0430029 1.80473 5.27837e-22)
(-0.04487 1.81809 1.95951e-20)
(0.398693 1.41047 -4.10673e-19)
(0.357798 1.40189 -3.75399e-19)
(0.646766 1.41242 -5.88114e-19)
(0.51999 1.47225 -3.17293e-19)
(0.55746 1.44789 0)
(0.584321 2.38635 1.30962e-19)
(0.652696 2.37374 2.28945e-19)
(0.420982 2.47798 8.77591e-20)
(0.425805 2.54683 -1.56469e-19)
(0.531331 2.51206 2.92884e-19)
(0.537684 2.42546 0)
(0.510141 2.45851 -3.76322e-19)
(0.27677 2.56894 6.43379e-19)
(0.383494 2.51671 -7.20549e-20)
(0.301151 2.61985 -1.00522e-18)
(0.919165 2.3771 2.11964e-19)
(0.822004 2.36271 0)
(1.01082 0.00026289 1.04991e-20)
(1.01614 -0.00520442 -8.7022e-21)
(1.01681 -0.0042024 -1.54334e-19)
(1.01525 -0.0003171 1.55539e-19)
(1.01242 0.000928807 0)
(0.628087 1.25468 0)
(0.628959 1.16685 0)
(0.730934 1.08612 0)
(0.620042 1.12976 0)
(1.17586 2.62975 5.84409e-20)
(1.06093 2.36062 0)
(0.848832 2.22928 -1.38794e-21)
(0.833362 2.49088 0)
(0.927649 2.57069 7.37498e-21)
(0.965464 2.51837 -4.93849e-21)
(0.840853 0.145033 0)
(0.813062 0.150332 8.67016e-20)
(0.925797 0.127769 4.4632e-19)
(0.864969 0.118691 -1.78836e-19)
(0.855933 0.0691984 -5.39286e-19)
(1.02841 0.209642 -2.71762e-19)
(0.953431 0.277153 -1.58208e-20)
(0.891582 0.273768 4.08422e-19)
(0.964121 0.19729 3.0613e-19)
(0.933042 0.158916 -5.63087e-19)
(0.909673 0.174042 7.27485e-20)
(0.932397 0.235008 -1.43834e-19)
(0.910073 0.192405 0)
(0.96884 0.159801 2.7008e-19)
(1.0043 0.161003 0)
(1.00347 0.186929 0)
(1.06795 0.10675 9.1123e-20)
(1.02771 0.150733 -1.33934e-20)
(1.0223 0.213392 -4.99976e-20)
(1.05771 0.185395 0)
(1.02008 0.0262612 2.36244e-19)
(1.03562 0.045616 2.8178e-19)
(1.03243 0.0318214 -2.34433e-19)
(1.03099 0.0492911 -1.89341e-19)
(1.01153 0.0517331 -3.15139e-19)
(0.976083 0.123473 0)
(0.982566 0.0755929 0)
(0.970393 0.0449948 -2.16152e-19)
(0.936257 0.0579293 9.06344e-20)
(1.01552 0.0801856 2.67695e-19)
(1.03252 0.108526 -2.76326e-19)
(1.03561 0.130865 2.51073e-19)
(0.998321 0.12361 0)
(1.04248 0.0963024 0)
(1.02941 0.0790187 -1.14963e-19)
(1.02767 0.0796608 -2.14994e-19)
(0.562973 1.07405 -8.16948e-20)
(0.607667 1.44033 1.81218e-19)
(1.15086 2.76122 8.85196e-20)
(1.21867 3.09832 -6.86942e-20)
(1.24114 2.73247 5.32217e-19)
(1.27405 2.71691 -3.26604e-19)
(1.1996 2.34871 -8.17115e-21)
(1.20428 3.00083 1.84122e-19)
(1.2223 2.96504 -1.98154e-19)
(1.21129 3.25202 -2.65091e-19)
(1.37457 2.98175 3.67152e-19)
(1.3678 2.89855 0)
(0.507679 0.856392 -1.38e-20)
(0.162203 1.29294 3.7668e-19)
(0.523661 0.543367 3.6957e-19)
(0.355908 0.313376 4.02727e-19)
(0.568852 0.431719 4.24989e-19)
(0.561793 0.497842 -6.77836e-19)
(0.556551 0.521475 5.56503e-19)
(0.525361 0.46898 -2.21999e-19)
(0.485762 0.409123 5.09649e-19)
(0.765331 0.269166 -1.95544e-19)
(0.733655 0.297076 0)
(0.72213 0.253111 1.01666e-20)
(0.727413 0.508212 1.97924e-19)
(0.704683 0.469014 -7.27779e-19)
(0.62933 0.49487 1.96485e-20)
(0.646253 0.464724 0)
(0.629068 0.73672 1.58743e-19)
(0.777292 0.75582 6.89328e-20)
(0.709991 0.843059 -8.88347e-20)
(0.825583 0.790448 -2.34602e-20)
(0.864579 0.831452 1.14348e-20)
(0.873246 0.834705 -1.17083e-20)
(0.792778 0.621307 -2.43047e-19)
(0.871063 0.684143 2.18153e-20)
(0.934415 0.696386 0)
(0.922044 0.669758 -2.43515e-20)
(0.980369 0.313241 6.85313e-20)
(1.0892 0.276388 1.8344e-20)
(1.01411 0.246436 1.10974e-19)
(0.96604 0.347875 -1.54901e-19)
(1.01283 0.404439 0)
(1.05174 0.394854 0)
(0.885441 0.351031 5.09784e-21)
(0.817642 0.289179 0)
(0.838125 0.277456 2.08718e-19)
(0.877711 0.283632 -6.94011e-21)
(0.905856 0.412623 8.18313e-19)
(0.862128 0.463831 2.08751e-19)
(0.872325 0.433091 -2.61455e-19)
(0.80868 0.418337 2.79593e-19)
(0.795829 0.414241 1.89491e-19)
(0.770661 0.403923 -1.86442e-19)
(1.02732 -0.0059279 2.44784e-19)
(1.01971 -0.00195563 0)
(1.01822 -0.000840973 1.65763e-19)
(1.02288 -0.00218213 -3.74432e-19)
(1.02207 0.00197783 1.80033e-19)
(1.02096 0.010288 -3.78044e-19)
(1.02239 0.00974849 0)
(1.02133 0.0106556 -7.95995e-20)
(1.01665 0.006881 1.99903e-19)
(1.01687 0.0101086 -1.00585e-19)
(1.01741 0.00921615 7.34116e-20)
(-0.225994 1.28552 0)
(-0.32648 1.4595 0)
(-0.165774 1.14175 0)
(-0.152829 1.13878 0)
(-0.0126922 1.3579 -1.21136e-18)
(0.179956 1.18123 4.19327e-19)
(0.223538 1.683 2.95395e-19)
(0.251558 1.28294 -2.10088e-19)
(-0.332454 1.53015 5.24205e-19)
(-0.323838 1.52323 -4.02427e-19)
(-0.138511 1.25958 9.8578e-20)
(-0.159175 1.26986 6.17265e-19)
(-0.217354 1.28299 7.46995e-20)
(-0.308617 1.39995 5.94356e-20)
(0.0067679 2.59561 3.47542e-19)
(0.119666 2.61281 0)
(0.240362 2.25646 -3.96701e-20)
(0.236325 1.8354 -1.69605e-19)
(0.340071 2.09229 2.57074e-20)
(0.258182 2.45693 0)
(0.277859 2.41549 -2.04977e-19)
(0.374003 2.39634 1.35433e-19)
(0.307115 2.07273 9.1508e-20)
(0.23849 2.2894 2.5905e-20)
(0.162638 2.44187 0)
(-0.403688 2.16733 3.73474e-19)
(-0.338603 2.27338 1.2757e-19)
(-0.397897 2.16542 0)
(-0.308613 2.43439 6.77295e-21)
(-0.357315 2.39317 -1.90054e-19)
(-0.232049 1.6573 -3.73223e-21)
(-0.158893 1.68118 6.60665e-20)
(-0.16141 1.72645 -2.18964e-20)
(-0.246035 1.72277 -1.92603e-20)
(-0.303355 1.69161 0)
(-0.135675 1.72958 0)
(-0.0434898 1.74115 1.34591e-20)
(-0.0750025 1.76143 -3.73121e-21)
(-0.0972049 1.74249 0)
(-0.0588059 1.69092 8.58629e-21)
(-0.0310231 1.7021 -1.92244e-20)
(1.03501 0.00305612 0)
(1.0428 0.00651583 -2.47571e-20)
(1.04674 0.017282 -1.78418e-19)
(1.04618 0.0180973 0)
(1.04634 0.0185506 0)
(1.04547 0.00583284 -6.33135e-21)
(1.03977 0.00437586 2.97145e-19)
(1.04153 0.0118412 3.56859e-19)
(1.03151 0.0165344 0)
(1.03032 0.0149729 0)
(1.04231 0.0190825 1.80102e-19)
(1.03261 0.0147575 0)
(1.03152 0.0138996 0)
(-0.0846135 1.84773 0)
(-0.0576982 1.81452 2.59315e-21)
(-0.06663 1.83975 9.64897e-21)
(-0.0569126 1.76868 0)
(-0.0701239 1.80472 8.62373e-21)
(-0.0541118 1.79625 -7.26602e-21)
(-0.052251 1.78771 0)
(0.36827 1.72052 0)
(0.34033 1.33338 5.9572e-19)
(0.286673 1.3821 0)
(0.425426 1.28471 -7.69801e-19)
(0.489117 1.42707 0)
(0.43563 1.4002 3.80814e-19)
(1.02713 2.70417 -4.22922e-21)
(0.946197 2.41171 -2.67193e-19)
(0.870053 2.14688 3.68382e-19)
(0.846938 2.35881 1.36624e-19)
(0.847622 2.52926 0)
(0.909195 2.5182 0)
(0.878449 2.37659 0)
(0.915664 2.32702 -4.80792e-19)
(0.681191 2.50963 -2.73856e-20)
(0.811391 2.50094 -1.42278e-20)
(0.819529 2.47291 1.0893e-20)
(0.677944 2.35708 0)
(0.786155 2.36083 0)
(0.746064 2.36434 -2.3583e-19)
(0.764295 2.51486 0)
(0.575434 1.08564 0)
(0.468613 0.924275 -1.51445e-20)
(0.515219 0.954991 -2.19868e-21)
(0.49908 1.04988 0)
(0.498459 1.00556 2.60843e-20)
(0.7332 0.869259 8.99477e-21)
(0.757185 1.002 0)
(0.728951 0.960641 -5.3769e-20)
(0.601471 1.02646 0)
(0.616432 0.935847 0)
(1.15628 2.77672 4.1107e-20)
(1.13364 2.84287 1.1022e-19)
(0.928918 2.36992 -2.59172e-19)
(0.894953 2.34288 2.8716e-20)
(1.11987 2.74625 0)
(1.07234 2.7158 -3.44486e-20)
(1.07475 2.48687 -8.68411e-20)
(0.968591 2.21821 -2.96329e-20)
(0.499641 1.3639 0)
(0.498723 1.06705 7.20162e-20)
(0.553751 1.14583 0)
(0.858918 0.210839 0)
(0.82125 0.162792 0)
(0.778808 0.155666 0)
(0.845352 0.218889 -3.2753e-19)
(0.792752 0.219026 2.03058e-19)
(0.940586 0.0527906 -1.86807e-19)
(0.948197 0.1007 0)
(0.924211 0.103872 8.41197e-20)
(0.888433 0.0800162 3.44142e-19)
(0.882822 0.049395 -2.11996e-19)
(1.16361 3.37781 -9.77248e-19)
(1.20838 3.29754 0)
(1.16488 3.40395 -1.92673e-18)
(0.652258 3.56453 1.65353e-18)
(0.87928 3.13043 3.8077e-19)
(0.494123 0.876413 2.24839e-19)
(0.422176 0.861712 0)
(0.354428 0.564088 -8.49509e-20)
(0.42511 0.698971 3.902e-19)
(0.52475 0.541116 -1.16499e-19)
(0.508851 0.565104 1.31747e-19)
(0.651289 0.543732 2.80108e-19)
(0.677368 0.539525 0)
(0.613545 0.638291 0)
(0.577678 0.571164 0)
(0.927356 0.577145 -4.38128e-20)
(0.859807 0.514322 -2.02162e-19)
(0.880687 0.546578 1.02603e-19)
(0.921505 0.486716 -1.48322e-19)
(1.01147 0.470121 0)
(1.02896 0.550348 -1.04754e-20)
(0.830403 0.378172 -4.17363e-19)
(0.82913 0.363551 -4.90432e-19)
(0.783954 0.376537 3.28442e-19)
(0.772582 0.348996 -3.67639e-19)
(0.82048 0.310737 -2.75853e-19)
(0.780725 0.307216 3.38374e-19)
(1.0276 0.00227032 -1.90658e-19)
(1.02892 0.000688671 3.89518e-19)
(1.02816 -0.00671282 2.32559e-19)
(1.03208 -0.00877744 -2.8729e-19)
(1.03685 -0.0014087 0)
(1.03488 0.000534921 -4.67406e-19)
(-0.254381 1.99203 -1.21635e-19)
(-0.243742 1.79944 0)
(0.0122887 1.85874 -9.74771e-19)
(0.107893 1.84583 8.86448e-19)
(0.151234 1.67055 -5.49352e-19)
(-0.0221626 1.68799 0)
(-0.148783 1.84879 0)
(-0.131006 1.77263 -2.81496e-21)
(-0.0963279 1.77489 2.54239e-21)
(-0.0853734 1.80086 4.88342e-21)
(-0.0994911 1.85088 -1.19259e-20)
(-0.112835 1.85002 8.02042e-21)
(0.50376 1.37744 4.0756e-19)
(0.491139 1.39016 -4.37399e-19)
(0.441077 1.2813 3.9487e-19)
(0.413722 1.30054 -2.59833e-20)
(0.617221 1.29572 0)
(0.551691 1.3741 5.24777e-19)
(0.565932 1.3593 -5.07378e-19)
(0.454995 1.26144 -3.89387e-19)
(0.503229 1.21532 0)
(0.559015 1.18393 0)
(0.632078 2.46016 4.03354e-20)
(0.671465 2.47729 5.67375e-19)
(0.706217 2.49374 -3.87744e-19)
(0.604387 2.47806 -1.27305e-19)
(0.549465 2.56966 1.23719e-19)
(0.525853 2.53918 -3.48709e-19)
(0.959198 2.36287 -2.00725e-19)
(1.00037 2.38673 0)
(0.89131 2.1303 -2.68402e-19)
(1.04141 2.6969 0)
(1.0402 2.68323 0)
(0.622975 2.30306 2.45375e-19)
(1.04079 3.18029 4.78077e-19)
(0.913326 3.05037 -4.31872e-19)
(0.295827 0.976771 0)
(0.347613 0.847371 -1.53144e-19)
(0.490359 0.78966 -6.9495e-20)
(0.412541 2.05308 0)
(0.474769 2.79817 -2.65015e-19)
(0.437967 2.56364 0)
(0.639372 0.683015 -3.29591e-19)
(0.712206 0.660084 4.27568e-19)
(0.742412 0.604947 -4.18617e-19)
(0.631193 0.646479 -4.87591e-20)
(0.697184 0.593797 -1.99534e-19)
(1.00004 2.78746 -3.63412e-19)
(1.0327 2.84413 2.717e-19)
(0.65256 2.20227 4.79096e-20)
(0.59867 1.74596 -6.59556e-20)
(0.695689 1.93467 9.05237e-20)
(0.982352 2.4695 -7.14676e-20)
(0.988378 2.47205 -1.44271e-19)
(0.671683 1.88901 -4.06453e-21)
(0.445125 1.35403 -6.97196e-20)
)
;

boundaryField
{
    wall-4
    {
        type            noSlip;
    }
    velocity-inlet-5
    {
        type            fixedValue;
        value           uniform (1 0 0);
    }
    velocity-inlet-6
    {
        type            fixedValue;
        value           uniform (0 3 0);
    }
    pressure-outlet-7
    {
        type            zeroGradient;
    }
    wall-8
    {
        type            noSlip;
    }
    frontAndBackPlanes
    {
        type            empty;
    }
}


// ************************************************************************* //
