/*--------------------------------*- C++ -*----------------------------------*\
  =========                 |
  \\      /  F ield         | OpenFOAM: The Open Source CFD Toolbox
   \\    /   O peration     | Website:  https://openfoam.org
    \\  /    A nd           | Version:  9
     \\/     M anipulation  |
\*---------------------------------------------------------------------------*/
FoamFile
{
    format      ascii;
    class       volScalarField;
    location    "11";
    object      p;
}
// * * * * * * * * * * * * * * * * * * * * * * * * * * * * * * * * * * * * * //

dimensions      [0 2 -2 0 0 0 0];

internalField   nonuniform List<scalar> 
918
(
0.222062
0.932998
0.0115453
0.221008
0.00157722
0.900141
-0.839211
0.410395
0.20145
-0.132058
0.0220603
0.193036
0.760584
0.529563
-1.45803
0.0166795
0.360383
-0.640184
0.199618
0.00786368
0.506842
0.208518
0.211895
0.202787
0.256154
0.526939
0.641438
0.002126
-0.00298156
0.000680328
0.00293664
-0.000400447
0.00681489
0.783752
0.834889
0.857562
0.170153
0.0693422
-0.687106
-0.773058
-0.729732
-0.887629
0.394777
0.40167
-0.496592
0.407881
0.42105
0.190897
0.20099
0.201908
0.203162
0.202064
0.203888
0.313229
-0.147569
-0.216906
-0.0810144
-0.0630502
0.0853092
0.0198901
0.0130666
0.0237088
0.024532
0.132605
0.189852
0.186865
0.195968
0.205884
0.872553
0.84442
0.870581
0.784386
0.80088
0.738436
0.711014
0.548381
0.569746
0.516696
0.505658
-1.89029
-2.84832
-0.862048
-0.597538
0.00162125
0.022966
0.0295728
0.340559
0.348756
0.353964
0.368473
0.826051
-0.584829
-0.776587
0.19937
0.197352
0.207938
0.208894
0.205109
0.204195
0.0151438
0.0191847
-0.00187111
0.00723396
0.00519719
0.474534
0.466732
0.203583
0.200176
0.213221
0.237895
0.223317
-0.0254013
0.270061
0.301934
0.317791
0.50232
0.503327
0.509606
0.614649
0.578196
0.678665
0.701513
0.00763192
0.00234101
0.0135258
0.00996711
0.0124757
0.169306
0.164497
0.183234
0.172784
0.176134
-0.0200735
-0.160889
0.165905
0.182789
-0.604094
-0.679058
-0.709643
-0.769506
-0.889501
0.149326
0.385303
0.390158
-0.511429
-0.417828
-0.579961
-0.34938
-0.426647
0.176577
0.186673
0.180312
0.197214
0.192905
0.193405
0.204918
0.202271
0.20373
0.351383
0.42728
0.263013
0.239623
-0.40347
-0.26486
-0.404226
-0.0317426
-0.020744
0.0955099
0.113815
0.0789234
0.0734876
-0.00547463
0.00650905
-0.00498851
0.0266581
0.028954
0.126254
0.116353
0.141652
0.148162
0.182661
0.182108
0.185311
0.183969
0.661737
0.683878
0.691593
0.665251
-3.84186
-6.62938
-0.267496
-0.119313
0.00112673
0.00234374
0.000873663
0.00279968
0.00346511
0.000454134
0.0454417
0.0403001
0.0337904
0.036861
0.329114
0.332843
0.805118
0.867292
0.743449
0.734389
0.187335
0.191036
0.195047
0.190647
0.0272321
0.0212876
0.0273434
0.420951
0.444699
0.443858
-0.0623284
-0.149935
0.0228371
0.0489741
0.317698
0.302995
0.323954
0.384138
0.423475
0.708773
0.727381
0.72553
0.734371
0.778356
0.794693
0.760118
0.152615
0.161648
0.157608
0.186214
0.184553
0.18417
0.179906
0.182807
0.180997
-0.318211
-0.700555
0.0928459
0.182628
0.234238
0.202189
0.276652
0.433948
0.362969
0.376283
0.382561
-0.282435
-0.354379
0.208168
0.185433
0.0749794
0.102498
0.0874808
0.632854
0.593497
0.643317
0.61665
0.578055
0.603472
-0.658733
-2.17094
-1.27899
0.255847
0.0550449
0.149561
0.0649043
0.050586
0.0542365
0.820692
0.863171
0.476306
0.619568
0.583611
0.464061
0.495598
0.552283
0.476436
0.511656
0.547899
0.526845
-0.00124962
-0.0103551
-0.0473001
0.510125
0.677582
-0.172532
-0.219028
-0.281997
0.124194
0.158908
0.140846
0.84272
0.687563
0.817473
0.199944
0.200456
0.0106188
0.0166337
0.203447
0.203801
0.00697508
0.0111689
0.127026
-1.17476
-0.184372
0.19174
0.183418
0.199556
-0.107705
0.312147
0.0236186
0.0941815
0.0610531
0.188204
0.141634
0.105565
0.00758495
0.020563
0.0155018
-0.458497
0.196873
0.195192
0.198884
0.200494
0.20096
0.010071
0.0104656
0.0058334
0.013644
0.0104749
0.0100958
0.169293
0.180494
-0.526937
0.199391
0.201171
0.201185
0.19484
0.200211
0.198136
0.0180884
0.0134014
0.0146957
-0.0722638
0.04242
0.395195
0.517553
0.334009
0.101982
-0.152471
0.286611
0.358447
0.249712
0.426995
0.365638
0.391396
-0.129542
-0.272816
-0.109728
-0.165126
0.189732
0.18981
0.183565
0.176067
0.194354
0.192865
0.197331
0.194972
0.197674
0.1987
-0.0613601
-0.0628595
-0.132516
-0.213825
0.335485
0.425817
0.248218
0.252004
0.149967
0.0261286
0.0271869
0.0241846
0.013512
0.066948
0.0659442
0.0777527
0.0794618
0.0509866
0.0485248
0.0609484
0.0603727
0.0635335
0.183849
0.183953
0.188225
0.19515
0.147741
0.152061
0.122844
0.139952
0.129823
0.0735595
0.105798
0.0847147
0.00934663
0.0103541
0.00841831
0.0258337
0.0325884
0.01637
0.0139035
0.0147975
0.0120348
0.0125899
0.0191882
0.0238726
-0.463164
-0.565534
0.847517
0.677213
0.208984
0.187332
0.192252
0.190321
0.19558
0.197139
0.197158
0.195136
0.192557
0.180624
0.182256
0.178909
0.178706
-0.476226
-0.569578
-0.423567
-0.465164
-0.119651
0.302509
0.0534323
-0.00760487
-0.012546
0.201266
0.559851
0.398883
0.471734
0.492384
-0.689208
-0.290698
-0.616332
-0.019225
-0.211993
0.394547
0.449181
0.473439
0.41785
0.363591
-0.395558
0.195193
-0.377793
-0.339976
-0.153811
-0.242974
0.416944
0.350439
0.358335
0.379727
0.399787
0.353122
0.333928
0.328946
0.37025
0.374577
0.169875
-0.0360599
-0.0852054
-0.117784
0.331253
0.210163
0.264984
0.186173
0.183964
0.187339
0.185096
0.171852
0.177964
0.172493
0.179481
0.180895
0.190464
0.189722
0.185686
0.187526
-0.0383932
-0.024461
-0.0982006
-0.319247
-0.23348
-0.320975
-0.155775
0.123772
0.111923
0.301689
0.32423
0.0699996
-0.236461
-0.153277
-0.278597
0.122382
0.0359382
0.111779
0.164132
0.180471
0.14631
0.216559
0.201857
0.0434494
0.0546793
0.0331887
0.0327925
0.101343
0.127135
0.118283
0.0510407
0.0496025
0.0274442
0.0279847
0.0770173
0.0457894
0.0601781
0.0701895
0.024611
0.0274105
0.0308215
0.0447107
0.0427244
0.0456724
0.179803
0.180982
0.180744
0.191149
0.20294
0.215755
0.186551
0.165104
0.158174
0.161828
0.139151
0.146852
0.144188
0.152766
0.171495
0.177664
0.177457
0.178405
0.164321
0.166911
0.154959
0.157437
0.140854
0.124374
0.112091
0.0198213
0.0135929
0.016708
0.0175131
0.0115254
0.0131199
0.0450214
0.035602
0.0416084
0.0366541
0.0397612
0.019296
0.0202234
-0.420709
-0.31016
-0.545354
-0.543396
-0.593169
0.774982
0.834884
0.675019
0.490121
0.528558
0.699858
0.779269
0.446361
0.531421
0.546537
-0.0364093
0.591758
0.192931
0.191875
0.187917
0.187041
0.189277
-0.364637
-0.276937
-0.252393
-0.177907
0.0178756
0.140744
-0.173766
-0.320298
-0.146373
-0.17598
0.294982
0.311866
0.258502
0.284538
0.28561
0.122233
0.18498
0.23746
0.20223
0.238491
0.258597
0.220187
0.249169
0.201712
0.16377
0.164758
0.1097
0.129854
0.109663
0.0901544
0.180265
0.160458
0.1697
0.164382
0.181879
0.21177
0.204062
0.224126
0.242942
0.17008
0.136596
0.144694
0.169805
0.133283
0.144027
0.158765
0.0238333
0.0141109
0.00641036
-0.389879
-0.272807
-0.301504
-0.344708
-0.294404
0.0117019
-0.744819
-0.696887
-1.32727
0.147604
0.591485
0.372277
0.344142
0.39661
0.371342
0.371019
0.410412
0.419083
0.32074
0.344434
0.343228
0.296506
0.322106
0.347897
0.34839
0.178604
0.0635036
0.0464486
0.0181424
-0.106937
-0.0774544
0.12793
0.0517025
-0.0169938
-0.00927616
0.146593
0.0511188
0.114374
0.141886
0.0773873
0.0392833
0.228117
0.286872
0.283959
0.259837
0.179168
0.188468
0.215591
0.247001
0.273149
0.306286
0.180312
0.1856
0.186303
0.184143
0.180998
0.182802
0.182251
0.184232
0.185526
0.188087
0.186541
0.0139039
0.0229484
-0.00406845
0.0029437
0.00618608
-0.0221303
0.0485905
-0.0183281
0.0372586
0.036577
0.00350448
-0.0108757
0.00470565
0.0206064
0.170665
0.199453
0.182761
0.12938
0.232049
0.398415
0.415609
0.364438
0.208708
0.233333
0.301955
0.0885967
0.0971437
0.084927
0.109961
0.10293
0.0307564
0.0304066
0.0354805
0.0424638
0.0403065
0.0325281
0.0262622
0.0277266
0.0307978
0.0288084
0.027608
0.167026
0.163104
0.163928
0.15813
0.156429
0.169266
0.172133
0.173439
0.177548
0.178707
0.172463
0.175516
0.177898
0.031099
0.0253176
0.0272615
0.0264984
0.0272745
0.023182
0.0223299
-0.518515
-0.369302
-0.28875
-0.532725
-0.49372
-0.48175
-0.0614148
-0.180348
-0.121701
0.434313
0.201328
0.129361
0.1702
0.28808
-0.230339
0.054304
-0.190608
0.721383
0.548091
0.719823
0.23113
-0.0632941
0.078498
0.120214
-0.0152353
0.0295087
-0.0136466
-0.108481
-0.0831308
-0.0523839
0.0438968
-0.0144722
0.0569576
-0.13447
-0.15394
0.00506039
-0.037381
0.163167
0.223778
-0.242548
-0.141693
-0.252394
0.287121
0.304853
0.320486
0.295242
0.316899
0.246685
0.236792
0.256261
0.265775
0.256738
-1.06908
-0.787886
-1.7362
-1.08575
-0.655768
0.167686
0.147787
0.371829
0.283065
0.371594
0.355315
0.320495
0.288509
0.288172
0.325668
0.0453658
0.148679
0.121905
0.131884
0.0407787
-0.0202841
0.260202
0.253384
0.291623
0.315514
0.273236
0.316889
0.176835
0.177488
0.17632
0.173751
0.170297
0.172049
0.0999907
0.0773787
0.118776
0.0992899
0.064843
0.0588917
0.0388508
0.0330417
0.0306706
0.0309292
0.0349555
0.0398541
-0.469364
-0.528738
-0.6614
-0.650891
-0.408696
-0.520351
-0.481974
-0.655653
-0.533646
-0.400905
0.131435
0.48567
0.202894
0.587877
0.382523
0.524513
-0.0252102
0.175345
0.132107
0.0225304
-0.0116332
-0.138656
-0.607248
-0.536343
0.375266
0.390039
0.196395
-0.0055927
-0.245042
-0.0559952
0.209615
0.149596
0.191332
0.254545
0.251527
-0.328042
-0.254695
0.0137305
0.246823
-0.00821833
-0.0760739
-0.0352653
0.0878207
0.0168371
)
;

boundaryField
{
    wall-4
    {
        type            zeroGradient;
    }
    velocity-inlet-5
    {
        type            zeroGradient;
    }
    velocity-inlet-6
    {
        type            zeroGradient;
    }
    pressure-outlet-7
    {
        type            fixedValue;
        value           uniform 0;
    }
    wall-8
    {
        type            zeroGradient;
    }
    frontAndBackPlanes
    {
        type            empty;
    }
}


// ************************************************************************* //
