/*--------------------------------*- C++ -*----------------------------------*\
  =========                 |
  \\      /  F ield         | OpenFOAM: The Open Source CFD Toolbox
   \\    /   O peration     | Website:  https://openfoam.org
    \\  /    A nd           | Version:  9
     \\/     M anipulation  |
\*---------------------------------------------------------------------------*/
FoamFile
{
    format      ascii;
    class       surfaceScalarField;
    location    "11";
    object      phi;
}
// * * * * * * * * * * * * * * * * * * * * * * * * * * * * * * * * * * * * * //

dimensions      [0 3 -1 0 0 0 0];

internalField   nonuniform List<scalar> 
1300
(
3.75095
5.62643
-6.25736
3.75095
-6.14751
5.62643
-4.44576
4.44576
-1.51376
1.51376
1.87621
1.87475
-4.86847
4.86847
-4.9679
4.9679
-2.87602
2.87602
-5.24656
5.24656
-5.06694
5.06694
4.68859
-4.68859
-4.96905
4.96905
-1.93836
1.93836
-4.69877
4.69877
3.17757
-3.17757
-5.18772
5.18772
-0.559589
0.559589
-0.554756
4.30571
3.1962
3.1962
-2.60187
2.60187
-4.84419
4.84419
6.21853
-6.21853
9.49364
-9.49364
-3.23628
-3.38276
1.36278
-8.11165
-4.78473
-4.78473
-8.44039
8.44039
-2.81396
2.81247
2.98334
-2.98334
-1.73509
1.73509
-4.43654
-0.00921917
-4.43654
4.45216
-0.00639288
4.45216
-1.64869
0.134931
-1.64869
4.09501
-4.09501
1.32985
0.183913
1.32985
3.04703
-3.04703
-1.87688
3.75309
1.87407
-1.87255
6.17826
-1.8784
3.75315
-4.94496
4.94496
-4.91365
0.0451738
-4.91365
4.85431
0.0141595
4.85431
-5.28453
5.28453
-4.90173
-0.066172
-4.90173
5.03986
-0.0719605
5.03986
3.08367
-3.08367
-2.90062
0.0246004
-2.90062
2.83239
0.0436358
2.83239
0.353543
5.27289
-5.97997
8.79244
-5.27289
0.0263238
5.20858
0.0379798
5.20858
-5.10541
0.0384776
-5.10541
5.00852
0.0584161
5.00852
4.76961
-0.0810208
4.76961
-4.80995
0.121356
-4.80995
-3.34716
-3.29707
-5.05841
0.0893582
-5.05841
-1.96931
0.0309538
-1.96931
1.89709
0.0412652
1.89709
-3.65158
3.65158
-4.52313
-0.175638
-4.52313
3.1258
0.0517758
3.1258
1.86808
1.88288
5.61903
-5.61903
2.44146
-5.17677
-0.0109436
-5.17677
-5.21111
-4.28252
5.21111
-0.0233959
-0.874736
0.315148
-0.874736
3.16142
0.0347743
3.16142
2.73621
0.0961806
-2.73621
0.134332
3.46518
-3.46518
1.97509
0.626783
1.97509
-5.57464
5.57464
4.94569
0.0628301
-4.94569
0.101501
6.15726
0.0612666
6.15726
-6.19962
-0.0189116
-6.19962
3.37729
-6.76005
-3.37669
4.88318
0.0858663
-4.88318
0.0984471
3.00265
-0.0193027
3.00265
-2.93034
2.93034
-2.97896
-0.00438032
-2.97896
-2.12756
0.392463
-2.12756
1.42038
0.314718
1.42038
-4.37659
-0.0599492
-4.37659
-4.40485
-0.118284
4.40485
0.0473087
0.738008
-0.738008
-1.77995
0.131263
-1.77995
-4.23179
-0.144807
4.23179
-0.136773
-4.00832
-0.0866975
-4.00832
-3.00318
0.024215
3.00318
0.0438534
3.11106
0.0503651
-3.11106
0.0640254
-1.87105
3.75392
-1.87991
3.75398
-4.73618
-0.208784
-4.73618
5.06312
-0.118154
5.06312
4.89505
-0.19628
-4.89505
-0.0185994
4.85824
-0.00392183
4.85824
-5.23888
-0.0456525
-5.23888
5.27563
0.00890708
5.27563
4.8553
0.00293659
-4.8553
-0.0464294
5.10205
-0.0621856
5.10205
3.13093
-0.0472596
3.13093
-3.05117
-0.0325008
-3.05117
2.93772
-2.93772
2.92173
0.0159892
-2.92173
0.0211123
-11.133
11.1141
-0.0354684
-11.0975
5.17312
5.17312
4.16512
0.60449
4.16512
-5.0172
0.207252
-5.0172
3.35224
-6.72893
3.31689
-6.66404
3.31851
-11.4302
3.35472
-6.65179
5.19166
-5.19166
5.13547
0.0561832
-5.13547
0.0770687
-2.00229
0.0329848
-2.00229
-3.17656
-0.475015
-3.17656
4.09706
-0.445487
4.09706
-3.00856
3.00856
-3.07123
0.0626713
3.07123
0.0545699
5.15006
-0.0480141
-5.15006
-0.0267124
1.10076
0.229084
-1.10076
0.226028
3.66263
-0.197445
3.66263
-3.2843
-0.180885
-3.2843
-2.01491
0.0126152
2.01491
-0.0398193
-5.82055
0.245904
-5.82055
-11.1906
0.0930872
-11.1526
-6.10653
-6.10653
2.33386
11.1263
-3.02527
-0.0259009
3.02527
-0.0226214
2.94955
0.0590067
-2.94955
0.0192038
-2.93715
-0.00057364
2.93715
-0.00680504
-2.50688
0.37932
-2.50688
-0.79923
0.79923
-1.13245
0.333223
1.13245
0.287921
1.16159
-0.423578
1.16159
1.85327
0.043824
-1.85327
0.0733117
-3.92156
-0.0867577
-3.92156
5.12325
-0.0601322
5.12325
-3.1898
-0.0944941
3.1898
-0.0588722
-0.0334871
11.1476
-5.13963
0.0342154
5.13963
-11.2088
11.243
-3.19388
0.687003
3.19388
0.971243
5.30086
0.273787
-5.30086
0.283658
5.23434
0.0412913
-5.23434
0.0426788
-2.76727
-0.409293
-2.76727
-4.44946
-0.286723
4.44946
-0.352395
-11.4768
-0.199877
11.6767
-11.4184
6.02042
0.136839
-6.02042
11.3799
-0.555682
-0.182326
0.555682
0.243548
1.68991
-0.528319
1.68991
3.82756
-0.164936
-3.82756
-0.0939968
-5.16708
-0.0718016
5.16708
-0.0438302
-2.2095
-0.55777
2.2095
-0.519592
-4.27023
4.305
1.90803
-3.37248
-3.38756
-7.65501
1.85247
1.90145
4.29393
-7.04149
-4.38867
-6.94304
7.28162
-6.99796
-9.32156
9.24054
7.43233
-7.51903
-5.77262
5.82719
6.40827
-6.36441
1.88023
1.87286
10.0437
-9.9985
-11.0877
10.879
10.1521
-10.2183
10.8169
-10.8626
-12.4325
12.4738
-5.74091
5.76551
-6.60594
6.57344
-6.78209
6.72322
-3.31616
-3.34789
9.07764
-8.98829
11.7654
-11.7763
-8.91343
8.73779
3.38353
0.921472
3.43389
-1.88479
3.76502
-1.86836
3.77639
3.37043
-6.68659
3.35851
-6.74607
6.06326
5.70211
-6.03987
-1.61514
-5.8697
5.8504
-5.85997
5.85316
8.72455
-8.73377
-1.88509
3.75795
-1.86889
3.77034
-3.41687
-2.35575
3.36509
0.928836
5.57652
3.50113
-5.66238
-1.28065
-7.61527
7.45033
-7.88515
7.70427
-0.469293
5.83201
-5.36272
4.3749
-1.54727
7.37928
5.73435
5.9416
5.86999
-5.5962
1.12797
-6.49068
-6.38918
-2.69752
2.82878
2.64645
-2.46253
5.86874
1.56359
5.73197
-5.42531
-2.09372
-5.51207
3.80168
2.02551
3.86435
4.01055
2.39771
4.03477
3.03771
-3.03288
-0.00482509
-3.06849
6.1062
0.725063
-5.42424
-4.4954
6.68418
3.3595
6.69834
-6.45325
-3.54526
-6.47185
-6.7515
-4.33625
-7.03822
6.94707
3.9319
6.82891
-8.08384
8.04001
6.78952
3.36256
6.71756
-6.71271
-3.50555
-6.75914
10.5354
-2.68947
-7.84597
-6.98475
-5.44774
6.97584
3.84107
7.56595
4.90783
7.60863
3.58046
6.95498
-7.42153
1.97379
-3.83483
-1.90608
-3.81372
3.72819
2.03732
3.77183
-4.13259
-2.47336
-4.15849
-4.20001
-2.58208
4.24727
2.32618
-4.32429
-3.56086
4.41878
2.30444
3.02075
-7.40942
3.63104
-6.97893
-6.32856
-2.65973
-6.25149
4.10808
2.61887
-6.72694
-2.57851
10.9397
-5.23761
9.32458
-7.32206
-4.45426
-7.34877
-5.9657
-2.94773
-6.08398
-6.78696
6.37766
-6.54325
6.09777
13.59
-4.93587
-8.65414
-3.95556
-2.40885
3.89153
-0.457639
-3.72152
3.71669
0.0435049
3.8199
4.74137
4.28373
-3.86795
-1.99202
-3.84875
3.86122
1.99194
3.86065
6.23376
2.49079
6.22737
-6.28993
-2.44384
-6.34988
8.92559
-8.53312
2.93253
-2.91991
5.1383
2.56596
-4.94086
-2.67441
5.98079
-3.02319
-2.9576
-12.2405
10.6616
1.57891
-4.8612
-0.486303
0.073286
-5.53257
-3.78899
5.41122
0.530382
11.192
7.40296
-5.51495
5.76086
6.1617
6.22453
-0.164653
5.77558
-5.08857
5.14564
-2.23495
-2.91068
5.22567
-5.37048
-1.12421
-5.29693
4.17272
0.361493
1.90927
-1.59412
-2.15577
-0.541743
-2.08246
1.60142
1.04503
1.8305
1.01296
1.81582
-2.88722
0.511788
2.37543
-1.87426
-1.95075
-3.61653
-0.864706
4.48123
5.42083
2.02951
-5.32683
-0.185236
2.80031
-2.75904
-0.881423
-2.7351
1.91388
-2.79531
-3.37312
-1.84522
5.21834
-3.36259
-0.486159
3.30358
0.560767
-3.74152
-2.12819
3.7459
0.288871
-3.09912
6.18314
-3.08403
-5.09113
2.5277
3.5785
4.55321
-4.85098
2.47055
2.38043
-1.27248
5.83823
0.86011
5.83431
-8.65836
5.1131
6.66941
2.06837
-6.47313
0.00128672
-8.65707
10.1266
-8.14676
-1.97988
5.75012
4.37653
5.98296
7.60705
-4.96076
10.9437
0.316743
-8.46351
8.34033
-6.27195
4.05925
-10.3312
-11.6663
3.20279
-7.31754
8.69221
-1.37467
-2.36769
-5.71615
9.68523
-1.05263
-8.6326
5.77628
-5.41642
-5.34005
10.7565
-8.10589
8.8456
-2.67493
-6.17067
-6.77605
-4.08652
6.84785
1.19216
-9.94911
11.9229
-2.99413
5.92271
0.794852
5.86052
3.98094
-6.02905
2.04811
4.12495
-6.79989
2.77075
-8.7998
-4.88949
9.54901
-4.65952
-7.54922
-6.7577
-0.791522
2.0344
9.8885
-6.94223
5.34438
1.59785
3.32829
0.532358
-3.34428
-0.469439
0.342666
4.44085
-4.78352
4.1145
4.21068
3.33826
1.10259
3.82085
2.02955
-3.79823
-0.360259
-4.02011
1.43803
-1.69394
-3.48509
4.92312
-3.92312
0.438036
-2.63375
-3.45817
6.09192
-4.53982
3.06679
3.11636
5.05873
-4.81564
1.35747
-2.38752
-2.42812
2.56566
-4.2596
1.84607
3.07705
4.15051
0.589646
4.84853
4.70048
-7.4674
0.488472
8.20161
-6.92095
1.69419
5.91444
-7.03857
0.280869
-5.97062
1.10496
-6.34257
-5.62198
3.56514
-6.51286
-6.76606
5.47824
0.749127
-5.52555
-0.558431
-4.63621
-2.15074
-5.19398
-2.14995
-4.3933
-7.11071
-1.50935
-5.60136
4.86832
-4.70372
-2.33451
5.05611
1.04166
-7.61143
7.4291
-7.18581
6.65749
0.0616423
3.65505
4.34537
1.93652
-2.38256
4.31908
-4.30973
6.80052
-8.64353
4.3338
4.15323
-6.59707
-4.4903
4.93308
3.9925
5.2478
9.73544
-10.3658
0.630359
-11.5771
12.7203
-1.14325
-17.6431
6.06605
-7.90769
2.65503
0.277498
2.68802
0.649921
2.32713
-2.97705
-2.26999
-2.30981
-2.21016
-3.24756
5.45772
1.14491
-3.22727
2.08236
-3.42495
4.56986
0.0124578
-3.23973
5.09747
-2.77033
5.37497
-3.41249
1.96247
3.21045
5.44989
-2.23943
4.16892
-1.60296
1.75304
-3.99248
-1.49451
-2.95164
4.98896
-3.14027
3.57831
-0.205445
3.78375
-3.97433
0.951139
-0.636065
3.57461
3.70894
4.13582
-3.03323
2.81426
-4.41722
-1.17821
-3.82757
-0.750526
-0.138084
-4.12081
4.2589
6.36849
-6.50657
-5.24476
9.41144
-4.16668
7.62299
-5.41903
-2.20396
-4.20806
-4.32506
3.82874
1.94683
9.56982
0.166594
-5.58562
-4.92198
-3.95074
3.16653
1.9791
-2.14483
3.72374
2.07154
-0.162273
0.634992
1.19551
1.88794
-1.25295
0.172587
1.71535
-1.42154
2.08835
0.711954
-2.13218
0.0497172
-1.38986
3.30374
0.985573
-2.0306
0.777655
1.08033
-3.31528
4.70057
-2.36159
-2.33898
5.7809
1.15876
-3.52035
4.13816
-3.77667
2.33452
-3.19922
-1.18584
-4.96251
-3.39892
-2.43813
4.52049
-3.01959
5.04909
1.14737
-4.86385
6.01122
-3.41059
1.56537
-3.08167
3.79363
-1.15928
-1.9224
2.60752
2.61082
-2.80493
0.0698236
-0.197406
2.17381
-2.37121
-0.621499
-2.49576
-4.5788
4.86767
-2.138
4.60855
2.18108
-1.91712
6.52567
1.84993
-3.76705
-3.2412
-3.72736
-1.38662
3.16659
-0.968959
-5.79018
-7.13963
5.78724
0.0470685
-8.79369
10.2616
-1.4679
-5.43419
0.321092
5.42903
-7.60022
0.800333
-4.82947
5.43212
6.29223
6.3393
-8.83226
0.199656
-4.90037
1.63716
-6.53752
6.01369
-3.93797
7.14076
-8.04741
5.7129
-7.00575
5.16087
-1.37665
5.62771
-3.5796
2.21825
-6.30477
-5.11261
6.99257
-3.63
7.78742
-4.13234
11.9198
-7.12647
6.96198
4.95778
-1.41563
-5.93314
-6.84135
5.42572
0.120629
5.98115
4.89285
-2.8633
4.53259
2.20036
-4.58788
-2.05924
-6.43418
1.8463
-3.31782
-1.86792
3.71422
3.1908
3.72316
1.2861
-3.25372
6.68783
-7.47935
-2.02831
-3.59367
6.75012
-1.32441
4.04671
-7.64038
-2.29587
7.90807
-3.14377
-4.7643
-2.97221
-3.79386
2.82534
-6.6192
3.68752
-4.24595
2.24657
-10.1543
-5.36485
-5.12131
-2.17365
-5.01216
-8.05941
5.88577
-1.99336
5.43574
-9.43434
6.29057
-3.28599
9.17176
-4.58603
-0.60796
5.10562
1.55187
10.7236
0.254909
-4.74521
-1.77787
3.96232
-2.18445
1.38867
-3.8659
0.0964158
2.36378
3.41712
-6.53649
-0.0605773
-4.80579
-3.90714
7.89964
5.5043
11.8728
1.50699
9.10238
-1.20274
10.6094
4.04506
4.33299
-4.3913
5.02166
-0.132405
4.2014
-0.827235
2.78971
1.86078
1.89173
0.867309
2.25251
1.45644
3.20365
0.226591
-2.08322
4.67554
-8.62628
-0.910087
-8.02179
1.21875
5.83598
-4.61723
3.11061
-1.1315
0.926152
0.237309
-1.78808
1.55077
-2.67337
-1.95035
-0.234995
-1.47022
2.24787
1.83353
-2.01288
-0.660496
0.273369
-3.67229
2.92585
-2.85603
-0.245215
5.76601
-2.59116
0.219947
-1.02579
-2.27581
-2.81755
2.76784
6.20363
0.322037
3.1196
5.1897
3.06152
0.198218
4.80977
-6.18443
-3.99003
-5.98478
0.0289081
5.45793
2.06858
7.81993
7.02636
5.70196
-1.93842
-9.41777
8.47853
-3.45687
7.33528
-2.57098
-4.04822
3.74451
3.05601
-4.49364
0.247689
-3.80054
-7.2574
-1.6907
7.98127
-9.03293
8.42497
6.27423
-0.67287
-4.46671
-0.65459
4.13349
0.199494
10.8089
-1.21067
-6.92874
8.13941
-4.62531
3.71522
0.88278
2.84096
2.43355
1.30205
-5.6267
-10.2439
-1.78233
-1.53296
-4.1213
0.359929
-2.19345
6.25237
-2.53715
4.04841
5.60227
6.52842
-2.3057
-4.20087
6.47237
-2.42396
4.10446
)
;

boundaryField
{
    wall-4
    {
        type            calculated;
        value           uniform 0;
    }
    velocity-inlet-5
    {
        type            calculated;
        value           uniform -3.75095;
    }
    velocity-inlet-6
    {
        type            calculated;
        value           uniform -5.62643;
    }
    pressure-outlet-7
    {
        type            calculated;
        value           nonuniform List<scalar> 8(6.25736 6.14751 6.61904 6.74887 6.64423 6.75398 6.66913 6.67323);
    }
    wall-8
    {
        type            calculated;
        value           uniform 0;
    }
    frontAndBackPlanes
    {
        type            empty;
        value           nonuniform List<scalar> 0();
    }
}


// ************************************************************************* //
