/*--------------------------------*- C++ -*----------------------------------*\
  =========                 |
  \\      /  F ield         | OpenFOAM: The Open Source CFD Toolbox
   \\    /   O peration     | Website:  https://openfoam.org
    \\  /    A nd           | Version:  9
     \\/     M anipulation  |
\*---------------------------------------------------------------------------*/
FoamFile
{
    format      ascii;
    class       volVectorField;
    location    "11";
    object      U;
}
// * * * * * * * * * * * * * * * * * * * * * * * * * * * * * * * * * * * * * //

dimensions      [0 1 -1 0 0 0 0];

internalField   nonuniform List<vector> 
918
(
(0.985185 -0.000699211 0)
(0.00500812 2.96625 0)
(-0.00198982 1.6677 0)
(0.979672 0.00224105 0)
(-1.52157e-06 1.63883 -1.1411e-21)
(-0.00703062 2.9488 -1.91283e-18)
(0.854626 1.16164 7.35492e-19)
(0.514806 0.254094 -8.95646e-21)
(0.999878 -0.00036371 0)
(0.0468162 1.4295 0)
(-0.00956829 1.46331 0)
(0.853696 -0.00381834 0)
(0.0110226 2.93045 0)
(0.00129622 2.79399 0)
(-0.0213853 3.17488 1.08599e-18)
(-0.00145788 1.55344 -1.84616e-20)
(0.614502 0.114297 5.53083e-19)
(0.225616 1.4885 5.24289e-19)
(0.966684 0.00778905 0)
(0.00247211 1.54336 0)
(0.188153 0.292164 -4.9905e-19)
(1.00143 -0.00510427 0)
(0.999898 -0.0101824 0)
(0.975377 -0.00635047 0)
(0.769713 -0.0269164 0)
(0.0203278 2.62511 0)
(-0.0152475 2.91022 6.65093e-19)
(-0.00828938 1.68714 0)
(-0.00866152 1.76489 0)
(-0.00714816 1.68491 0)
(0.00468001 1.7992 0)
(0.00246752 1.65103 9.03526e-22)
(-0.000143277 1.56725 0)
(-0.0206324 2.98758 -6.70711e-23)
(-0.0167034 3.0053 1.48688e-18)
(0.00209565 3.0002 0)
(0.892242 -0.00212153 0)
(0.382178 0.922748 6.20464e-21)
(0.839336 1.18983 -1.05508e-18)
(0.978989 1.03906 9.79868e-19)
(0.694095 1.2827 -1.6831e-19)
(0.704952 1.26585 9.50224e-19)
(0.553712 0.315764 8.7386e-21)
(0.546193 0.220079 0)
(1.19652 0.571053 0)
(0.50489 0.334561 4.0496e-20)
(0.47129 0.245534 -4.20201e-20)
(0.913082 -0.00678007 0)
(1.00013 0.000152943 0)
(0.999954 0.000224863 0)
(1.00475 -0.00803942 0)
(1.0005 -0.000468558 0)
(1.00014 2.34717e-05 0)
(0.0336963 1.58128 -5.9886e-19)
(0.0223017 1.56335 0)
(0.0666582 1.44875 0)
(0.0104629 1.575 0)
(0.0277661 1.4149 0)
(-0.000345077 1.60258 0)
(-0.0158384 1.57788 0)
(-0.0082269 1.44533 0)
(-0.0159397 1.60783 0)
(-0.0113801 1.48709 0)
(0.921695 0.00173629 0)
(0.916982 0.0040984 0)
(0.862162 -0.0011693 0)
(0.91288 0.00846553 0)
(0.838608 0.00189521 0)
(0.0146944 3.0004 7.01054e-19)
(0.0115072 3.00788 0)
(0.00613259 3.00281 0)
(0.0135435 2.9973 7.82779e-24)
(0.00798428 2.9585 -1.04194e-18)
(0.0145428 2.98219 0)
(0.0108435 2.90364 0)
(0.025499 2.92995 1.4187e-24)
(0.00384495 2.82455 0)
(0.0320738 2.91489 0)
(-0.00711114 2.74325 0)
(0.302374 3.56328 0)
(-0.13279 3.64569 0)
(0.134163 3.26344 -1.01069e-18)
(-0.0101487 2.99876 0)
(0.00951547 1.77133 0)
(-0.00292096 1.65569 1.8213e-20)
(-0.00161818 1.5618 -2.88346e-20)
(0.674991 0.163512 -1.89796e-19)
(0.635407 0.0719308 -1.83863e-19)
(0.644226 0.197392 -5.70881e-19)
(0.601538 0.13419 -3.83117e-19)
(0.258834 1.21383 0)
(0.197317 1.50118 -5.63083e-19)
(0.377021 1.39953 9.4462e-19)
(0.987977 0.0116638 0)
(0.942427 0.0106426 0)
(1.00038 0.000647422 0)
(1.00257 0.00955588 0)
(1.00231 0.00890209 -1.02869e-18)
(0.991874 0.00927151 7.855e-19)
(-0.00178464 1.64222 0)
(0.000834685 1.54662 0)
(-0.0104071 1.69663 0)
(-0.00654019 1.65741 0)
(0.000937385 1.55284 0)
(0.277941 0.302056 1.52121e-19)
(0.321017 0.272871 0)
(0.992899 -0.00822728 0)
(0.956009 -0.00522582 0)
(0.885548 0.0248386 0)
(0.850706 0.0250883 0)
(0.810299 -0.00269883 0)
(1.03527 0.00029191 0)
(0.806365 0.0273566 0)
(0.703939 -0.0169154 7.46472e-19)
(-0.0341199 2.86852 3.43778e-19)
(0.0447489 2.90681 0)
(0.0585977 2.88165 0)
(-0.00542161 2.69402 0)
(-0.0131139 2.98539 6.1246e-19)
(-0.0186586 2.89575 0)
(-0.0153228 2.98819 -1.9349e-18)
(-0.0135832 2.92531 6.67491e-19)
(-0.00466339 1.80632 0)
(-0.00129866 1.8006 0)
(0.00020973 1.66025 -4.20108e-22)
(0.000687419 1.6502 0)
(-0.000251766 1.55404 0)
(0.94775 0.00227847 0)
(0.894003 0.00348262 0)
(0.870352 -0.00429373 0)
(0.945539 -0.00229014 0)
(0.888545 -0.00247524 0)
(0.502093 1.10462 -1.80401e-20)
(0.546971 1.15562 0)
(0.3384 0.863267 1.04817e-20)
(0.272921 0.740539 0)
(0.950698 1.07573 -2.83639e-19)
(1.07573 0.891287 5.86857e-19)
(0.346579 1.42491 0)
(0.533271 1.35893 0)
(0.558256 1.31663 0)
(0.0774325 0.00226382 -9.81744e-20)
(0.584261 0.291181 0)
(0.576411 0.205146 1.11198e-19)
(1.04564 0.939227 0)
(1.11618 0.786216 0)
(1.14192 0.735786 -5.08682e-19)
(1.17892 0.627202 0)
(1.23326 0.416575 6.24848e-20)
(0.948249 -0.000419849 0)
(0.952862 -0.00617431 0)
(0.898845 -0.00274857 0)
(0.985682 -0.00903769 0)
(0.971525 -0.00783146 0)
(0.937873 -0.00568425 0)
(1.0002 0.00230595 0)
(1.00085 0.00148767 0)
(0.999896 0.000775103 0)
(0.0216026 1.66058 3.27567e-19)
(0.0617182 1.5493 0)
(0.00422069 1.69227 5.22105e-19)
(0.0136444 1.58494 -4.45065e-19)
(0.0581709 1.52749 -4.3793e-19)
(0.0120355 1.56442 0)
(0.0957665 1.47382 0)
(0.0038976 1.57691 0)
(0.0216137 1.40905 0)
(-0.000864611 1.68225 -1.28616e-21)
(0.00800871 1.59926 0)
(-0.00673173 1.69043 -6.60777e-20)
(-0.00682018 1.59812 1.25777e-19)
(0.00183776 1.57425 0)
(-0.0128795 1.57045 0)
(0.0055053 1.42273 0)
(-0.0152791 1.62714 0)
(-0.00892369 1.50683 0)
(0.984026 0.0130385 0)
(0.938499 0.00411374 0)
(0.96874 0.00632652 0)
(0.913827 0.00212994 0)
(0.870241 -0.0038868 0)
(0.936588 0.00407516 0)
(0.929026 0.00660534 0)
(0.866168 0.00364676 0)
(0.00610006 3.06485 -6.1957e-21)
(0.0164727 3.05797 0)
(0.014928 2.96913 0)
(0.00873375 2.87614 0)
(0.913064 3.97152 0)
(1.22576 3.29419 1.00095e-18)
(0.0718039 3.09195 0)
(-0.0245857 2.91588 0)
(-0.00206216 1.79513 0)
(0.00387009 1.77481 0)
(0.00469842 1.77798 0)
(0.00273076 1.78542 4.27426e-21)
(0.00710192 1.77287 0)
(0.0082929 1.77913 0)
(-0.00147352 1.57059 4.49839e-21)
(-0.00230361 1.67496 3.72835e-20)
(-0.00281661 1.66676 2.94703e-20)
(-0.00242643 1.56503 0)
(0.696872 0.130078 2.78926e-19)
(0.664439 0.0539272 -2.7026e-19)
(0.22594 1.33223 0)
(0.310175 1.03262 -2.73971e-19)
(0.155635 1.44238 -8.15408e-19)
(0.186078 1.34966 8.14859e-19)
(0.893961 0.00941902 0)
(0.964063 0.0136291 0)
(0.97533 0.0140295 0)
(0.920797 0.0124101 0)
(-0.0120155 1.63838 0)
(-0.00461028 1.6441 0)
(-0.00357097 1.52835 0)
(0.458483 0.350882 3.71229e-19)
(0.386194 0.331931 -4.57803e-19)
(0.394563 0.247776 0)
(1.15489 0.0846127 -4.28296e-21)
(1.14094 0.0381188 0)
(1.06754 0.0361343 0)
(0.983042 0.00205467 0)
(0.727682 0.0988131 0)
(0.756997 0.0532037 -1.19796e-18)
(0.690658 0.0220836 4.5891e-19)
(0.0104859 2.98354 4.3702e-19)
(-0.031275 2.86953 5.03397e-20)
(0.00397546 3.05026 -1.33543e-20)
(0.0199063 3.04352 4.80319e-19)
(-0.0150963 2.9966 2.21615e-20)
(-0.0129389 2.94939 -8.97776e-23)
(-0.0172541 3.012 -4.19732e-19)
(0.014676 3.02422 3.03092e-19)
(0.00720088 3.0366 -4.73972e-19)
(0.965006 0.00563848 0)
(0.95828 0.00585304 0)
(0.902191 0.00517885 0)
(0.950286 0.0118898 0)
(0.938193 0.00520451 0)
(0.87414 0.00624866 0)
(0.939039 -0.00269263 0)
(0.931183 -0.00284787 0)
(0.872633 -0.00856347 0)
(0.700091 1.38003 2.86547e-19)
(0.733641 1.49165 0)
(0.174444 0.252478 5.95636e-21)
(0.0972847 0.519109 1.71796e-19)
(0.206511 0.675426 -1.36678e-19)
(0.208743 0.560853 2.83302e-19)
(0.396515 0.624912 6.71821e-19)
(0.140436 0.146231 2.68722e-19)
(0.632677 0.226871 4.15747e-19)
(0.611659 0.260603 1.01789e-19)
(0.589393 0.169124 2.13504e-19)
(1.22236 0.468129 3.00737e-19)
(1.2423 0.263097 3.16474e-19)
(-0.00634647 1.69255 2.07717e-19)
(0.00366672 1.58412 0)
(1.02235 0.0219253 0)
(0.998314 0.0117888 0)
(0.956315 -0.00326537 0)
(0.0108574 3.07456 0)
(0.0201935 2.94387 8.28864e-19)
(0.0167273 2.95623 0)
(0.00614158 2.85035 -8.22091e-19)
(0.00591741 3.09201 1.96954e-19)
(0.00721696 3.08254 0)
(0.765419 1.7977 -2.27708e-19)
(1.23078 2.48613 6.17207e-19)
(0.747942 1.94129 -1.45057e-18)
(0.0217571 2.98723 -3.18957e-19)
(0.0382752 3.01286 0)
(-0.0304009 2.88556 0)
(-0.00871983 1.67432 -8.07892e-21)
(-0.00337392 1.67667 -8.77408e-20)
(-0.00317089 1.58215 -6.17335e-21)
(0.279306 1.22476 8.488e-19)
(0.329971 0.882353 -5.7033e-19)
(0.0380098 1.62036 5.49507e-19)
(0.0796529 1.55057 -6.65441e-19)
(0.105119 1.46224 7.77077e-20)
(0.00619764 3.11816 -1.04164e-18)
(0.014157 3.11871 1.12905e-18)
(-0.00846365 2.98073 5.35238e-19)
(-0.00266145 2.9781 -4.7493e-19)
(-0.0216008 2.8826 -5.45126e-19)
(0.00874968 3.09858 -1.4437e-18)
(0.00195182 3.10608 1.4361e-18)
(0.317883 0.482256 0)
(0.106206 0.470399 9.82975e-20)
(0.0846066 0.00653964 -2.87061e-20)
(0.437663 0.794191 7.89916e-19)
(0.263084 0.364327 -1.20032e-18)
(1.23647 0.172099 -5.82086e-20)
(1.23977 0.314001 0)
(1.22519 0.121736 1.24964e-19)
(0.0022332 1.68114 -1.68589e-21)
(-0.00502659 1.68006 0)
(0.00422288 1.58241 0)
(0.310534 1.0739 -3.03778e-19)
(0.346722 0.95474 -6.29333e-19)
(0.304813 0.66051 1.09425e-18)
(1.00535 -0.00900706 0)
(1.00715 -0.00735493 1.88664e-19)
(-0.00308141 1.80112 0)
(-0.00812093 1.80645 0)
(1.0026 0.00353438 1.72856e-21)
(1.00194 0.0086388 3.85737e-19)
(0.00354719 1.78718 -5.49341e-21)
(0.00261921 1.78778 0)
(0.0428673 3.18859 1.14817e-19)
(0.395119 3.51161 0)
(1.10283 0.639621 6.80717e-20)
(1.01351 0.0131319 -2.73325e-21)
(1.01029 -0.0204505 0)
(1.00155 0.00030325 2.70149e-22)
(-0.010399 1.741 0)
(0.0386115 1.84041 0)
(-0.0217761 1.78613 0)
(0.0126555 1.80406 9.25517e-20)
(-0.00813563 1.80251 4.31445e-20)
(1.00233 0.0115366 2.29453e-21)
(1.04455 0.0148539 0)
(1.07473 0.0253584 0)
(-0.00241409 1.77955 0)
(-0.00610659 1.79474 0)
(-0.00606754 1.79629 0)
(0.0342575 1.52927 -4.08806e-19)
(1.01189 -0.00944024 0)
(1.00991 -0.0168003 0)
(1.00375 0.000467813 2.39799e-19)
(1.00535 -0.0050835 -2.87708e-19)
(1.00147 -0.00220333 0)
(-0.0072541 1.78544 0)
(-0.00157272 1.79676 0)
(-0.00318467 1.79232 0)
(-0.00504371 1.79797 0)
(-0.00490161 1.79492 0)
(-0.00569595 1.79743 0)
(1.0248 0.0113465 0)
(1.02211 -0.000487068 -9.06669e-22)
(0.76138 1.21993 5.35941e-19)
(1.00199 0.00107642 -2.3998e-19)
(1.0039 0.00522883 2.84205e-19)
(1.00126 0.00203796 0)
(1.01097 0.0107111 2.34061e-19)
(1.00753 0.0114513 -2.89203e-19)
(1.00369 0.0149048 0)
(-0.00287747 1.79486 0)
(0.00220478 1.78948 1.66287e-20)
(0.00194963 1.78997 -1.21506e-20)
(1.17417 0.259048 -7.59043e-20)
(1.11064 0.0813688 0)
(0.0635987 3.07921 -5.41191e-19)
(0.0716636 2.84975 -4.38702e-20)
(0.154434 3.20307 8.07664e-19)
(0.145501 3.2314 -3.78126e-21)
(0.146586 3.25595 0)
(0.0231483 3.13935 1.17097e-19)
(0.0849336 3.16498 5.2891e-19)
(0.077866 3.1935 -2.26545e-19)
(0.0284873 3.12747 0)
(0.705388 0.346015 0)
(0.607892 0.39925 0)
(1.08012 0.672208 -2.59689e-19)
(1.06803 0.811691 4.01396e-19)
(1.12684 0.551948 0)
(1.1651 0.50785 0)
(1.01512 0.012813 -4.41805e-19)
(1.01085 0.0188964 5.49789e-19)
(1.00886 -0.018122 0)
(1.00841 -0.0136611 0)
(1.00689 0.000795436 0)
(1.01234 0.0036539 0)
(1.00483 0.00258676 0)
(1.01361 0.00769227 0)
(1.00649 0.0053632 0)
(1.00531 0.00382634 0)
(-0.00878352 1.74889 0)
(-0.00580954 1.76331 0)
(-0.027567 1.73226 0)
(-0.0267507 1.70497 0)
(0.0328231 1.84733 0)
(0.0650997 1.84534 -3.49127e-19)
(0.0114953 1.84555 0)
(0.00405599 1.83174 1.62387e-19)
(-0.00606583 1.81577 -1.73799e-19)
(-0.0234527 1.78715 0)
(-0.0217536 1.78782 0)
(-0.0193596 1.78705 0)
(-0.0115239 1.78496 0)
(-0.00592492 1.8024 -4.95159e-20)
(-0.0082354 1.80297 5.95647e-20)
(0.00332035 1.80931 7.8666e-20)
(-0.00431997 1.80408 0)
(-0.00701205 1.80514 -9.89625e-20)
(-0.00588369 1.80276 -5.68226e-20)
(-0.00466969 1.80298 4.09853e-20)
(-0.00956571 1.79991 -8.14516e-20)
(-0.00667011 1.80506 -9.64493e-20)
(1.00945 0.0165702 4.20405e-19)
(1.00829 0.0040793 -5.324e-19)
(1.00264 0.0198322 -4.42539e-19)
(0.987934 0.0165962 5.64357e-19)
(1.03805 0.0168658 0)
(1.04024 0.00905193 0)
(1.05997 0.0333864 0)
(1.04477 0.0159574 0)
(1.05988 0.0118924 0)
(1.09796 0.0642094 0)
(1.07522 0.0449179 0)
(1.09677 0.0308508 0)
(0.00292975 1.77848 -1.74528e-21)
(-0.0033443 1.77368 0)
(0.000162019 1.77471 0)
(-0.00655011 1.79706 1.68702e-20)
(-0.00565622 1.79621 -8.24848e-22)
(-0.0114905 1.77805 1.73155e-20)
(-0.00766763 1.78509 -1.76989e-20)
(-0.00814319 1.79432 0)
(-0.00648382 1.79546 0)
(-0.00696047 1.79595 0)
(-0.00855865 1.79562 0)
(-0.00890286 1.79697 0)
(0.123385 1.43367 8.06619e-19)
(0.272106 1.37902 3.28528e-19)
(0.413529 1.86424 -2.03984e-19)
(0.255381 1.79502 5.41417e-19)
(-0.070796 2.28294 9.96759e-20)
(1.01185 -0.0225674 0)
(1.01445 -0.0184172 0)
(1.00974 -0.0260808 0)
(1.00944 -0.00234109 0)
(1.00629 -0.00336323 0)
(1.00567 -0.00479203 0)
(1.00926 -0.00659007 0)
(1.01093 -0.0127953 0)
(1.0239 0.000816068 4.17593e-19)
(1.01982 0.00413112 -5.32112e-19)
(1.02268 0.00118425 -4.08835e-19)
(1.01906 0.00284958 5.02605e-19)
(0.756442 1.23028 0)
(0.623058 1.28053 6.51849e-19)
(0.850932 1.16247 3.84429e-19)
(0.894169 1.1077 -5.1177e-19)
(1.14355 2.56416 -3.83256e-19)
(0.820278 0.119545 2.83577e-19)
(1.11186 0.0897783 0)
(1.15717 0.174075 6.82191e-20)
(1.14517 0.152015 3.15258e-21)
(0.963161 0.136901 0)
(0.171952 2.97812 8.30293e-20)
(0.137043 2.87947 -6.79907e-19)
(0.0528694 2.33398 5.03795e-19)
(0.124626 0.164688 -2.04953e-19)
(0.33659 3.43778 -4.54198e-19)
(0.200023 3.33313 0)
(0.239473 3.38273 5.91525e-19)
(0.257569 3.05853 -6.27446e-19)
(0.359957 3.21568 0)
(0.00754831 3.12031 2.76764e-20)
(0.0195249 3.12937 -3.52861e-19)
(0.0168826 3.12502 5.19378e-19)
(0.0399784 3.14024 0)
(0.0387486 3.15295 0)
(1.18012 2.58298 0)
(0.508738 0.827498 -2.15578e-19)
(1.00971 0.980522 -2.11294e-19)
(0.961295 1.03283 0)
(0.834507 0.920276 6.09036e-20)
(1.03701 0.85721 3.31625e-20)
(0.408406 0.494111 -5.36527e-19)
(0.733726 0.339575 -2.39896e-20)
(0.740558 0.290326 2.191e-19)
(0.606661 0.438712 1.74784e-20)
(0.564015 0.431042 -7.1826e-19)
(0.701514 0.372029 0)
(0.677685 0.42973 3.61729e-19)
(0.690087 0.429881 0)
(0.651447 0.412829 0)
(0.668136 0.36044 0)
(0.732086 0.608772 1.2646e-19)
(1.16013 0.264925 4.05234e-20)
(1.15921 0.393788 0)
(1.18451 0.364744 0)
(0.787508 0.221955 3.25147e-19)
(0.785958 0.539095 -1.79835e-19)
(0.68588 0.506221 2.9181e-19)
(0.87321 0.407016 -2.76075e-19)
(1.01826 0.00849092 2.8661e-19)
(1.01485 0.0176136 -2.96075e-19)
(1.01382 0.0184055 0)
(1.01983 0.0124751 0)
(1.01034 0.000696685 -2.62715e-19)
(1.01046 0.00537689 2.62401e-19)
(1.027 0.0037032 0)
(1.02651 -0.000135107 0)
(1.01444 0.0072439 0)
(1.01802 0.0133886 0)
(1.02917 0.00223981 0)
(1.02339 0.0023176 0)
(-0.00951422 1.77316 0)
(-0.00646655 1.77512 0)
(-0.0545944 1.74977 6.25334e-20)
(0.00483054 1.58089 1.71057e-19)
(-0.033485 1.69041 3.44912e-19)
(-0.0189656 1.62697 -5.59946e-19)
(-0.0890165 1.73686 0)
(-0.0718455 1.8506 -1.0202e-19)
(-0.0467967 1.84536 0)
(-0.0262045 2.23744 -1.38796e-19)
(0.0845594 2.08261 5.09384e-19)
(-0.107599 1.87189 9.17907e-20)
(-0.122711 1.64853 1.02844e-19)
(-0.114961 1.71374 -8.21791e-20)
(-0.179769 1.65565 2.13507e-19)
(-0.105932 1.94357 0)
(-0.117917 1.9819 -1.02637e-19)
(-0.0176408 1.8104 -4.54295e-20)
(-0.0131852 1.81741 0)
(-0.0160706 1.80453 1.90043e-19)
(-0.0190492 1.80741 0)
(-0.00399013 1.82828 -1.79283e-19)
(-0.00663174 1.82347 0)
(-0.012203 1.79384 -3.90893e-20)
(-0.00291269 1.79965 0)
(-0.00629915 1.79753 0)
(-0.0129573 1.79307 4.37468e-20)
(0.00625578 1.80834 9.30181e-22)
(-0.000597705 1.81619 2.11198e-19)
(0.0105894 1.81085 1.37133e-21)
(-0.0128883 1.79125 3.33068e-20)
(-0.0125347 1.79272 2.0178e-20)
(-0.0205592 1.79094 0)
(-0.0171183 1.79281 0)
(-0.00646983 1.80088 1.09554e-19)
(-0.00220639 1.79578 7.0127e-20)
(-0.00272407 1.79783 -9.86847e-20)
(-0.0126205 1.80576 0)
(-0.0101002 1.78677 -6.29793e-20)
(-0.00945748 1.79541 2.70965e-20)
(-0.00982389 1.79499 -8.37901e-21)
(-0.011404 1.79115 -4.13906e-20)
(-0.00644773 1.799 -1.41721e-20)
(-0.00735057 1.80176 6.70072e-20)
(1.01843 0.00515051 -2.72011e-19)
(1.0135 0.00961178 2.83512e-19)
(1.01216 0.00472625 0)
(0.993974 0.0471816 3.94854e-19)
(0.986628 0.0333306 -4.73548e-19)
(0.96228 0.0295853 5.43565e-19)
(0.99497 0.0887126 -5.26952e-20)
(1.02585 0.00966476 0)
(1.03157 0.00990883 2.36364e-19)
(1.03198 0.00609003 -2.34509e-19)
(1.03321 0.0405563 -1.30565e-20)
(1.02939 0.0254937 1.15423e-19)
(1.01706 0.0432341 0)
(1.00939 0.0386349 -4.29717e-20)
(1.00974 0.024089 0)
(1.01486 0.0173024 0)
(1.025 0.0058916 0)
(1.02085 0.00295385 0)
(1.01455 0.024057 8.91426e-20)
(1.02049 0.0150846 -2.01426e-19)
(1.01653 0.0341643 -9.14479e-20)
(1.01511 0.0331427 -1.0494e-19)
(1.01325 0.0412811 1.84234e-19)
(1.04879 0.0405316 0)
(1.03766 0.0844997 0)
(-0.0104069 1.78656 -2.51003e-20)
(-0.00829453 1.77824 -2.07884e-21)
(-0.00847287 1.77997 0)
(-0.00374853 1.7899 2.5057e-20)
(-0.00380512 1.78553 3.62117e-21)
(-0.00208589 1.78855 -4.13811e-21)
(-0.00536267 1.80255 4.97745e-20)
(-0.00709541 1.79933 -3.05847e-21)
(-0.00657054 1.79828 1.4498e-20)
(-0.00495614 1.79973 -2.58927e-20)
(-0.00473655 1.80017 3.04874e-20)
(-0.0115755 1.78483 6.30457e-22)
(-0.0130387 1.77928 2.60594e-20)
(-0.0149341 1.37097 -4.11643e-19)
(-0.157222 1.68359 -4.16552e-19)
(0.614184 1.24788 -6.28032e-19)
(0.407457 1.28565 -3.15377e-19)
(0.509786 1.32764 0)
(0.431337 1.93722 2.16052e-19)
(0.604687 1.77124 3.09502e-19)
(0.290065 1.79425 8.1102e-20)
(0.263338 1.99523 -5.78979e-19)
(0.279328 2.11334 5.70786e-19)
(0.392625 1.84053 0)
(0.344347 1.78492 -4.80499e-19)
(0.100126 1.83457 9.19515e-19)
(0.199509 1.81294 -6.60563e-20)
(0.132037 1.8052 -1.22983e-18)
(0.904685 2.44684 -1.53162e-19)
(0.785266 2.21363 0)
(1.01229 -0.00778821 9.61554e-21)
(1.01287 -0.015795 -7.88262e-21)
(1.01409 -0.0157566 -1.40555e-19)
(1.02738 -0.0154813 1.40701e-19)
(1.02608 -0.010284 0)
(0.733737 1.11971 0)
(0.75602 1.09095 0)
(0.762011 1.06942 0)
(0.703111 1.12603 0)
(1.16168 2.59114 5.17877e-20)
(1.0516 2.31065 0)
(1.06464 2.27895 -2.54897e-21)
(0.76049 2.68482 0)
(1.0168 2.69277 2.07471e-19)
(1.04391 2.63119 -1.36184e-19)
(0.831447 0.157554 0)
(0.801991 0.162197 8.19025e-20)
(0.884245 0.124188 4.17039e-19)
(0.848219 0.108813 -1.66006e-19)
(0.851617 0.0679674 -5.05599e-19)
(1.01012 0.20757 -2.53435e-19)
(0.92796 0.253615 -1.77422e-20)
(0.898989 0.248788 3.73422e-19)
(0.957995 0.174608 2.80957e-19)
(0.912152 0.159088 -5.23558e-19)
(0.891496 0.162147 6.75231e-20)
(0.931844 0.211912 -1.31712e-19)
(0.903457 0.178988 0)
(0.969475 0.157956 2.51714e-19)
(0.998311 0.165306 0)
(0.990944 0.179767 0)
(1.04406 0.1006 8.07562e-20)
(1.0141 0.156368 -1.24782e-20)
(1.00595 0.21589 -4.42839e-20)
(1.04947 0.191827 0)
(1.00559 0.025709 2.1033e-19)
(1.0064 0.0374871 2.52472e-19)
(1.00968 0.0309481 -2.07881e-19)
(1.00685 0.0424751 -1.69449e-19)
(0.998131 0.0513028 -2.80201e-19)
(0.958992 0.132504 0)
(0.989577 0.0899581 0)
(0.962188 0.0409365 -1.96409e-19)
(0.92177 0.0519004 8.24454e-20)
(1.00011 0.0811722 2.408e-19)
(1.00785 0.0992076 -2.48757e-19)
(1.01921 0.138982 2.27612e-19)
(1.00711 0.126129 0)
(1.0179 0.0801012 0)
(1.0077 0.065237 -1.02473e-19)
(1.00883 0.0705306 -1.93221e-19)
(0.734907 1.22306 -3.65254e-20)
(0.669867 1.48111 4.47711e-20)
(1.10291 2.71794 -4.16108e-22)
(1.1856 3.0817 -6.59821e-20)
(1.22542 2.68991 4.31508e-19)
(1.25172 2.68028 -2.95125e-19)
(1.18209 2.30868 -7.68162e-21)
(1.17304 2.97063 1.3583e-19)
(1.20103 2.92286 -1.00118e-19)
(1.18132 3.2366 -2.55713e-19)
(1.34691 2.95098 3.53792e-19)
(1.3377 2.87335 0)
(0.491633 0.842515 -1.40546e-20)
(0.186321 1.309 3.48911e-19)
(0.519854 0.544013 3.53257e-19)
(0.356433 0.333142 3.98763e-19)
(0.563747 0.451228 3.99318e-19)
(0.540828 0.503761 -6.32393e-19)
(0.540254 0.521796 5.18074e-19)
(0.520101 0.473868 -2.10552e-19)
(0.493781 0.426865 4.86551e-19)
(0.790033 0.254757 -1.80584e-19)
(0.761473 0.285936 0)
(0.765502 0.254875 1.25561e-20)
(0.670817 0.512026 1.85972e-19)
(0.656258 0.480202 -6.84915e-19)
(0.595469 0.500213 2.01987e-20)
(0.618834 0.467126 0)
(0.61518 0.730917 1.46453e-19)
(0.783683 0.756798 4.89682e-20)
(0.722659 0.81412 -6.62824e-20)
(0.825098 0.791424 -1.5374e-20)
(0.883333 0.824333 1.55512e-20)
(0.891386 0.834317 -1.58992e-20)
(0.774908 0.62734 -2.14894e-19)
(0.857149 0.711189 1.42881e-20)
(0.931297 0.703318 0)
(0.914627 0.663269 -1.47418e-20)
(0.954915 0.289841 5.99458e-20)
(1.06512 0.261205 8.51635e-21)
(0.9977 0.234675 1.03807e-19)
(0.931814 0.329575 -1.37401e-19)
(0.980092 0.408091 0)
(1.04203 0.389514 0)
(0.849383 0.337925 2.2957e-21)
(0.85171 0.275054 0)
(0.851404 0.247128 1.95137e-19)
(0.875685 0.255718 -3.55821e-21)
(0.866021 0.41065 7.56233e-19)
(0.829299 0.473526 1.89371e-19)
(0.823488 0.436529 -2.44423e-19)
(0.756385 0.433125 2.62452e-19)
(0.745353 0.432951 1.77795e-19)
(0.728716 0.423517 -1.74459e-19)
(1.02317 0.0104159 2.28624e-19)
(1.03185 0.000696551 0)
(1.03301 -0.00363009 1.5054e-19)
(1.0216 0.00158153 -3.41077e-19)
(1.03403 0.00360924 1.61546e-19)
(1.03126 0.00489559 -3.49774e-19)
(1.02842 0.00166786 0)
(1.02417 0.00403776 -7.25939e-20)
(1.02968 0.00484164 1.82651e-19)
(1.02072 0.0110278 -9.18632e-20)
(1.02234 0.0103311 6.69324e-20)
(-0.00366599 1.78599 0)
(-0.00860159 1.7955 0)
(-0.00197144 1.78058 0)
(-0.000280468 1.78148 0)
(-0.0307909 1.78219 -5.0954e-21)
(-0.0304636 1.76522 -9.09034e-22)
(-0.0517545 1.83195 -3.22901e-20)
(-0.0637008 1.77161 -5.35594e-20)
(-0.00678883 1.79905 -5.79856e-20)
(-0.0154559 1.79706 4.19076e-20)
(-0.0207016 1.78833 -1.11854e-20)
(-0.0144827 1.79961 6.49837e-21)
(-0.00957471 1.79672 5.5271e-22)
(-0.00683369 1.79728 -4.99702e-21)
(-0.0135361 1.81119 -2.11468e-19)
(-0.00403081 1.82532 0)
(-0.0139327 1.81657 1.19143e-19)
(-0.0248764 1.82224 7.8279e-20)
(-0.0123407 1.9402 -8.36885e-20)
(0.0924322 1.89495 0)
(0.0819662 1.92595 -5.98922e-19)
(0.0946134 2.01075 4.07878e-19)
(0.0058885 1.88697 -2.32157e-19)
(-0.00521622 1.84401 1.30608e-19)
(0.00690382 1.85415 0)
(-0.00631997 1.80203 -1.38253e-19)
(-0.00348836 1.80339 -1.83296e-19)
(-0.00329468 1.80304 0)
(-0.0027319 1.81029 -5.36648e-21)
(-0.0123364 1.81065 7.21728e-20)
(-0.0212737 1.7901 5.46474e-21)
(-0.0225183 1.7898 -9.69676e-20)
(-0.0220844 1.7846 2.18915e-20)
(-0.019573 1.78384 3.86807e-20)
(-0.0154937 1.79464 0)
(-0.0186789 1.78416 0)
(-0.0121778 1.7956 2.93268e-20)
(-0.0114824 1.78433 -9.54273e-21)
(-0.017754 1.78422 0)
(-0.0169056 1.79491 2.34326e-20)
(-0.0127529 1.79637 -4.41491e-20)
(1.02165 0.0151177 0)
(1.02381 0.0136089 -2.15922e-20)
(1.02006 0.014778 -1.6069e-19)
(1.02068 0.0193973 0)
(1.02124 0.0214247 0)
(1.02357 0.00742775 -4.85533e-21)
(1.02392 0.00787267 2.68772e-19)
(1.02082 0.00806137 3.26763e-19)
(1.02024 0.00660888 0)
(1.01795 0.00712253 0)
(1.0192 0.0131035 1.6396e-19)
(1.01759 0.0112211 0)
(1.0187 0.0109917 0)
(-0.0120866 1.78716 0)
(-0.01296 1.77785 2.36749e-21)
(-0.0133823 1.77957 1.41251e-20)
(-0.0115149 1.78398 0)
(-0.0127269 1.78023 1.89089e-20)
(-0.0106938 1.78358 -9.27203e-21)
(-0.00889813 1.78398 0)
(0.170753 2.42989 0)
(-0.233597 1.78919 8.79011e-19)
(-0.108092 2.19516 0)
(0.0641434 1.37183 -1.25929e-18)
(0.288532 1.07702 0)
(0.126764 1.28833 5.77468e-19)
(1.082 2.81803 4.31791e-21)
(0.942686 2.54901 1.89534e-19)
(0.834593 2.2582 -1.40967e-19)
(0.805194 2.31618 1.45634e-19)
(0.892713 2.66931 0)
(0.959478 2.6089 0)
(0.863635 2.41298 0)
(0.900458 2.27598 -4.51022e-19)
(0.381792 2.70073 1.31628e-20)
(0.714553 2.73531 1.38503e-20)
(0.738088 2.67703 -1.02952e-20)
(0.562887 2.03132 0)
(0.724673 2.18933 0)
(0.69706 1.98722 -2.87918e-19)
(0.558011 2.61446 0)
(0.651028 1.10619 0)
(0.458003 0.928103 -6.55167e-20)
(0.529233 0.949788 -5.16755e-21)
(0.545051 1.08372 0)
(0.470407 1.09931 1.01311e-19)
(0.770031 0.862387 1.73091e-20)
(0.797639 0.981984 0)
(0.76489 0.921061 -7.07754e-20)
(0.630351 1.06067 0)
(0.632484 0.932861 0)
(1.15896 2.72684 -2.43113e-21)
(1.13022 2.78795 8.50679e-21)
(1.01574 2.26214 -5.71135e-20)
(1.04694 2.29095 3.30305e-20)
(1.13677 2.72646 0)
(1.14291 2.69255 -3.89791e-20)
(1.06199 2.46012 -1.37911e-19)
(0.920324 2.16942 -2.54515e-20)
(0.835632 1.54306 0)
(0.810489 1.14662 3.2054e-20)
(0.753248 1.10269 0)
(0.847895 0.194728 0)
(0.817923 0.174486 0)
(0.776225 0.185721 0)
(0.851337 0.206365 -3.06305e-19)
(0.804267 0.216199 1.8897e-19)
(0.923028 0.0502707 -1.63642e-19)
(0.926316 0.0929518 0)
(0.896174 0.0998913 7.8498e-20)
(0.883064 0.0607308 3.11132e-19)
(0.886589 0.0553634 -1.91189e-19)
(1.13224 3.36455 -9.5723e-19)
(1.17771 3.28463 0)
(1.13861 3.39663 -1.93424e-18)
(0.629383 3.56295 1.64844e-18)
(0.843323 3.14244 4.17388e-19)
(0.48573 0.854633 1.95939e-19)
(0.377512 0.890059 0)
(0.341821 0.552888 -7.71885e-20)
(0.400045 0.678539 3.48775e-19)
(0.512612 0.532948 -1.10046e-19)
(0.495015 0.554618 1.21292e-19)
(0.602 0.526935 2.59647e-19)
(0.620463 0.54923 0)
(0.594897 0.611318 0)
(0.544439 0.548864 0)
(0.916932 0.576528 -4.87163e-20)
(0.832536 0.515573 -1.83075e-19)
(0.865009 0.559349 8.4858e-20)
(0.891351 0.492099 -1.35302e-19)
(1.00819 0.464547 0)
(1.00079 0.543104 -6.18005e-21)
(0.787645 0.380938 -3.93314e-19)
(0.797941 0.362157 -4.53685e-19)
(0.770062 0.392072 3.07934e-19)
(0.775725 0.355596 -3.50616e-19)
(0.834193 0.292423 -2.43536e-19)
(0.808618 0.300255 3.07078e-19)
(1.03241 0.00574259 -1.64178e-19)
(1.0314 0.00743928 3.40665e-19)
(1.02488 0.0131709 2.16064e-19)
(1.02574 0.0142497 -2.54808e-19)
(1.02053 0.0159627 0)
(1.0246 0.0103219 -4.23445e-19)
(-0.0145712 1.80659 2.67234e-20)
(-0.0191487 1.80513 0)
(-0.0212837 1.80307 2.24616e-19)
(-0.0201133 1.81883 -2.09114e-19)
(-0.0409833 1.82241 5.99402e-20)
(-0.0337628 1.81364 0)
(-0.0121205 1.78711 0)
(-0.0148286 1.7833 -1.07017e-20)
(-0.0140703 1.78017 9.17459e-21)
(-0.0131211 1.78021 2.18904e-21)
(-0.0116671 1.78538 -1.92413e-20)
(-0.0112017 1.78706 1.20494e-20)
(0.787116 1.63201 9.97508e-19)
(0.612994 1.75798 -1.05847e-18)
(0.230354 1.39909 9.12454e-19)
(0.283684 1.95293 -5.94028e-20)
(0.732428 1.06278 0)
(0.473195 1.05259 6.52383e-19)
(0.513732 1.07224 -6.39912e-19)
(0.384458 0.960345 -8.93562e-19)
(0.710778 1.06566 0)
(0.765398 1.07143 0)
(0.254384 2.66246 -1.99437e-20)
(0.388945 2.46805 7.98172e-19)
(0.502098 2.54622 -5.18844e-19)
(0.327065 2.38928 -1.81906e-19)
(0.109986 2.49031 2.58516e-19)
(0.221021 2.27994 -6.94737e-19)
(0.918418 2.43407 8.29895e-20)
(0.971443 2.3885 0)
(0.822073 2.15034 -2.05538e-19)
(1.07575 2.73904 0)
(1.09075 2.74925 0)
(0.589051 2.33631 2.23402e-19)
(1.00889 3.18575 4.60109e-19)
(0.879349 3.0718 -4.26151e-19)
(0.328098 0.984921 0)
(0.326094 0.833991 -1.28583e-19)
(0.439015 0.779303 -6.57824e-20)
(0.362816 2.11714 0)
(0.493357 2.8285 -2.91186e-19)
(0.413571 2.59893 0)
(0.647995 0.653839 -3.01644e-19)
(0.696517 0.672968 3.85193e-19)
(0.732149 0.62304 -3.75883e-19)
(0.609605 0.629393 -4.50433e-20)
(0.657925 0.587862 -1.85465e-19)
(0.962475 2.8174 -3.49636e-19)
(1.01068 2.86566 2.50915e-19)
(0.57811 2.18171 1.23226e-19)
(0.596482 1.80498 -1.23973e-19)
(0.648873 1.96 -4.5624e-21)
(0.953184 2.50702 -1.12143e-19)
(0.956725 2.48382 -5.7769e-20)
(0.59531 1.91218 -8.3311e-22)
(0.404958 1.43732 -1.0094e-20)
)
;

boundaryField
{
    wall-4
    {
        type            noSlip;
    }
    velocity-inlet-5
    {
        type            fixedValue;
        value           uniform (1 0 0);
    }
    velocity-inlet-6
    {
        type            fixedValue;
        value           uniform (0 3 0);
    }
    pressure-outlet-7
    {
        type            zeroGradient;
    }
    wall-8
    {
        type            noSlip;
    }
    frontAndBackPlanes
    {
        type            empty;
    }
}


// ************************************************************************* //
