/*--------------------------------*- C++ -*----------------------------------*\
  =========                 |
  \\      /  F ield         | OpenFOAM: The Open Source CFD Toolbox
   \\    /   O peration     | Website:  https://openfoam.org
    \\  /    A nd           | Version:  9
     \\/     M anipulation  |
\*---------------------------------------------------------------------------*/
FoamFile
{
    format      ascii;
    class       volScalarField;
    location    "23";
    object      p;
}
// * * * * * * * * * * * * * * * * * * * * * * * * * * * * * * * * * * * * * //

dimensions      [0 2 -2 0 0 0 0];

internalField   nonuniform List<scalar> 
918
(
0.236319
0.916627
0.0201472
0.235608
-0.00202108
0.883707
-0.825223
0.411514
0.21643
-0.423682
-0.302657
0.207293
0.744277
0.510146
-1.45345
-0.0462431
0.367096
-0.70604
0.215305
-0.001619
0.478468
0.223053
0.226085
0.216668
0.277163
0.497615
0.624744
0.0137302
0.00376756
0.0045169
-0.00344955
-0.0189326
-0.0207099
0.767344
0.818434
0.841098
0.185262
0.00972057
-0.677457
-0.751753
-0.739828
-0.873378
0.40258
0.407098
-0.483457
0.412819
0.427018
0.203818
0.215738
0.216642
0.217828
0.216733
0.21814
0.131678
-0.429726
-0.466163
-0.413754
-0.418558
-0.19494
-0.349504
-0.383884
-0.271052
-0.222014
0.140559
0.204332
0.201196
0.211614
0.22112
0.856174
0.828081
0.854213
0.767932
0.784415
0.722238
0.694705
0.531108
0.552512
0.494914
0.48388
-1.89754
-2.87229
-0.850862
-0.592171
-0.000798575
-0.0609783
-0.0723601
0.355315
0.360474
0.364979
0.380301
0.768749
-0.696723
-0.842759
0.215466
0.214277
0.222748
0.223446
0.219442
0.218558
-0.00137714
-0.0166509
-0.00669377
0.00501879
-0.0034789
0.462494
0.456141
0.217227
0.21427
0.229043
0.251057
0.240442
-0.0169549
0.28644
0.306516
0.307568
0.481366
0.478591
0.486356
0.598281
0.560793
0.662071
0.685466
0.00945508
0.00463637
-0.0422362
-0.025735
-0.032472
0.181761
0.175055
0.199257
0.188472
0.190801
-0.0747377
-0.210699
0.0944146
0.117928
-0.584745
-0.651484
-0.761979
-0.774962
-0.884316
0.245671
0.393193
0.396474
-0.500244
-0.418569
-0.561769
-0.34393
-0.411973
0.194332
0.201148
0.196255
0.211472
0.206045
0.207998
0.220012
0.217087
0.218655
0.184351
0.304598
0.061251
0.0424696
-0.569095
-0.472315
-0.5547
-0.41542
-0.418888
-0.178784
-0.159906
-0.211053
-0.230913
-0.432508
-0.42008
-0.425019
-0.178908
-0.131446
0.133094
0.123855
0.151636
0.157734
0.196268
0.197128
0.199332
0.197982
0.64549
0.667918
0.675331
0.649059
-3.88594
-6.71398
-0.257965
-0.114958
0.00147511
0.00339609
0.00289693
0.00591039
0.000470834
-0.00268454
-0.200535
-0.174997
-0.101152
-0.126401
0.342169
0.344199
0.683235
0.674056
0.669007
0.617588
0.203654
0.205787
0.211215
0.207069
-0.0881393
-0.0350102
-0.0578342
0.426138
0.444181
0.440438
-0.0521251
-0.138097
0.0291683
0.056422
0.327956
0.311073
0.327945
0.371069
0.40719
0.692946
0.711204
0.709496
0.717883
0.761927
0.778337
0.743632
0.162583
0.172392
0.167445
0.202732
0.200205
0.201397
0.196381
0.1981
0.195505
-0.364677
-0.752108
0.181544
0.201708
0.161661
0.169684
0.321279
0.395742
0.376916
0.386439
0.388626
-0.278601
-0.341629
-0.0192967
-0.0524467
0.0817065
0.11318
0.0967965
0.616607
0.577073
0.626995
0.600585
0.561938
0.588048
-0.703911
-2.23422
-1.33568
0.248336
0.0551061
0.14581
-0.223716
-0.26567
-0.247971
0.657511
0.735248
0.360799
0.517641
0.534962
0.447968
0.479985
0.53367
0.456613
0.492881
0.530371
0.512831
0.20596
0.184678
0.17704
0.470069
0.527745
-0.16524
-0.216758
-0.268191
-0.14687
-0.109963
-0.131952
0.70279
0.592343
0.666541
0.214038
0.214716
0.00982576
0.0109754
0.21878
0.218833
0.00294612
-0.00722976
0.12733
-1.16508
-0.176358
0.207073
0.197728
0.214348
-0.409425
0.0880407
-0.367145
-0.275194
-0.220458
0.204415
0.149722
0.116164
0.0083505
-0.0175571
-0.0208905
-0.512786
0.211683
0.209984
0.213864
0.214877
0.215536
0.00743797
0.00606842
0.00515484
-0.00863025
0.00287339
0.0046926
0.179775
0.195635
-0.471713
0.213998
0.216169
0.215967
0.208888
0.214734
0.212861
-0.0170695
-0.0116352
-0.0319491
-0.0657738
0.0498064
0.382518
0.486819
0.340189
0.110549
-0.134132
0.278403
0.346876
0.244953
0.410081
0.381193
0.400976
-0.116382
-0.263241
-0.107027
-0.16135
0.20513
0.203815
0.195904
0.193039
0.209338
0.207457
0.211907
0.20872
0.211753
0.213224
-0.359552
-0.398817
-0.401252
-0.452385
0.046424
0.299238
-0.0131339
0.0271632
-0.124333
-0.354623
-0.281792
-0.429506
-0.440585
-0.592599
-0.253324
-0.311226
-0.298783
-0.148954
-0.283911
-0.490369
-0.331633
-0.372148
0.198664
0.197249
0.204487
0.211253
0.157969
0.160539
0.131954
0.149034
0.135432
0.0816506
0.114607
0.0920257
0.00327201
0.0108502
0.00437883
-0.0224289
-0.0616059
-0.00202779
0.00933688
0.0165784
-0.00225025
-0.00387354
-0.029162
-0.0345329
-0.476698
-0.590881
0.660269
0.618702
-0.203947
0.200868
0.207266
0.204071
0.208965
0.211968
0.212746
0.210516
0.207116
0.196409
0.198334
0.194141
0.194722
-0.415544
-0.551036
-0.372202
-0.438369
-0.184575
0.31774
0.0623796
0.00346057
-0.000974748
0.211141
0.612297
0.417715
0.437647
0.462938
-0.663509
-0.260349
-0.593419
0.0276507
-0.154033
0.380395
0.432622
0.455706
0.401614
0.350926
-0.438079
0.217091
-0.357496
-0.314341
-0.125329
-0.227994
0.423804
0.365105
0.373146
0.390378
0.411739
0.370413
0.348136
0.345926
0.383108
0.387839
0.183733
-0.0337299
-0.0792967
-0.115458
0.349303
0.223601
0.277965
0.196064
0.199969
0.202812
0.201353
0.184649
0.191591
0.187638
0.193001
0.195712
0.205115
0.205397
0.20084
0.20312
-0.395844
-0.395115
-0.348016
-0.437535
-0.429189
-0.479823
-0.38464
-0.211257
-0.22841
-0.0800308
0.0364424
-0.250882
-0.383373
-0.352299
-0.321512
-0.126936
-0.110921
-0.251684
-0.125734
-0.132767
-0.169771
-0.0204741
-0.0343152
-0.525069
-0.571248
-0.504807
-0.487709
-0.278015
-0.219306
-0.183329
-0.299499
-0.476003
-0.242321
-0.167301
-0.442338
-0.52038
-0.519603
-0.390446
-0.0149984
-0.0225824
-0.0479293
-0.161207
-0.118995
-0.171623
0.19471
0.195631
0.195762
0.208081
0.219593
0.234732
0.200916
0.177353
0.170356
0.172839
0.148195
0.157178
0.153078
0.165509
0.184842
0.191055
0.191131
0.19305
0.17785
0.17837
0.167455
0.171031
0.148807
0.131979
0.121455
-0.00909162
0.000307886
-0.00477099
-0.0238728
0.00430454
-0.00463147
-0.137277
-0.0493621
-0.0789152
-0.0694821
-0.15399
0.0110891
0.000371133
-0.388755
-0.313403
-0.501596
-0.528172
-0.598942
0.571632
0.676703
0.509927
0.292395
0.290355
0.517703
0.616794
0.261043
0.427373
0.457586
0.219479
0.493702
0.205815
0.205194
0.202726
0.202237
0.203685
-0.330335
-0.234725
-0.218399
-0.168477
-0.0549647
0.0597774
-0.0367605
-0.153757
-0.0155584
-0.00432649
0.312563
0.328898
0.272896
0.298406
0.298385
0.124399
0.19966
0.253798
0.209854
0.253571
0.275506
0.23638
0.266509
0.213862
0.172481
0.171538
0.119006
0.138969
0.116948
0.0997698
0.195793
0.174456
0.184112
0.176788
0.196263
0.223773
0.219411
0.243425
0.255872
0.181776
0.144735
0.153439
0.180026
0.143247
0.155712
0.16982
-0.118836
-0.215416
-0.127758
-0.422418
-0.33054
-0.346534
-0.39221
-0.354883
-0.0675196
-0.772496
-0.738941
-1.37722
0.150848
0.639523
0.380509
0.354129
0.410186
0.387806
0.390347
0.421083
0.427406
0.340225
0.35888
0.361893
0.309631
0.335124
0.366049
0.362112
0.193883
0.0751447
0.0649927
0.0281911
-0.0915077
-0.0614185
0.138864
0.062773
-0.00778677
-0.0025532
0.159594
0.0524702
0.115326
0.153086
0.0869347
0.0455253
0.240632
0.308335
0.29789
0.273058
0.188202
0.199409
0.225523
0.261593
0.287242
0.322023
0.192372
0.198072
0.199355
0.19713
0.194521
0.197252
0.197207
0.199751
0.200685
0.203427
0.202405
-0.469592
-0.49256
-0.40505
-0.439068
-0.34285
-0.327922
-0.253291
-0.289768
-0.42285
-0.3809
-0.371666
-0.386868
-0.401662
-0.41653
-0.179289
-0.162231
-0.188469
-0.234091
-0.0508398
0.0746945
0.136471
0.0292425
-0.0852734
-0.0538491
-0.0272147
-0.417949
-0.397688
-0.519454
-0.355052
-0.325116
-0.391309
-0.306524
-0.316154
-0.459682
-0.445573
-0.219763
-0.0582881
-0.0859369
-0.135568
-0.116779
-0.0773775
0.180331
0.175195
0.174601
0.169606
0.168831
0.180878
0.185183
0.187285
0.192273
0.193493
0.185211
0.189285
0.192592
-0.0726496
-0.00139989
-0.0188381
-0.0621694
-0.0218076
-0.00526859
-0.0250842
-0.199962
-0.274842
-0.270125
-0.31775
-0.438735
-0.383763
0.143294
0.131634
0.151346
0.365583
0.221751
0.134005
0.222648
0.326917
-0.0524345
0.139047
-0.0263965
0.544983
0.43039
0.578096
0.208499
-0.0976
0.0499268
0.104798
-0.0938411
-0.019219
0.0043471
-0.106025
-0.073595
-0.0457805
0.0546156
-0.0711086
-0.101503
-0.348588
-0.16749
-0.0314483
-0.0520123
0.0770037
0.139175
-0.0887289
-0.165303
-0.202559
0.302525
0.322862
0.340028
0.310551
0.333808
0.258357
0.249638
0.268433
0.279068
0.272231
-1.10761
-0.8184
-1.7585
-1.06696
-0.622334
0.18117
0.136035
0.4341
0.321884
0.402631
0.383378
0.341194
0.302432
0.313097
0.350823
0.0520697
0.158976
0.133221
0.142411
0.0470839
-0.019733
0.276088
0.270005
0.306314
0.330449
0.298765
0.331933
0.190635
0.190315
0.189223
0.186519
0.184818
0.186886
-0.266732
-0.339005
-0.240462
-0.254535
-0.28143
-0.325294
-0.110122
-0.11789
-0.0876484
-0.0781174
-0.0550939
-0.108317
-0.176812
-0.23003
-0.297589
-0.267736
-0.329407
-0.39325
-0.416813
-0.312996
-0.225362
-0.231289
0.0730941
0.320744
0.150387
0.316402
0.151463
0.210073
0.150081
0.143126
0.178695
0.0441683
0.120057
-0.13231
-0.631463
-0.539287
0.443171
0.463569
0.245366
0.0503611
-0.173023
0.0258572
0.22313
0.161518
0.201672
0.26937
0.26179
-0.341136
-0.265648
-0.0322391
0.19487
-0.108152
-0.116707
-0.120077
0.0426349
-0.0254979
)
;

boundaryField
{
    wall-4
    {
        type            zeroGradient;
    }
    velocity-inlet-5
    {
        type            zeroGradient;
    }
    velocity-inlet-6
    {
        type            zeroGradient;
    }
    pressure-outlet-7
    {
        type            fixedValue;
        value           uniform 0;
    }
    wall-8
    {
        type            zeroGradient;
    }
    frontAndBackPlanes
    {
        type            empty;
    }
}


// ************************************************************************* //
