/*--------------------------------*- C++ -*----------------------------------*\
  =========                 |
  \\      /  F ield         | OpenFOAM: The Open Source CFD Toolbox
   \\    /   O peration     | Website:  https://openfoam.org
    \\  /    A nd           | Version:  9
     \\/     M anipulation  |
\*---------------------------------------------------------------------------*/
FoamFile
{
    format      ascii;
    class       surfaceScalarField;
    location    "23";
    object      phi;
}
// * * * * * * * * * * * * * * * * * * * * * * * * * * * * * * * * * * * * * //

dimensions      [0 3 -1 0 0 0 0];

internalField   nonuniform List<scalar> 
1300
(
3.75095
5.62643
-5.82857
3.75095
-5.76759
5.62643
-4.52311
4.52311
-1.18144
1.18144
1.87654
1.87441
-2.92152
2.92152
-2.72412
2.72412
-2.59441
2.59441
-5.2464
5.2464
-5.06843
5.06843
4.68171
-4.68171
-4.6284
4.6284
-1.62474
1.62474
-3.91437
3.91437
3.17044
-3.17044
-4.31371
4.31371
-0.388257
0.388257
-0.553486
4.30444
3.19747
3.19747
-2.28191
2.28191
-4.85611
4.85611
6.21816
-6.21816
8.82001
-8.82001
-2.99144
-3.4208
1.34567
-8.40329
-4.42192
-4.42192
-8.4404
8.4404
-2.81397
2.81246
2.94263
-2.94263
-1.77117
1.77117
-4.45073
-0.0723742
-4.45073
4.52959
-0.00648007
4.52959
-1.31829
0.136846
-1.31829
3.99062
-3.99062
1.01333
0.168115
1.01333
3.06435
-3.06435
-1.87706
3.7536
1.8739
-1.87172
6.17616
-1.87923
3.75364
-5.86836
5.86836
-3.15791
0.236381
-3.15791
2.64299
0.278531
2.64299
-5.7275
5.7275
-2.365
-0.35912
-2.365
3.14296
-0.418834
3.14296
2.85045
-2.85045
-2.65766
0.0632515
-2.65766
2.53752
0.0568919
2.53752
0.353565
5.27287
-5.97999
8.79245
-5.27287
0.0264651
5.20843
0.037971
5.20843
-5.1061
0.0376676
-5.1061
5.01094
0.0574949
5.01094
4.77712
-0.0954151
4.77712
-4.79389
0.112181
-4.79389
-3.29511
-3.62764
-4.674
0.0456014
-4.674
-1.63823
0.0134888
-1.63823
1.60623
0.0185095
1.60623
-3.51002
3.51002
-4.31002
0.395649
-4.31002
3.12494
0.0454993
3.12494
1.86849
1.88246
5.61945
-5.61945
2.449
-4.12965
-0.184065
-4.12965
-4.48328
-4.33674
4.48328
-0.169562
-0.664041
0.275784
-0.664041
3.15929
0.0381777
3.15929
2.45041
0.0871075
-2.45041
0.168503
3.29599
-3.29599
1.65794
0.623965
1.65794
-5.56983
5.56983
4.95088
0.0600614
-4.95088
0.094769
6.15715
0.0610114
6.15715
-6.19961
-0.0185533
-6.19961
3.25948
-6.68027
-3.51379
4.52234
0.106061
-4.52234
0.100415
2.91272
0.0299114
2.91272
-2.92398
2.92398
-2.98194
0.039305
-2.98194
-2.18356
0.412384
-2.18356
1.45537
0.315807
1.45537
-4.31018
-0.140558
-4.31018
-4.46213
0.152105
4.46213
0.0674624
0.983701
-0.983701
-1.45651
0.138226
-1.45651
-4.13821
-0.171962
4.13821
-0.147594
-3.88045
-0.11017
-3.88045
-3.0227
0.0407646
3.0227
0.0416435
3.11222
0.0470688
-3.11222
0.047873
-1.87087
3.75333
-1.88009
3.75398
-5.46059
-0.407775
-5.46059
6.18468
-0.316313
6.18468
3.52672
0.387655
-3.52672
0.368811
2.4522
0.190794
2.4522
-6.14711
0.419613
-6.14711
5.24881
0.478685
5.24881
2.30794
0.144258
-2.30794
-0.0570602
3.52063
-0.377671
3.52063
2.88504
-0.0345897
2.88504
-2.84695
-0.00350071
-2.84695
2.80231
-2.80231
2.73065
0.0716618
-2.73065
0.0729846
-11.1326
11.1141
-0.0349565
-11.0977
5.17347
5.17347
4.20675
0.570372
4.20675
-5.00577
0.211883
-5.00577
3.2187
-6.73249
3.58156
-6.87667
3.59198
-11.9953
3.35908
-6.98672
4.79576
-4.79576
4.70109
0.0946777
-4.70109
0.0270864
-1.65856
0.0203256
-1.65856
-2.89271
-0.617315
-2.89271
4.16062
-0.650593
4.16062
-3.03073
3.03073
-3.07886
0.0481314
3.07886
0.046087
3.87462
-0.353994
-3.87462
-0.255028
0.84575
0.167576
-0.84575
0.181709
3.51171
-0.215712
3.51171
-3.09726
-0.198732
-3.09726
-1.66374
0.00518557
1.66374
-0.00579883
-5.81619
0.246363
-5.81619
-11.1908
0.093072
-11.1528
-6.10653
-6.10653
2.33387
11.1263
-2.87816
0.0312031
2.87816
0.0345662
2.97888
0.0518438
-2.97888
0.0549057
-2.86629
0.0639774
2.86629
0.0576889
-2.56819
0.384632
-2.56819
-1.03936
1.03936
-1.22656
0.187198
1.22656
0.228807
1.21731
-0.233613
1.21731
1.56202
0.0442184
-1.56202
0.105502
-3.78892
-0.0915277
-3.78892
6.36721
-0.182536
6.36721
-2.96591
-0.131354
2.96591
-0.0808648
-0.0333202
11.1474
-5.14015
0.0340517
5.14015
-11.2084
11.2425
-3.248
0.679812
3.248
0.958748
5.29379
0.276035
-5.29379
0.28802
4.99197
0.25684
-4.99197
0.19621
-2.38799
-0.504715
-2.38799
-4.88369
-0.576897
4.88369
-0.723076
-11.4747
-0.203867
11.6786
-11.4172
6.02006
0.137091
-6.02006
11.3796
-0.935436
-0.0482644
0.935436
0.103927
1.53316
-0.315841
1.53316
3.69326
-0.181558
-3.69326
-0.0956566
-6.37026
0.223151
6.37026
-0.00304937
-1.94433
-0.443661
1.94433
-0.411177
-4.26658
4.30476
1.90958
-3.13027
-3.55001
-7.467
1.85224
1.90109
4.30125
-7.51369
-4.48158
-7.41328
7.27139
-6.98337
-9.2985
9.20308
7.53159
-7.64176
-5.785
5.83108
6.48181
-6.44016
1.87864
1.87496
7.87316
-7.63678
-15.5938
15.186
5.90978
-6.2689
16.3953
-15.9757
-17.1297
17.3865
-5.76039
5.82364
-6.65808
6.65458
-6.85204
6.77118
-2.98797
-3.8887
10.1705
-10.1248
10.683
-10.867
-8.47489
8.87054
3.38269
0.922066
3.42976
-1.88239
3.76103
-1.87125
3.78083
3.61317
-6.60114
3.11932
-6.66932
5.81121
4.87174
-5.64165
-1.82536
-5.91509
5.945
-5.82232
5.88001
8.90733
-8.9797
-1.88539
3.76035
-1.86859
3.76967
-3.42538
-2.35962
3.37988
0.921363
6.0925
4.07795
-6.19856
-1.21471
-7.74638
7.56482
-8.02796
7.82923
-0.450047
5.8225
-5.37245
4.40606
-1.55397
7.37647
5.71742
5.9293
5.86786
-5.59183
1.11551
-6.48796
-6.39319
-2.55209
2.69031
2.53386
-2.36574
5.92142
1.61017
5.77383
-5.5175
-2.12426
-5.60903
3.8213
2.00978
3.86943
4.07676
2.40505
4.11753
3.03095
-3.03542
0.00446954
-3.05635
6.0873
0.724933
-5.41597
-4.49461
4.64795
3.22521
4.92648
-5.47728
-2.1595
-5.10847
-9.49598
-6.09781
-10.0729
10.0614
5.12464
9.74505
-11.963
11.9599
4.38939
1.52039
3.97055
-3.67687
-2.59203
-3.73393
13.1694
-2.52153
-10.6479
-10.4462
-6.68351
9.96749
6.42783
9.89079
7.49573
10.087
4.10194
9.06749
-10.5298
3.84627
-3.87159
-1.8888
-3.79861
3.73669
2.08696
3.79358
-4.18694
-2.47114
-4.15573
-4.21575
-2.63629
4.25034
2.40424
-4.30807
-3.71989
4.43942
2.33175
3.43129
-7.91287
3.55543
-7.44413
-7.38853
-2.73632
-7.36144
4.58269
2.04531
-6.628
-2.01844
10.5131
-5.64138
8.68776
-6.10501
-4.76201
-6.36003
-6.82174
-1.65315
-6.66963
-8.83693
8.33222
-9.14507
8.49448
12.7317
-5.72397
-7.00769
-3.968
-2.47216
3.92013
-0.490366
-3.71177
3.71624
0.0492634
3.83009
4.75216
4.26179
-3.88534
-1.93698
-3.83044
3.83251
2.04749
3.89649
6.74704
2.16029
6.74056
-6.39599
-2.58372
-6.53654
9.10149
-8.68911
2.96649
-2.9613
5.23398
2.59525
-5.01827
-2.72811
6.07042
-3.0353
-3.03512
-12.2161
10.5852
1.63091
-4.83962
-0.433562
-0.0453045
-5.51051
-3.78799
5.39833
0.530973
11.1162
7.32817
-5.51445
5.76081
6.16414
6.2242
-0.168987
5.85722
-5.17741
5.32313
-2.3882
-2.93493
5.26898
-5.44094
-1.26757
-5.24516
3.97759
0.332892
1.82899
-1.55321
-2.05092
-0.50117
-1.94542
1.53417
0.999685
1.70175
0.989561
1.70075
-2.92491
0.528143
2.39677
-1.93535
-1.8376
-3.62439
-1.03606
4.66045
5.51623
2.0486
-5.42057
-0.18846
2.72921
-2.7107
-0.751278
-2.87312
2.13849
-2.88976
-3.5196
-1.91642
5.43602
-3.36948
-0.460954
3.31764
0.551793
-3.82329
-2.0918
3.78399
0.333539
-3.12362
6.19043
-3.06682
-5.06059
2.5294
3.5579
4.53919
-4.78957
2.44537
2.34419
-1.23166
3.58272
1.34376
3.77352
-6.94399
4.78448
5.69914
3.17139
-6.0868
0.978331
-5.96566
8.44518
-7.21114
-1.23404
4.0035
4.44167
7.18118
5.55049
-5.74742
12.9286
-1.01254
-6.1986
6.9782
-3.8068
4.78746
-8.59426
-10.3379
4.13935
-9.29068
11.5273
-2.23661
-3.58879
-8.37416
12.8795
-1.18835
-11.6911
8.5567
-4.95702
-3.63019
8.5872
-7.47854
6.22222
-1.69534
-4.52688
-10.3998
-5.57588
10.1767
1.78324
-9.65675
13.503
-0.58926
4.19372
-0.223162
3.81605
3.41712
-6.33038
2.91326
4.06143
-5.75676
1.39333
-7.72371
-5.90717
10.4485
-4.54129
-8.64349
-8.66963
0.026136
1.40333
12.0997
-8.89906
5.84939
3.04967
3.30765
0.588842
-3.37931
-0.419296
0.337239
4.52202
-4.85926
4.13082
4.21793
3.40513
1.1169
3.82566
2.11935
-3.86022
-0.295509
-4.12289
1.4866
-1.71865
-3.65302
5.13962
-4.08056
0.427541
-2.7272
-3.55812
6.28532
-4.616
3.04289
3.14754
5.09039
-4.94581
1.38768
-2.44027
-2.50554
2.69288
-4.41153
1.96218
3.17744
4.29394
0.574041
5.59808
4.85038
-7.64339
0.199262
8.92833
-7.71361
2.77178
7.31523
-8.62116
-0.0484611
-7.4099
0.458759
-6.10014
-6.16924
5.10932
-6.76247
-3.48494
6.16339
0.577172
-6.23085
-0.438783
-5.98091
-2.85602
-6.42457
-3.05964
-6.08544
-8.80706
-1.62947
-7.17759
6.70275
-6.6461
-3.42677
7.36918
1.1253
-7.36767
7.31941
-7.43932
7.12348
0.0945793
3.62166
4.35637
1.88421
-2.39
4.27421
-5.06101
7.22129
-8.44876
3.38775
3.93659
-6.5203
-4.51217
5.03708
4.06441
5.35289
8.97091
-10.5733
1.60239
-10.8832
12.153
-1.26977
-16.6621
5.77894
-7.69123
2.70557
0.260917
2.7259
0.676918
2.41312
-3.09004
-2.28438
-2.29018
-2.28469
-3.34112
5.62581
1.12353
-3.33734
2.2138
-3.46274
4.58627
-0.0755834
-3.26175
5.23693
-2.82381
5.49784
-3.53832
1.95952
3.24661
5.54644
-2.29983
4.27595
-1.68069
1.79329
-4.09312
-1.54783
-3.01886
5.10581
-3.26647
3.69401
-0.246552
3.94056
-4.02108
0.985782
-0.615957
3.60197
3.77047
4.22135
-3.10446
2.90689
-4.58758
-1.18623
-4.01354
-0.836105
-0.322445
-3.74408
4.06652
6.08378
-6.40622
-5.29454
9.61119
-4.31665
7.74179
-5.42784
-2.31395
-4.2872
-4.4019
3.90257
1.95465
9.69644
0.205937
-5.63378
-4.97148
-4.01273
3.24191
2.08121
-2.04067
3.67158
2.08598
-0.256986
0.562398
1.13935
1.89158
-1.32918
0.23215
1.65943
-1.32106
2.01481
0.714401
-2.05903
0.113611
-1.35064
3.48913
1.04613
-2.04581
0.716632
1.03992
-3.42812
4.7138
-2.44043
-2.27337
5.75372
1.14448
-3.58491
4.10068
-3.76778
2.2862
-3.32226
-1.29871
-5.0665
-3.45633
-2.46371
4.67752
-3.1621
5.2107
1.15792
-5.02224
6.18015
-3.54245
1.62603
-3.03203
3.74643
-1.04383
-1.9882
2.75102
2.685
-2.91081
0.0376955
-0.159791
2.29555
-2.45534
-0.594217
-2.52957
-4.57263
4.90616
-2.10663
4.552
2.16758
-1.91362
6.46562
1.8124
-3.72602
-3.24819
-3.70914
-1.38183
3.15735
-0.385454
-3.34847
-4.91233
3.20421
0.569305
-7.025
7.36271
-0.337703
-3.79979
-0.984692
4.98819
-5.72074
-0.0360236
-4.32741
3.0353
4.37905
4.94836
-11.3663
-0.324853
-6.24163
1.193
-7.43463
5.63468
-3.6172
7.75654
-10.4367
7.00993
-9.3114
6.52251
-0.912124
7.19715
-4.28389
3.45075
-9.02664
-7.2434
5.14486
-3.62447
4.9217
-4.37347
9.29517
-4.96273
6.46441
2.83076
-1.94162
-4.41842
-5.50804
3.56642
0.956365
4.77241
4.95727
-2.83792
4.66176
2.22092
-4.66118
-2.19061
-6.52279
1.86161
-3.37525
-1.9115
3.7731
3.17889
3.76773
1.26756
-3.34844
8.05266
-8.02652
-3.51137
-2.65787
6.10602
-2.53959
4.75613
-7.414
-1.34401
4.86994
-0.824804
-4.04514
0.854028
-4.33897
1.63352
-5.97249
5.12895
-5.56773
2.18216
-9.87339
-5.18552
-5.08159
-2.22867
-5.21066
-7.65408
5.42541
-1.87514
5.44427
-8.67064
7.84583
-3.48232
8.90774
-5.38834
-1.03623
5.79952
1.32396
10.2317
0.115849
-4.62802
-1.8249
3.95708
-2.13219
1.41702
-3.62823
0.328853
2.43225
3.32147
-6.40984
-0.110463
-4.73848
-3.91999
7.9844
5.6912
11.775
1.20169
9.19698
-1.21259
10.3987
4.1403
4.36911
-2.99404
4.59643
1.07248
4.46024
-0.858658
2.81818
1.86724
1.88073
0.829972
2.30187
1.4686
3.28765
0.197617
-2.09257
4.657
-8.66973
-0.976777
-8.09935
1.10373
5.74372
-4.63999
3.18105
-1.09984
1.04886
0.112553
-1.74479
1.63224
-2.82238
-2.00178
-0.342352
-1.63869
2.35532
1.85044
-2.01297
-0.809409
0.313513
-3.76984
3.00874
-2.97105
-0.286052
5.8941
-2.7012
0.245858
-1.07517
-2.28371
-2.78488
2.67127
6.17382
0.291799
3.10701
5.19796
3.10616
0.268244
3.62387
-5.86048
-4.09983
-6.18534
-0.550658
4.43754
3.76185
8.33784
6.59261
4.05302
-3.36099
-11.3875
6.52682
-1.93039
5.25705
-1.21191
-4.76058
4.97703
2.24427
-5.5542
-0.0135309
-4.77411
-6.7045
-0.538861
8.38469
-9.69284
8.65661
5.80059
1.377
-4.38859
-0.692998
4.20139
0.167712
10.5664
-1.12825
-6.89216
8.02041
-4.61547
3.63869
0.881285
2.79029
2.51352
1.41369
-5.47848
-10.1185
-1.89989
-1.52823
-4.17325
0.4872
-2.33764
6.28022
-2.64152
3.96626
5.37889
6.42775
-2.18825
-4.21797
6.5049
-2.53863
3.88912
)
;

boundaryField
{
    wall-4
    {
        type            calculated;
        value           uniform 0;
    }
    velocity-inlet-5
    {
        type            calculated;
        value           uniform -3.75095;
    }
    velocity-inlet-6
    {
        type            calculated;
        value           uniform -5.62643;
    }
    pressure-outlet-7
    {
        type            calculated;
        value           nonuniform List<scalar> 8(5.82857 5.76759 6.41224 7.05763 6.92275 6.77327 6.80026 6.95106);
    }
    wall-8
    {
        type            calculated;
        value           uniform 0;
    }
    frontAndBackPlanes
    {
        type            empty;
        value           nonuniform List<scalar> 0();
    }
}


// ************************************************************************* //
