/*--------------------------------*- C++ -*----------------------------------*\
  =========                 |
  \\      /  F ield         | OpenFOAM: The Open Source CFD Toolbox
   \\    /   O peration     | Website:  https://openfoam.org
    \\  /    A nd           | Version:  9
     \\/     M anipulation  |
\*---------------------------------------------------------------------------*/
FoamFile
{
    format      ascii;
    class       volVectorField;
    location    "23";
    object      U;
}
// * * * * * * * * * * * * * * * * * * * * * * * * * * * * * * * * * * * * * //

dimensions      [0 1 -1 0 0 0 0];

internalField   nonuniform List<vector> 
918
(
(0.985158 -0.000521578 0)
(0.00500392 2.96626 0)
(-0.0131025 1.55308 0)
(0.979699 0.00215968 0)
(-0.00258874 1.53729 1.48613e-20)
(-0.00703574 2.94878 -1.87672e-18)
(0.851579 1.19378 7.26628e-19)
(0.396248 0.179363 -9.06551e-21)
(0.999906 -0.000297335 0)
(0.0616163 0.844481 0)
(-0.0561466 0.783719 0)
(0.745151 -0.011646 0)
(0.0111387 2.93032 0)
(0.00189465 2.79502 0)
(-0.0176663 3.16625 1.07905e-18)
(0.00589582 1.40915 5.03199e-20)
(0.507584 0.0776241 5.69338e-19)
(0.192508 1.21202 6.35558e-19)
(0.96306 0.00508889 0)
(-0.00224338 1.23425 0)
(0.125211 0.233616 -4.74784e-19)
(1.00206 -0.00498631 0)
(1.00022 -0.00977768 0)
(0.975728 -0.00645443 0)
(0.654636 -0.0397275 0)
(0.0172403 2.63341 0)
(-0.0150722 2.91016 6.48864e-19)
(-0.0247578 1.56282 0)
(-0.034146 1.70948 0)
(-0.0243204 1.55361 0)
(-0.00655818 1.88185 0)
(0.00655607 1.56184 -1.17511e-20)
(0.00230268 1.4229 0)
(-0.0206134 2.98759 -6.5667e-23)
(-0.0166995 3.0053 1.45869e-18)
(0.0021056 3.0002 0)
(0.870406 -0.00950637 0)
(0.397627 0.935676 -3.00195e-20)
(0.828188 1.21305 -1.01298e-18)
(0.975225 1.04635 9.52173e-19)
(0.696203 1.30968 -1.68554e-19)
(0.694943 1.2996 9.44382e-19)
(0.434661 0.272294 8.84491e-21)
(0.428686 0.165777 0)
(1.16066 0.560464 0)
(0.397784 0.280004 4.12646e-20)
(0.350565 0.177618 -4.28248e-20)
(0.919565 -0.00741805 0)
(1.00028 0.000122846 0)
(0.999908 0.000338941 0)
(1.00359 -0.00779835 0)
(1.00095 -0.00100584 0)
(1.00017 9.61648e-06 0)
(0.0776635 1.79199 -2.46733e-19)
(0.0156969 0.97801 0)
(0.099759 0.93017 0)
(0.0320096 0.906563 0)
(0.0210113 0.756968 0)
(-0.0933977 1.68198 0)
(-0.0542989 0.833165 0)
(-0.02172 0.668636 0)
(-0.0576369 0.955529 0)
(-0.0496217 0.914607 0)
(0.83297 -0.00857917 0)
(0.85488 0.0158081 0)
(0.76681 0.000842457 0)
(0.842725 0.0185624 0)
(0.731814 -0.0160423 0)
(0.0146997 3.0004 6.87163e-19)
(0.0115211 3.00795 0)
(0.00612679 3.00283 0)
(0.0135552 2.99735 7.66361e-24)
(0.00798496 2.95845 -1.02129e-18)
(0.0144924 2.98203 0)
(0.0108182 2.90361 0)
(0.0247782 2.93028 1.37621e-24)
(0.0042341 2.82533 0)
(0.0317541 2.91574 0)
(-0.00619119 2.74461 0)
(0.311634 3.56693 0)
(-0.132375 3.64928 0)
(0.141259 3.25711 -1.00421e-18)
(-0.0113455 2.98938 0)
(-0.0414438 1.84569 0)
(0.0319446 1.58549 -4.96412e-20)
(0.00975258 1.3871 7.91611e-20)
(0.570847 0.156507 -1.96153e-19)
(0.50981 0.0482131 -1.9053e-19)
(0.554775 0.176771 -5.90546e-19)
(0.500877 0.102653 -3.98151e-19)
(0.216384 0.90387 0)
(0.272964 1.35822 -6.59252e-19)
(0.393965 1.31396 1.0835e-18)
(0.987681 0.00858425 0)
(0.942151 0.00596403 0)
(1.00029 0.000578558 0)
(1.00286 0.00930026 0)
(1.00301 0.00846957 -1.11316e-18)
(0.991933 0.00967082 8.40582e-19)
(-0.0214884 1.38292 0)
(-0.0221039 1.19763 0)
(-0.0347982 1.56786 0)
(-0.0226416 1.45364 0)
(-0.00218111 1.28725 0)
(0.184346 0.24286 1.46316e-19)
(0.231255 0.219438 0)
(0.993539 -0.00832015 0)
(0.954378 -0.00639768 0)
(0.810441 0.0264295 0)
(0.776529 0.03797 0)
(0.707969 -0.0308683 0)
(0.980237 -0.00364468 0)
(0.716578 0.0538593 0)
(0.561871 -0.0191751 7.61967e-19)
(-0.0356822 2.86565 3.33816e-19)
(0.0427999 2.90858 0)
(0.0564529 2.88342 0)
(-0.00520204 2.69738 0)
(-0.0129877 2.98524 5.96298e-19)
(-0.0182313 2.89541 0)
(-0.0154018 2.9881 -1.88678e-18)
(-0.0133583 2.92523 6.51845e-19)
(-0.0408863 1.79764 0)
(-0.0364454 1.80564 0)
(0.0159818 1.56914 1.11035e-21)
(0.011679 1.5484 0)
(-0.00372491 1.41692 0)
(0.937178 -0.00664174 0)
(0.855782 -0.00921808 0)
(0.864915 0.0082025 0)
(0.948623 -0.00762994 0)
(0.883188 -0.00875059 0)
(0.511511 1.13106 2.67308e-20)
(0.563034 1.18532 0)
(0.357232 0.874807 4.60383e-21)
(0.300306 0.736183 0)
(0.934915 1.08386 -2.75095e-19)
(1.04779 0.881729 5.63319e-19)
(0.389219 1.40458 0)
(0.549066 1.37743 0)
(0.550586 1.33653 0)
(0.0997158 0.159033 -1.31328e-19)
(0.478219 0.256081 0)
(0.461632 0.154409 1.14026e-19)
(1.01799 0.935899 0)
(1.085 0.780364 0)
(1.1104 0.722973 -4.93099e-19)
(1.14077 0.619808 0)
(1.19197 0.403818 5.78494e-20)
(0.95726 -0.00883551 0)
(0.962183 -0.0101553 0)
(0.9011 -0.00807259 0)
(0.984174 -0.00914836 0)
(0.974512 -0.00944235 0)
(0.936918 -0.00628323 0)
(1.00018 0.00234574 0)
(1.00085 0.00135061 0)
(0.999925 0.000859203 0)
(0.0399873 2.02137 1.56469e-19)
(0.128427 1.70465 0)
(0.0131745 2.11577 1.44111e-19)
(0.0474898 1.87072 -6.01245e-20)
(0.135128 1.20212 -5.26757e-19)
(0.0561625 1.06246 0)
(0.0978519 1.06469 0)
(0.000825516 0.840515 0)
(-0.00110189 0.69379 0)
(-0.0812041 1.95648 2.90702e-21)
(-0.0484155 1.83506 0)
(-0.0447841 1.81501 1.92408e-19)
(-0.0736672 1.51309 -3.89547e-19)
(0.017923 0.78986 0)
(-0.008202 0.778066 0)
(-0.00751803 0.648317 0)
(-0.0602469 1.08325 0)
(-0.0438352 1.02274 0)
(0.927514 0.0130967 0)
(0.849478 -0.00373294 0)
(0.916508 0.00216327 0)
(0.834164 -0.0112608 0)
(0.812864 0.00551328 0)
(0.903677 0.0162305 0)
(0.881105 0.0184205 0)
(0.787574 0.00413003 0)
(0.00573067 3.06471 -6.044e-21)
(0.0164163 3.058 0)
(0.014635 2.96913 0)
(0.00849953 2.87635 0)
(0.930034 3.98746 0)
(1.24596 3.31759 1.01483e-18)
(0.0712637 3.0816 0)
(-0.026828 2.91041 0)
(-0.0516644 1.79498 0)
(-0.0573413 1.83368 0)
(-0.0453609 1.81285 0)
(-0.022085 1.87214 3.60351e-21)
(-0.0497912 1.86116 0)
(-0.0312159 1.85334 0)
(0.0127114 1.38666 -3.98526e-20)
(0.0567735 1.59777 -1.64205e-19)
(0.0492593 1.58839 -8.06648e-20)
(0.0105383 1.37087 0)
(0.602612 0.124554 2.89144e-19)
(0.526604 0.0186019 -2.82089e-19)
(0.261694 1.53355 0)
(0.258611 0.673444 -2.10944e-19)
(0.169708 1.61865 -7.06842e-19)
(0.236933 1.15535 7.08869e-19)
(0.903162 0.00662313 0)
(0.967716 0.0107842 0)
(0.974811 0.0107702 0)
(0.923983 0.00664888 0)
(-0.0546215 1.20753 0)
(-0.0358395 1.31104 0)
(-0.0395039 1.1219 0)
(0.35025 0.276741 3.79103e-19)
(0.294342 0.257546 -4.61928e-19)
(0.301842 0.198064 0)
(1.10581 0.0860704 -3.17714e-21)
(1.09065 0.0400039 0)
(1.01811 0.0395851 0)
(0.918434 0.00405012 0)
(0.625637 0.0946335 0)
(0.657221 0.0686867 -1.22636e-18)
(0.542146 0.0038492 4.68319e-19)
(0.00967053 2.98153 4.21912e-19)
(-0.0328693 2.8669 4.66625e-20)
(0.0037923 3.05021 -1.30581e-20)
(0.0200074 3.04348 4.69558e-19)
(-0.0149992 2.99655 2.16746e-20)
(-0.0130023 2.94945 -8.77106e-23)
(-0.0172918 3.01198 -4.10838e-19)
(0.0148477 3.02391 2.97241e-19)
(0.00733792 3.03682 -4.6459e-19)
(0.927337 -0.00166458 0)
(0.936138 -0.00288083 0)
(0.842245 -0.00738546 0)
(0.957158 0.0113464 0)
(0.943896 0.0129068 0)
(0.883228 0.00660259 0)
(0.919531 0.015116 0)
(0.927897 0.0145307 0)
(0.840249 0.00718116 0)
(0.719194 1.4148 3.265e-19)
(0.754276 1.52562 0)
(0.220538 0.354795 2.60098e-20)
(0.185755 0.59528 2.1213e-19)
(0.268206 0.696809 -1.18546e-19)
(0.230594 0.577897 2.16872e-19)
(0.300097 0.711298 7.48893e-19)
(0.107913 0.187675 2.15854e-19)
(0.537952 0.209643 4.26751e-19)
(0.510909 0.239194 1.07127e-19)
(0.489542 0.13546 2.14768e-19)
(1.18125 0.460817 2.92951e-19)
(1.1983 0.256113 3.05424e-19)
(-0.0117606 2.13717 1.09776e-20)
(-0.0102695 1.93116 0)
(0.969345 0.0305704 0)
(0.936677 0.0192033 0)
(0.875109 -0.00371519 0)
(0.0111837 3.07476 0)
(0.0199905 2.94411 8.06221e-19)
(0.0165094 2.95652 0)
(0.00606372 2.85073 -7.99901e-19)
(0.00606796 3.09128 1.91101e-19)
(0.0072239 3.08228 0)
(0.788069 1.83062 -2.39176e-19)
(1.25321 2.51378 6.58397e-19)
(0.770761 1.97172 -1.49348e-18)
(0.0210894 2.98412 -3.09387e-19)
(0.0369802 3.00648 0)
(-0.0324716 2.88201 0)
(0.0125213 1.68615 -8.18815e-21)
(0.0559801 1.6488 4.30895e-19)
(0.0244861 1.43573 -1.82904e-20)
(0.277152 1.34149 6.84339e-19)
(0.211734 0.448531 -4.71727e-19)
(0.0621287 1.94515 4.65933e-19)
(0.133782 1.83987 -5.83166e-19)
(0.184148 1.44283 8.41482e-20)
(0.00249696 3.11907 -1.12385e-18)
(0.0135689 3.1189 1.21615e-18)
(-0.00862131 2.98129 5.16468e-19)
(-0.00362856 2.97786 -4.55988e-19)
(-0.0213218 2.88177 -5.2601e-19)
(0.00871656 3.1002 -1.40152e-18)
(0.00234946 3.10496 1.3788e-18)
(0.238012 0.628293 0)
(0.191795 0.617252 -4.12551e-19)
(0.112983 0.207061 1.86141e-19)
(0.323831 0.831944 6.51178e-19)
(0.171753 0.230014 -9.96563e-19)
(1.19144 0.17246 -5.53229e-20)
(1.19746 0.308878 0)
(1.18025 0.120451 1.18978e-19)
(-0.0569726 2.0594 2.27104e-21)
(-0.0517052 2.12741 0)
(-0.0427188 1.91591 0)
(0.333825 1.23125 -2.47451e-19)
(0.349799 1.04687 -5.28097e-19)
(0.187231 0.324239 9.09399e-19)
(1.00584 -0.010986 0)
(1.00761 -0.00762372 2.03134e-19)
(-0.0455251 1.76837 0)
(-0.0530043 1.77111 0)
(1.00224 0.00348219 1.79261e-21)
(1.00352 0.00923899 4.17919e-19)
(-0.0260241 1.88955 -4.6471e-21)
(-0.0174348 1.9001 0)
(0.0387927 3.1829 1.193e-19)
(0.400743 3.50199 0)
(1.1206 0.643835 6.33632e-20)
(1.01316 0.0128818 -2.00574e-21)
(1.02096 -0.0106946 0)
(1.00175 1.192e-05 7.14696e-23)
(0.140858 1.33799 0)
(0.151168 2.56544 0)
(-0.164285 1.05556 0)
(-0.17646 2.67976 -2.49234e-19)
(-0.234273 2.47748 -1.3223e-19)
(1.00781 0.02018 3.0491e-21)
(1.05237 -0.000567149 0)
(1.07712 0.0292514 0)
(-0.0667003 1.83079 0)
(-0.0356366 2.00367 0)
(-0.115837 1.64827 0)
(0.289985 1.46318 -4.34715e-19)
(1.0112 -0.00964522 0)
(1.00945 -0.0151872 0)
(1.00249 0.000501735 2.59235e-19)
(1.00548 -0.00498095 -3.05409e-19)
(1.00123 -0.00105387 0)
(-0.0867757 1.8027 0)
(-0.0618 1.76505 0)
(-0.0655401 1.79068 0)
(-0.098986 1.65753 0)
(-0.0587303 1.71463 0)
(-0.0710411 1.7021 0)
(1.03413 -0.00854542 0)
(1.02059 0.015016 -1.17261e-21)
(0.780085 1.26015 5.14664e-19)
(1.0022 0.00030836 -2.57142e-19)
(1.00402 0.00524621 3.04775e-19)
(1.00121 0.00208096 0)
(1.01296 0.0101811 2.52185e-19)
(1.00809 0.00817331 -3.12756e-19)
(1.00875 0.0145869 0)
(-0.0335177 1.99616 0)
(-0.0301628 1.94208 -2.11127e-20)
(-0.0229447 1.95199 1.84749e-20)
(1.19314 0.258946 -5.95185e-20)
(1.13131 0.0883722 0)
(0.0507675 3.07734 -5.24039e-19)
(0.0679356 2.85116 -4.17467e-20)
(0.146912 3.19626 8.30472e-19)
(0.141033 3.2256 -5.17981e-21)
(0.139066 3.24133 0)
(0.021518 3.13853 1.14445e-19)
(0.0801296 3.16161 5.10887e-19)
(0.0725184 3.18905 -2.20892e-19)
(0.0250876 3.12863 0)
(0.660849 0.323614 0)
(0.586765 0.37172 0)
(1.09344 0.672861 -2.44691e-19)
(1.09179 0.81027 3.80232e-19)
(1.14974 0.560846 0)
(1.18177 0.504324 0)
(1.01615 0.0130415 -4.66573e-19)
(1.01493 0.0140144 5.82933e-19)
(1.0251 -0.0105109 0)
(1.02331 -0.0121588 0)
(1.00692 0.00253827 0)
(1.01045 0.00340716 0)
(1.00461 0.00159596 0)
(1.00995 0.00617629 0)
(1.00797 0.00619981 0)
(1.00427 0.00437372 0)
(0.13199 1.33415 0)
(0.122465 1.24632 0)
(0.138962 1.39574 0)
(0.131997 1.38857 0)
(0.141347 2.58821 0)
(0.183072 2.64667 -2.1202e-19)
(0.108758 2.64093 0)
(0.0871413 2.64158 8.14692e-22)
(0.0172123 2.67651 2.05888e-19)
(-0.15286 1.08908 0)
(-0.172571 1.09102 0)
(-0.0852876 1.05953 0)
(-0.0196364 0.946312 0)
(-0.145597 2.34461 4.42909e-19)
(-0.247192 2.57315 -2.78045e-19)
(-0.20514 2.6946 -3.67834e-19)
(-0.215709 2.63859 0)
(-0.221861 2.46717 3.07036e-19)
(-0.169158 2.37299 2.482e-19)
(-0.204848 2.33165 -3.7082e-19)
(-0.275739 2.52636 3.82467e-19)
(-0.25739 2.56832 4.65466e-19)
(1.01672 0.0308962 4.59891e-19)
(1.00982 0.0193861 -5.68708e-19)
(1.00864 0.0291816 -4.77632e-19)
(0.990969 0.0125797 6.13471e-19)
(1.05292 0.00222289 0)
(1.04052 -0.0149801 0)
(1.07415 0.0358601 0)
(1.05812 0.0115071 0)
(1.05569 0.00536727 0)
(1.11528 0.0781882 0)
(1.08739 0.0487111 0)
(1.08943 0.0408435 0)
(-0.0598417 1.88811 -6.40726e-22)
(-0.0865267 1.86199 0)
(-0.0630541 1.86649 0)
(-0.0523906 2.06448 -1.43691e-20)
(-0.0374396 2.08743 1.99067e-21)
(-0.157431 1.82473 4.31766e-21)
(-0.106 1.79916 -4.37776e-21)
(-0.139148 1.70941 0)
(-0.105556 1.74728 0)
(-0.0907966 1.75584 0)
(-0.151184 1.59631 0)
(-0.10757 1.51175 0)
(0.378845 1.47755 8.2111e-19)
(0.40762 1.49294 3.22295e-19)
(0.595014 2.43345 -1.56336e-19)
(0.4068 2.52698 4.32823e-19)
(0.356341 2.08953 -4.76554e-20)
(1.02088 -0.00876423 0)
(1.01535 -0.0100823 0)
(1.01477 -0.0155252 0)
(1.0078 -0.00131924 0)
(1.00473 -0.00133564 0)
(1.00759 -0.0047178 0)
(1.00919 -0.00373277 0)
(1.01418 -0.00468821 0)
(1.02173 0.0156348 4.44131e-19)
(1.01747 0.0155532 -5.71199e-19)
(1.02296 0.0185026 -4.46332e-19)
(1.0188 0.0180708 5.59206e-19)
(0.753429 1.31002 0)
(0.687008 1.36646 6.07296e-19)
(0.857026 1.20111 3.5212e-19)
(0.901027 1.1588 -4.6881e-19)
(1.15303 2.61758 -5.39085e-19)
(0.835252 0.104158 2.97602e-19)
(1.1318 0.102226 0)
(1.17541 0.182291 5.2298e-20)
(1.16088 0.157668 2.3359e-21)
(0.987 0.123296 0)
(0.145779 2.96551 1.44129e-19)
(0.12329 2.87114 -6.7907e-19)
(0.0347539 2.35925 4.87406e-19)
(0.100641 0.0767201 -2.05842e-19)
(0.34524 3.42999 -4.3734e-19)
(0.198944 3.32066 0)
(0.240635 3.36509 5.69553e-19)
(0.253965 3.03932 -7.84379e-19)
(0.349154 3.19934 0)
(0.00804581 3.12058 2.67081e-20)
(0.0179829 3.1297 -3.3972e-19)
(0.0163762 3.12561 5.00027e-19)
(0.0379311 3.13979 0)
(0.0364357 3.15159 0)
(1.21763 2.61886 0)
(0.525757 0.851005 -2.43564e-19)
(1.02284 0.984093 -1.99314e-19)
(0.959852 1.05082 0)
(0.801967 0.948179 5.12337e-20)
(1.04471 0.863715 2.99396e-20)
(0.402226 0.439303 -5.46141e-19)
(0.699596 0.340469 -2.3933e-20)
(0.685152 0.277378 2.29933e-19)
(0.60069 0.401411 1.79863e-20)
(0.536978 0.378327 -7.37325e-19)
(0.670367 0.358247 0)
(0.697145 0.42848 3.77381e-19)
(0.696532 0.426174 0)
(0.630018 0.392403 0)
(0.618112 0.328157 0)
(0.773991 0.593059 1.36216e-19)
(1.19135 0.275778 3.48425e-20)
(1.18838 0.408352 0)
(1.19982 0.360486 0)
(0.768715 0.197181 3.40814e-19)
(0.823657 0.534045 -1.87895e-19)
(0.73525 0.502404 3.0794e-19)
(0.914816 0.420022 -2.90381e-19)
(1.01946 0.0144561 3.07343e-19)
(1.0178 0.0139795 -3.14322e-19)
(1.0157 0.0153454 0)
(1.03498 -0.00623916 0)
(1.02924 -0.00955803 -2.83497e-19)
(1.0272 -0.0127391 2.80633e-19)
(1.02527 0.00872288 0)
(1.02426 0.0126276 0)
(1.01136 0.00366069 0)
(1.01425 0.00871785 0)
(1.01506 0.00328647 0)
(1.01421 0.00221128 0)
(0.13004 1.23831 0)
(0.109169 1.08306 0)
(0.150901 1.38963 3.47633e-19)
(0.271959 1.45625 2.48274e-19)
(0.175565 1.43488 5.43882e-19)
(0.201941 1.43578 -8.81075e-19)
(0.163459 1.39393 0)
(0.106489 1.5895 2.53356e-19)
(0.0890565 1.56478 0)
(0.3469 2.04165 6.92706e-20)
(0.34846 2.36971 2.43121e-19)
(0.143871 1.45926 -2.21538e-19)
(0.263803 1.36375 1.90702e-19)
(0.179614 1.37529 -1.53034e-19)
(0.273828 1.31062 3.11574e-19)
(0.245295 1.57639 0)
(0.260696 1.62685 -2.04539e-19)
(0.0588946 2.34965 1.18398e-19)
(0.0176973 2.68271 0)
(0.0740063 2.4096 -1.70844e-19)
(0.0515375 2.45716 0)
(0.0845105 2.64591 -2.08551e-21)
(0.0446933 2.6939 0)
(-0.161688 1.45766 5.30278e-19)
(-0.0538316 1.63009 0)
(0.0182566 1.30604 0)
(-0.111093 1.24516 -5.97721e-19)
(-0.147659 2.70477 -7.42071e-20)
(-0.0225019 2.74012 -3.07604e-19)
(-0.105894 2.73314 -1.80734e-21)
(-0.449948 2.16713 -1.68064e-19)
(-0.366451 2.10367 -1.81138e-19)
(-0.17286 1.18765 0)
(-0.132025 1.20913 0)
(0.168783 1.78546 -6.30738e-19)
(0.127831 1.47515 -7.05582e-19)
(0.0931886 1.66577 9.10011e-19)
(0.184044 1.78527 0)
(-0.157465 1.96885 4.35748e-20)
(-0.127009 2.04867 -2.33195e-20)
(-0.159315 2.10752 1.03566e-20)
(-0.437107 2.02932 2.03466e-19)
(-0.250343 2.28434 3.9824e-20)
(-0.265293 2.35301 -2.28445e-19)
(1.02114 0.0228678 -3.03424e-19)
(1.01792 0.0271155 3.03619e-19)
(1.01385 0.0210702 0)
(1.00999 0.0492682 4.38856e-19)
(0.994963 0.0365986 -5.14009e-19)
(0.964066 0.0228194 5.95258e-19)
(1.01034 0.0851968 -5.6859e-20)
(1.04031 -0.00791735 0)
(1.04365 -0.00839926 2.53501e-19)
(1.03503 -0.0154972 -2.54727e-19)
(1.06176 0.0407333 -1.40082e-20)
(1.05636 0.0209617 1.24583e-19)
(1.05886 0.0508698 0)
(1.05328 0.041909 -4.6501e-20)
(1.03947 0.0304001 0)
(1.03544 0.0271461 0)
(1.02746 0.0121036 0)
(1.02573 0.0151149 0)
(1.04775 0.0266437 9.70173e-20)
(1.04519 0.0182168 -2.19752e-19)
(1.05278 0.0245596 -9.76785e-20)
(1.05124 0.0260759 -1.13539e-19)
(1.06207 0.0586278 2.03433e-19)
(1.07932 0.0520038 0)
(1.08526 0.0942929 0)
(-0.146485 1.9538 2.22648e-20)
(-0.107194 1.87041 -3.7069e-22)
(-0.118278 1.88931 0)
(-0.0869737 1.95921 -2.22906e-20)
(-0.064707 1.90278 9.64261e-22)
(-0.0749377 1.92901 2.68485e-21)
(-0.140853 2.33379 -2.50466e-19)
(-0.157365 2.17141 5.31571e-21)
(-0.20207 2.23772 -3.8664e-20)
(-0.0728072 2.19234 8.15727e-20)
(-0.0837667 2.21532 -9.22662e-20)
(-0.211887 1.7636 -1.2223e-21)
(-0.193414 1.83706 2.09383e-21)
(0.376076 1.39762 -4.07812e-19)
(0.372856 1.35579 -3.88219e-19)
(0.638275 1.41503 -5.85417e-19)
(0.51107 1.47901 -3.14297e-19)
(0.555674 1.45359 0)
(0.590336 2.40619 1.24493e-19)
(0.654123 2.39413 2.26639e-19)
(0.41127 2.50388 7.92981e-20)
(0.407152 2.55188 -1.78642e-19)
(0.519427 2.51007 2.69712e-19)
(0.548941 2.44677 0)
(0.489193 2.49402 -3.59773e-19)
(0.242039 2.57889 6.07893e-19)
(0.351944 2.5545 -8.23334e-20)
(0.283899 2.63565 -9.14421e-19)
(0.925097 2.37635 2.3305e-19)
(0.828757 2.36798 0)
(1.01032 0.000242736 1.02096e-20)
(1.01476 -0.00575168 -8.3415e-21)
(1.01809 -0.00389949 -1.50996e-19)
(1.01498 -0.000647898 1.51243e-19)
(1.01219 0.00105896 0)
(0.621163 1.26983 0)
(0.628825 1.16704 0)
(0.731395 1.07552 0)
(0.626539 1.1197 0)
(1.18303 2.634 5.61955e-20)
(1.06772 2.37027 0)
(0.840569 2.23496 -1.76671e-21)
(0.82234 2.47956 0)
(0.916051 2.56619 1.44369e-20)
(0.951853 2.52143 -9.6382e-21)
(0.843537 0.14585 0)
(0.813283 0.143304 8.57257e-20)
(0.927984 0.125246 4.40102e-19)
(0.865481 0.116119 -1.75459e-19)
(0.848327 0.0655634 -5.29867e-19)
(1.0402 0.216509 -2.57455e-19)
(0.957663 0.272317 -1.57773e-20)
(0.904138 0.272947 4.0083e-19)
(0.973165 0.199283 2.98304e-19)
(0.937652 0.159175 -5.55503e-19)
(0.911133 0.169971 7.19135e-20)
(0.938106 0.233933 -1.40285e-19)
(0.914755 0.193479 0)
(0.973079 0.157356 2.66335e-19)
(1.01641 0.164338 0)
(1.00994 0.191012 0)
(1.07782 0.110007 8.66671e-20)
(1.04038 0.157003 -1.30516e-20)
(1.03431 0.218814 -4.85484e-20)
(1.07037 0.191578 0)
(1.027 0.0304101 2.29253e-19)
(1.04496 0.0477769 2.73292e-19)
(1.04173 0.0319885 -2.26128e-19)
(1.04277 0.0531445 -1.8406e-19)
(1.02196 0.0548341 -3.08515e-19)
(0.974927 0.125517 0)
(0.989294 0.0784947 0)
(0.968654 0.0426107 -2.14521e-19)
(0.933458 0.0582314 8.90308e-20)
(1.03021 0.0852576 2.58836e-19)
(1.04624 0.110807 -2.64665e-19)
(1.05083 0.137598 2.41732e-19)
(1.017 0.124318 0)
(1.05573 0.0980282 0)
(1.04352 0.0806475 -1.09995e-19)
(1.03962 0.0818518 -2.07986e-19)
(0.578676 1.0817 -9.38569e-20)
(0.619723 1.44014 1.9488e-19)
(1.15758 2.7584 9.83776e-20)
(1.22434 3.09624 -7.0281e-20)
(1.24765 2.73458 5.53018e-19)
(1.28025 2.71852 -3.3624e-19)
(1.20705 2.35445 -8.30876e-21)
(1.21056 2.99982 1.91714e-19)
(1.22862 2.96483 -2.10797e-19)
(1.21651 3.24991 -2.67453e-19)
(1.37903 2.98131 3.70337e-19)
(1.37198 2.89866 0)
(0.523594 0.861088 -1.35328e-20)
(0.159984 1.28244 3.79378e-19)
(0.527225 0.512833 3.58358e-19)
(0.364625 0.281822 3.93071e-19)
(0.550606 0.407157 4.13759e-19)
(0.5565 0.485555 -6.43186e-19)
(0.559497 0.490466 5.27279e-19)
(0.517561 0.442296 -2.15242e-19)
(0.460148 0.378482 4.93329e-19)
(0.777292 0.249421 -1.907e-19)
(0.730374 0.298277 0)
(0.7265 0.231522 1.08764e-20)
(0.7247 0.513112 1.93239e-19)
(0.692016 0.482976 -7.14735e-19)
(0.620339 0.477998 1.85224e-20)
(0.630999 0.460829 0)
(0.65717 0.722697 1.56339e-19)
(0.796445 0.750264 6.54589e-20)
(0.718309 0.832745 -8.42848e-20)
(0.839964 0.786894 -2.00694e-20)
(0.872922 0.831026 1.28992e-20)
(0.881469 0.831683 -1.32131e-20)
(0.814423 0.631343 -2.3289e-19)
(0.889002 0.683819 1.86598e-20)
(0.944245 0.698416 0)
(0.933865 0.676916 -1.88062e-20)
(0.983718 0.311291 6.50991e-20)
(1.10118 0.284622 1.0235e-20)
(1.02434 0.250653 1.05034e-19)
(0.966868 0.344243 -1.48988e-19)
(1.01554 0.404276 0)
(1.06254 0.392499 0)
(0.889102 0.353654 5.02488e-21)
(0.831451 0.28225 0)
(0.85177 0.274469 2.05503e-19)
(0.884579 0.278853 -5.77392e-21)
(0.9065 0.423487 7.95505e-19)
(0.869573 0.48362 2.01331e-19)
(0.871512 0.449987 -2.57134e-19)
(0.800681 0.437099 2.75958e-19)
(0.786173 0.436601 1.8683e-19)
(0.752271 0.418553 -1.83433e-19)
(1.02676 -0.000926829 2.43394e-19)
(1.0199 -0.000123406 0)
(1.01834 0.000825598 1.61693e-19)
(1.02208 -0.00129462 -3.63969e-19)
(1.02193 0.0041195 1.76457e-19)
(1.0206 0.0105668 -3.70404e-19)
(1.02147 0.0100817 0)
(1.02067 0.0108082 -7.8182e-20)
(1.01594 0.00760173 1.95978e-19)
(1.01683 0.010274 -9.87604e-20)
(1.01774 0.00948912 7.28168e-20)
(0.020016 1.04486 0)
(0.0973591 1.22468 0)
(0.0908509 1.09317 0)
(0.058931 0.967341 0)
(0.183059 1.3622 -7.52316e-19)
(0.172914 1.3363 2.4384e-19)
(0.171255 1.48558 1.58057e-19)
(0.145458 1.38454 -1.8845e-19)
(0.178024 1.51373 5.918e-19)
(0.196792 1.48076 -4.53078e-19)
(0.22798 1.35063 -2.63124e-20)
(0.238069 1.29806 5.20203e-19)
(0.187643 1.22294 7.52785e-20)
(0.180584 1.22307 7.52071e-20)
(0.104409 2.37436 1.88762e-19)
(0.0947271 2.41645 0)
(0.149966 2.06466 -3.50378e-20)
(0.116103 1.73167 -1.06765e-19)
(0.232004 2.057 2.54306e-20)
(0.206351 2.45642 0)
(0.269293 2.40888 -1.33958e-19)
(0.298754 2.41009 9.55281e-20)
(0.223162 2.01621 7.83725e-20)
(0.137153 2.18648 -1.18841e-21)
(0.13673 2.31668 0)
(0.0975342 2.12471 6.246e-19)
(-0.103615 2.59804 6.30776e-19)
(-0.0450594 2.45899 0)
(0.0240106 2.57626 -3.07898e-20)
(0.0406672 2.4112 -2.83447e-19)
(-0.275349 1.33847 -6.30332e-20)
(-0.276144 1.3517 9.14799e-19)
(-0.301961 1.43466 -1.93493e-19)
(-0.364095 1.48133 -3.96151e-19)
(-0.23574 1.41778 0)
(-0.309579 1.40747 0)
(-0.179392 1.46423 -7.84725e-20)
(-0.277354 1.49374 2.55329e-20)
(-0.303626 1.41642 0)
(-0.199457 1.31133 -8.0574e-20)
(-0.128353 1.36806 1.37987e-19)
(1.04038 0.00281132 0)
(1.04169 0.000323641 -2.33952e-20)
(1.04513 0.0134967 -1.74742e-19)
(1.05086 0.0107113 0)
(1.05018 0.00802023 0)
(1.03816 0.00468161 -6.60441e-21)
(1.03325 0.00652396 2.87493e-19)
(1.03414 0.0114677 3.47638e-19)
(1.02748 0.01879 0)
(1.02611 0.0199802 0)
(1.03999 0.0203116 1.75773e-19)
(1.03234 0.0235093 0)
(1.02922 0.0226479 0)
(-0.310755 2.00663 0)
(-0.237469 1.85046 -5.85967e-21)
(-0.25277 1.95907 -1.33312e-20)
(-0.260769 1.57316 0)
(-0.306117 1.79842 -3.27404e-20)
(-0.244158 1.7303 -1.22718e-21)
(-0.235604 1.63952 0)
(0.394101 1.68004 0)
(0.371707 1.28682 6.37175e-19)
(0.302159 1.3406 0)
(0.422604 1.27632 -8.31539e-19)
(0.463301 1.44454 0)
(0.443307 1.39021 3.90034e-19)
(1.0265 2.70467 -4.35205e-21)
(0.947798 2.4118 -2.94254e-19)
(0.885192 2.16463 3.3758e-19)
(0.838918 2.36243 1.19394e-19)
(0.839262 2.51919 0)
(0.905775 2.51451 0)
(0.903216 2.37041 0)
(0.888677 2.34555 -4.48678e-19)
(0.691639 2.49444 -2.6082e-20)
(0.799422 2.48699 -1.57572e-20)
(0.807452 2.45893 1.20682e-20)
(0.686185 2.37361 0)
(0.793069 2.36914 0)
(0.751835 2.38017 -2.2834e-19)
(0.768355 2.50224 0)
(0.587448 1.08946 0)
(0.480697 0.939844 -7.82002e-21)
(0.528782 0.970057 -1.73626e-21)
(0.512765 1.06047 0)
(0.512421 1.01683 1.43478e-20)
(0.740572 0.858571 1.08389e-20)
(0.758952 1.00002 0)
(0.731316 0.95521 -5.77319e-20)
(0.608801 1.02213 0)
(0.614444 0.936949 0)
(1.16167 2.77847 5.28818e-20)
(1.1401 2.84278 1.22312e-19)
(0.934376 2.37147 -2.80735e-19)
(0.901739 2.34534 3.45604e-20)
(1.12478 2.74921 0)
(1.07555 2.72001 -4.13021e-20)
(1.0816 2.49455 -7.75927e-20)
(0.975362 2.23152 -3.03649e-20)
(0.487812 1.37172 0)
(0.497896 1.06951 8.2709e-20)
(0.540193 1.14936 0)
(0.856683 0.21872 0)
(0.819638 0.176805 0)
(0.779477 0.163795 0)
(0.849864 0.223704 -3.23176e-19)
(0.798447 0.221283 1.99401e-19)
(0.940638 0.0505867 -1.83006e-19)
(0.95305 0.0999284 0)
(0.925629 0.104913 8.23417e-20)
(0.888024 0.0808802 3.37196e-19)
(0.878338 0.0467235 -2.07117e-19)
(1.16692 3.3754 -9.8015e-19)
(1.21274 3.29485 0)
(1.16705 3.40201 -1.92972e-18)
(0.653694 3.56235 1.65663e-18)
(0.880767 3.12758 3.75429e-19)
(0.504324 0.886772 2.31804e-19)
(0.432339 0.875732 0)
(0.361049 0.54518 -8.6131e-20)
(0.453173 0.694427 3.94867e-19)
(0.534814 0.512517 -1.14324e-19)
(0.518616 0.538115 1.33139e-19)
(0.661882 0.528663 2.74392e-19)
(0.688863 0.545426 0)
(0.647978 0.617501 0)
(0.598764 0.549742 0)
(0.941827 0.585761 -4.89002e-20)
(0.873261 0.528468 -1.94701e-19)
(0.89648 0.561423 9.38747e-20)
(0.925465 0.501068 -1.4384e-19)
(1.02873 0.46276 0)
(1.03793 0.555907 -7.52108e-21)
(0.823225 0.391319 -4.14859e-19)
(0.826576 0.374927 -4.80888e-19)
(0.779285 0.389728 3.25228e-19)
(0.773565 0.357178 -3.66146e-19)
(0.825785 0.308546 -2.72296e-19)
(0.779632 0.313062 3.34951e-19)
(1.02589 0.00518727 -1.81636e-19)
(1.02571 0.00510504 3.68698e-19)
(1.03113 -0.00084811 2.30981e-19)
(1.03205 -0.000163029 -2.79094e-19)
(1.03423 0.00252224 0)
(1.03088 0.00389618 -4.4958e-19)
(0.155873 1.7393 -7.68364e-20)
(0.156003 1.68398 0)
(0.147702 1.74535 -5.26384e-19)
(0.138082 1.72449 4.81284e-19)
(0.163202 1.56189 -2.91535e-19)
(0.236849 1.58192 0)
(-0.468515 2.01464 0)
(-0.42069 1.72268 3.4107e-20)
(-0.390109 1.69403 -3.09143e-20)
(-0.327399 1.82262 -1.1099e-20)
(-0.328754 2.02851 3.72704e-20)
(-0.384499 2.04691 -3.30995e-20)
(0.48244 1.38422 4.06524e-19)
(0.476823 1.38709 -4.3649e-19)
(0.435255 1.2763 4.10885e-19)
(0.426351 1.29653 -2.48799e-20)
(0.612976 1.27886 0)
(0.530819 1.37014 5.32872e-19)
(0.552982 1.39677 -5.17352e-19)
(0.443513 1.26118 -3.95369e-19)
(0.488569 1.21885 0)
(0.5421 1.17869 0)
(0.661354 2.45441 3.82929e-20)
(0.669386 2.4724 5.46156e-19)
(0.71986 2.489 -3.75444e-19)
(0.628261 2.47418 -1.21201e-19)
(0.567608 2.57159 1.00878e-19)
(0.515982 2.54178 -3.03385e-19)
(0.961549 2.37398 -1.81946e-19)
(1.00596 2.39653 0)
(0.899881 2.14565 -2.51737e-19)
(1.04431 2.70009 0)
(1.04542 2.68736 0)
(0.62488 2.29571 2.38205e-19)
(1.0463 3.17661 4.79686e-19)
(0.917855 3.04602 -4.25846e-19)
(0.295344 0.967076 0)
(0.350277 0.840384 -1.5724e-19)
(0.496254 0.791926 -7.25133e-20)
(0.408244 2.04548 0)
(0.474642 2.79343 -2.61357e-19)
(0.434925 2.55863 0)
(0.673798 0.662232 -3.24442e-19)
(0.743733 0.654577 4.13031e-19)
(0.771458 0.606412 -4.03005e-19)
(0.671129 0.631692 -4.77947e-20)
(0.720771 0.587131 -1.94431e-19)
(1.00666 2.78407 -3.64666e-19)
(1.03988 2.83935 2.82873e-19)
(0.651477 2.19275 5.91672e-20)
(0.606349 1.73955 -7.27274e-20)
(0.704353 1.92743 1.03077e-19)
(0.991029 2.46698 -6.96835e-20)
(0.993745 2.46466 -1.57337e-19)
(0.671659 1.87916 -4.79136e-21)
(0.457806 1.35241 -7.58304e-20)
)
;

boundaryField
{
    wall-4
    {
        type            noSlip;
    }
    velocity-inlet-5
    {
        type            fixedValue;
        value           uniform (1 0 0);
    }
    velocity-inlet-6
    {
        type            fixedValue;
        value           uniform (0 3 0);
    }
    pressure-outlet-7
    {
        type            zeroGradient;
    }
    wall-8
    {
        type            noSlip;
    }
    frontAndBackPlanes
    {
        type            empty;
    }
}


// ************************************************************************* //
