/*--------------------------------*- C++ -*----------------------------------*\
  =========                 |
  \\      /  F ield         | OpenFOAM: The Open Source CFD Toolbox
   \\    /   O peration     | Website:  https://openfoam.org
    \\  /    A nd           | Version:  9
     \\/     M anipulation  |
\*---------------------------------------------------------------------------*/
FoamFile
{
    format      ascii;
    class       volScalarField;
    location    "1.5";
    object      p;
}
// * * * * * * * * * * * * * * * * * * * * * * * * * * * * * * * * * * * * * //

dimensions      [0 2 -2 0 0 0 0];

internalField   nonuniform List<scalar> 
400
(
2.91468e-06
-0.00582502
-0.0129631
-0.0184156
-0.0204333
-0.0182397
-0.0117752
-0.00148494
0.0118362
0.0271481
0.0432435
0.0588222
0.0725779
0.0833078
0.0900522
0.0922664
0.0900253
0.0842433
0.07688
0.0710664
0.00578103
-0.000218297
-0.00580432
-0.00954316
-0.0105998
-0.00843374
-0.00297108
0.00547295
0.0163017
0.0287107
0.0417489
0.0543851
0.0655857
0.0744092
0.0801196
0.0823151
0.0810766
0.0770541
0.0712733
0.0653171
0.0133352
0.00503348
-0.000995713
-0.00442369
-0.00527367
-0.00326486
0.00160126
0.0090264
0.0185009
0.0293482
0.0407644
0.0518688
0.0617677
0.0696356
0.0748063
0.0768773
0.0758408
0.072085
0.0658046
0.0575346
0.0201394
0.0086957
0.00122542
-0.00266912
-0.00372283
-0.00188617
0.00273027
0.00978342
0.0187792
0.0290938
0.0399909
0.0506531
0.0602321
0.0679152
0.0730024
0.0750007
0.0737649
0.0694551
0.0616019
0.0501015
0.024502
0.00977286
0.00058932
-0.00398751
-0.00530293
-0.00350813
0.00117382
0.0083335
0.0174608
0.0279478
0.0390838
0.0500688
0.0600479
0.0681642
0.0736255
0.0757968
0.074368
0.0692887
0.0595244
0.0445359
0.0251778
0.00714979
-0.00380246
-0.00905779
-0.0105128
-0.00850073
-0.00335765
0.00442848
0.0143123
0.0256778
0.0378126
0.0499021
0.061047
0.0703021
0.0767337
0.0795159
0.0781379
0.0723325
0.0605381
0.0418888
0.0210933
-0.000262636
-0.0129349
-0.0187099
-0.0200305
-0.0174147
-0.0113192
-0.00232054
0.00898949
0.0219751
0.0359085
0.0499432
0.063111
0.0743442
0.0825209
0.0865685
0.0857197
0.079446
0.0656192
0.0430705
0.0111425
-0.0136186
-0.0278755
-0.0338548
-0.0346042
-0.0308582
-0.0232136
-0.012346
0.001104
0.016483
0.0330515
0.0499325
0.0660822
0.0802888
0.0911997
0.097429
0.0978693
0.0916351
0.0758952
0.0491153
-0.00596766
-0.0342669
-0.0498705
-0.0555491
-0.0550907
-0.0495153
-0.0395943
-0.0261141
-0.00975791
0.00882216
0.0289001
0.0495925
0.0697965
0.0881535
0.103046
0.1127
0.11555
0.110191
0.0928333
0.0614104
-0.0318578
-0.0638767
-0.0804175
-0.0850077
-0.0824207
-0.074079
-0.0609816
-0.0440374
-0.0239523
-0.0013377
0.0231448
0.0486602
0.0740947
0.0979713
0.118395
0.133125
0.139988
0.136817
0.11844
0.0819329
-0.0686681
-0.104604
-0.121345
-0.123591
-0.117516
-0.105127
-0.0877189
-0.0663262
-0.0416378
-0.0141564
0.0156048
0.0469524
0.078855
0.109793
0.137623
0.159585
0.172726
0.173777
0.15552
0.11357
-0.119403
-0.159358
-0.174915
-0.172758
-0.161148
-0.142929
-0.119759
-0.0927776
-0.0625781
-0.0294483
0.00637244
0.0444728
0.0840545
0.123702
0.161136
0.193085
0.215667
0.224076
0.20805
0.160632
-0.188629
-0.232242
-0.243939
-0.233948
-0.213695
-0.187155
-0.156373
-0.122501
-0.0858983
-0.0464726
-0.00401494
0.0415384
0.0898417
0.139829
0.189319
0.234689
0.271074
0.291664
0.281742
0.229775
-0.283975
-0.329305
-0.331832
-0.30828
-0.274709
-0.23644
-0.195764
-0.15361
-0.10984
-0.0637452
-0.014438
0.0388633
0.0965542
0.158276
0.222374
0.285288
0.341397
0.381575
0.384914
0.331834
-0.419318
-0.459671
-0.44235
-0.395792
-0.342129
-0.287739
-0.234615
-0.182929
-0.131609
-0.0789845
-0.0232135
0.0374757
0.104554
0.178838
0.259862
0.344971
0.428617
0.4997
0.529675
0.485392
-0.620531
-0.636743
-0.578676
-0.494192
-0.41124
-0.335657
-0.267779
-0.205977
-0.147535
-0.0893819
-0.028425
0.0383493
0.113808
0.200473
0.299976
0.412026
0.53303
0.651776
0.732772
0.722396
-0.935923
-0.878514
-0.74174
-0.597947
-0.474391
-0.372658
-0.288867
-0.217761
-0.153952
-0.0924625
-0.0287159
0.0416971
0.123265
0.220719
0.338927
0.482156
0.651998
0.841343
1.01527
1.0975
-1.47642
-1.20663
-0.920501
-0.691386
-0.517303
-0.387542
-0.290059
-0.213335
-0.148122
-0.0872139
-0.0245761
0.045459
0.128939
0.233072
0.367105
0.54268
0.771294
1.05932
1.40329
1.73014
-2.53965
-1.63055
-1.04444
-0.710957
-0.495749
-0.352091
-0.254529
-0.183581
-0.126167
-0.0735935
-0.0192675
0.0427884
0.119214
0.218784
0.354814
0.547985
0.826394
1.23658
1.91168
2.92419
-4.36666
-2.04463
-0.97354
-0.563179
-0.357844
-0.240145
-0.170117
-0.123781
-0.0874795
-0.0535086
-0.0166529
0.0276621
0.0846089
0.161731
0.272413
0.4421
0.71822
1.22571
2.41104
4.84853
)
;

boundaryField
{
    movingWall
    {
        type            zeroGradient;
    }
    fixedWalls
    {
        type            zeroGradient;
    }
    frontAndBack
    {
        type            empty;
    }
}


// ************************************************************************* //
