/*--------------------------------*- C++ -*----------------------------------*\
  =========                 |
  \\      /  F ield         | OpenFOAM: The Open Source CFD Toolbox
   \\    /   O peration     | Website:  https://openfoam.org
    \\  /    A nd           | Version:  9
     \\/     M anipulation  |
\*---------------------------------------------------------------------------*/
FoamFile
{
    format      ascii;
    class       volScalarField;
    location    "1";
    object      p;
}
// * * * * * * * * * * * * * * * * * * * * * * * * * * * * * * * * * * * * * //

dimensions      [0 2 -2 0 0 0 0];

internalField   nonuniform List<scalar> 
400
(
3.61642e-06
-0.00582384
-0.0129618
-0.0184143
-0.020432
-0.0182384
-0.0117738
-0.00148356
0.0118376
0.0271494
0.0432448
0.0588235
0.0725793
0.0833092
0.0900536
0.0922678
0.0900266
0.0842445
0.0768812
0.0710676
0.00578223
-0.000217014
-0.00580302
-0.00954187
-0.0105985
-0.00843244
-0.00296974
0.00547432
0.0163031
0.028712
0.0417502
0.0543864
0.065587
0.0744105
0.080121
0.0823165
0.081078
0.0770555
0.0712747
0.0653183
0.0133364
0.0050348
-0.00099438
-0.00442237
-0.00527239
-0.00326359
0.00160255
0.00902774
0.0185023
0.0293496
0.0407658
0.0518701
0.061769
0.0696369
0.0748076
0.0768787
0.0758422
0.0720865
0.065806
0.0575359
0.0201407
0.00869702
0.00122677
-0.00266776
-0.0037215
-0.00188489
0.00273152
0.0097847
0.0187805
0.0290952
0.0399923
0.0506544
0.0602334
0.0679164
0.0730037
0.0750019
0.0737663
0.0694565
0.0616033
0.0501028
0.0245033
0.00977416
0.00059066
-0.00398613
-0.00530155
-0.0035068
0.00117509
0.00833474
0.0174621
0.0279492
0.0390852
0.0500703
0.0600493
0.0681655
0.0736268
0.0757981
0.0743693
0.0692901
0.0595258
0.0445373
0.0251791
0.00715107
-0.00380116
-0.00905644
-0.0105114
-0.00849935
-0.00335632
0.00442974
0.0143135
0.0256791
0.0378139
0.0499035
0.0610484
0.0703035
0.076735
0.0795172
0.0781392
0.0723338
0.0605394
0.0418901
0.0210947
-0.000261348
-0.0129337
-0.0187086
-0.0200291
-0.0174132
-0.0113178
-0.00231921
0.00899075
0.0219764
0.0359098
0.0499445
0.0631124
0.0743456
0.0825222
0.0865698
0.085721
0.0794473
0.0656205
0.0430718
0.0111439
-0.0136172
-0.0278742
-0.0338535
-0.0346029
-0.0308568
-0.0232122
-0.0123446
0.00110534
0.0164842
0.0330528
0.0499338
0.0660836
0.0802902
0.0912011
0.0974304
0.0978706
0.0916364
0.0758965
0.0491167
-0.00596626
-0.0342656
-0.0498692
-0.0555479
-0.0550895
-0.049514
-0.0395929
-0.0261127
-0.00975651
0.0088235
0.0289014
0.0495938
0.0697977
0.0881548
0.103048
0.112702
0.115551
0.110192
0.0928346
0.0614117
-0.0318564
-0.0638754
-0.0804161
-0.0850064
-0.0824194
-0.0740777
-0.0609803
-0.044036
-0.0239509
-0.0013363
0.0231461
0.0486614
0.074096
0.0979726
0.118396
0.133126
0.139989
0.136819
0.118441
0.0819342
-0.0686668
-0.104603
-0.121344
-0.123589
-0.117515
-0.105126
-0.0877177
-0.0663249
-0.0416364
-0.014155
0.0156062
0.0469538
0.0788563
0.109794
0.137624
0.159586
0.172727
0.173779
0.155521
0.113571
-0.119402
-0.159356
-0.174914
-0.172756
-0.161147
-0.142928
-0.119758
-0.0927763
-0.0625768
-0.029447
0.00637384
0.0444742
0.0840559
0.123704
0.161137
0.193087
0.215669
0.224078
0.208051
0.160633
-0.188628
-0.232241
-0.243938
-0.233947
-0.213693
-0.187153
-0.156371
-0.1225
-0.085897
-0.0464713
-0.00401359
0.0415397
0.0898431
0.13983
0.18932
0.23469
0.271075
0.291665
0.281744
0.229777
-0.283973
-0.329304
-0.33183
-0.308279
-0.274707
-0.236438
-0.195763
-0.153609
-0.109839
-0.063744
-0.0144367
0.0388646
0.0965555
0.158278
0.222375
0.285289
0.341398
0.381576
0.384915
0.331835
-0.419317
-0.459669
-0.442349
-0.39579
-0.342127
-0.287738
-0.234614
-0.182928
-0.131607
-0.0789832
-0.0232123
0.037477
0.104555
0.178839
0.259863
0.344972
0.428618
0.499702
0.529677
0.485393
-0.62053
-0.636742
-0.578675
-0.494191
-0.411238
-0.335656
-0.267778
-0.205975
-0.147534
-0.0893806
-0.0284237
0.0383506
0.113809
0.200474
0.299977
0.412027
0.533032
0.651777
0.732774
0.722398
-0.935921
-0.878512
-0.741739
-0.597946
-0.47439
-0.372656
-0.288866
-0.21776
-0.153951
-0.0924611
-0.0287146
0.0416984
0.123266
0.220721
0.338929
0.482157
0.651999
0.841344
1.01527
1.09751
-1.47642
-1.20663
-0.9205
-0.691385
-0.517302
-0.387541
-0.290058
-0.213334
-0.148121
-0.0872125
-0.0245747
0.0454604
0.12894
0.233074
0.367106
0.542681
0.771296
1.05932
1.40329
1.73014
-2.53965
-1.63054
-1.04443
-0.710955
-0.495747
-0.35209
-0.254527
-0.18358
-0.126166
-0.0735922
-0.0192661
0.0427897
0.119215
0.218785
0.354815
0.547987
0.826396
1.23658
1.91168
2.9242
-4.36666
-2.04463
-0.973539
-0.563177
-0.357843
-0.240143
-0.170116
-0.12378
-0.0874782
-0.0535073
-0.0166516
0.0276634
0.0846102
0.161732
0.272414
0.442102
0.718222
1.22571
2.41104
4.84853
)
;

boundaryField
{
    movingWall
    {
        type            zeroGradient;
    }
    fixedWalls
    {
        type            zeroGradient;
    }
    frontAndBack
    {
        type            empty;
    }
}


// ************************************************************************* //
