/*--------------------------------*- C++ -*----------------------------------*\
  =========                 |
  \\      /  F ield         | OpenFOAM: The Open Source CFD Toolbox
   \\    /   O peration     | Website:  https://openfoam.org
    \\  /    A nd           | Version:  9
     \\/     M anipulation  |
\*---------------------------------------------------------------------------*/
FoamFile
{
    format      ascii;
    class       volScalarField;
    location    "45";
    object      p;
}
// * * * * * * * * * * * * * * * * * * * * * * * * * * * * * * * * * * * * * //

dimensions      [0 2 -2 0 0 0 0];

internalField   nonuniform List<scalar> 
918
(
0.56646
1.2133
0.00445086
0.565837
-0.00824875
1.18032
-0.489726
0.715085
0.546618
-0.0862931
-0.017495
0.543031
1.04108
0.807938
-1.11299
-0.00572457
0.668122
-0.368397
0.545674
-0.0285728
0.749501
0.553194
0.556224
0.546809
0.612083
0.784913
0.922298
0.0200267
0.00563787
0.00282361
-0.0128321
-0.0340366
-0.0273751
1.06395
1.11505
1.13775
0.514751
0.34285
-0.355956
-0.422885
-0.415554
-0.533425
0.709112
0.708342
-0.178153
0.717956
0.724129
0.533761
0.545982
0.546891
0.547953
0.546913
0.548305
0.42351
-0.0889453
-0.121254
-0.065585
-0.0577403
0.0758213
-0.0197805
-0.0212378
-0.0162071
-0.017127
0.46496
0.538462
0.53555
0.54828
0.557423
1.15285
1.12476
1.1509
1.06466
1.0811
1.01904
0.991663
0.827871
0.849743
0.794032
0.780233
-1.54984
-2.51001
-0.518316
-0.265044
-0.0161536
0.00215867
0.0141853
0.661436
0.660815
0.670049
0.679146
1.09443
-0.367016
-0.473291
0.545805
0.544605
0.552978
0.553674
0.549689
0.548782
-0.0266755
-0.0254479
-0.0254621
-0.0290455
-0.0283298
0.738511
0.736251
0.547346
0.544361
0.564106
0.585074
0.576806
0.292886
0.615423
0.628839
0.612203
0.775049
0.770102
0.778388
0.895897
0.8601
0.959194
0.982333
0.0167267
0.00167905
-0.00987489
-0.0154856
-0.0122243
0.510652
0.503312
0.529927
0.51813
0.520587
0.258651
0.123805
0.428484
0.453642
-0.270643
-0.331
-0.418636
-0.443679
-0.556303
0.614825
0.699651
0.697452
-0.194575
-0.120729
-0.250183
-0.0473657
-0.10817
0.524115
0.531061
0.526098
0.541551
0.536039
0.537993
0.550239
0.547318
0.548873
0.485904
0.609508
0.349917
0.315598
-0.22797
-0.13953
-0.23046
-0.0447198
-0.0387683
0.0900643
0.115958
0.0628463
0.0518889
-0.0326226
-0.0246454
-0.0288746
-0.0167028
-0.0206709
0.457858
0.44694
0.47744
0.484829
0.528202
0.529418
0.532893
0.531289
0.942369
0.964784
0.97236
0.946043
-3.50913
-6.30877
0.0630558
0.201048
-0.00487224
-0.00962311
0.00498043
-0.00832081
-0.00212197
-0.00328868
0.012017
0.00972718
0.0148053
0.0170649
0.651518
0.651568
1.01391
1.01598
0.993716
0.944623
0.533928
0.536033
0.541568
0.537432
-0.0207505
-0.0242126
-0.0237909
0.7258
0.732603
0.730601
0.255356
0.167707
0.342758
0.371076
0.643728
0.632201
0.642013
0.673709
0.711045
0.989763
1.00803
1.00622
1.01459
1.05855
1.07489
1.04036
0.490503
0.500262
0.495337
0.5331
0.530825
0.53175
0.527326
0.52878
0.526614
-0.0279132
-0.411089
0.503022
0.521403
0.502803
0.508289
0.69431
0.771577
0.680794
0.690068
0.687928
0.0196107
-0.038024
0.271759
0.238111
0.39869
0.434403
0.413731
0.913705
0.87387
0.924036
0.897263
0.858469
0.884516
-0.362727
-1.8732
-0.986403
0.554548
0.36683
0.455191
0.0338162
0.0148159
0.0219313
1.00886
1.08541
0.665398
0.835209
0.841505
0.745739
0.774773
0.834385
0.761446
0.795375
0.828145
0.805959
0.571804
0.515451
0.526757
0.841433
0.898036
0.139723
0.0817501
0.0375374
0.134963
0.191292
0.165967
1.04724
0.953812
1.02572
0.544112
0.544816
0.00515509
-0.00217434
0.549
0.549049
-0.0121758
-6.19003e-06
0.437499
-0.822367
0.123392
0.537505
0.527638
0.544629
-0.0684377
0.377669
-0.0187742
0.0724534
0.0135197
0.5408
0.475711
0.435757
0.00816632
-0.0114849
-0.0237931
-0.198016
0.541784
0.540092
0.5441
0.545067
0.545733
-0.00941791
-0.00311658
-0.00447625
-0.0252178
-0.0225712
-0.0284864
0.508975
0.527017
-0.153455
0.544242
0.546367
0.546192
0.539395
0.545051
0.543283
-0.00303389
-0.0109725
-0.0128833
0.238601
0.364911
0.681291
0.772186
0.651205
0.424508
0.186732
0.582187
0.646597
0.550747
0.706498
0.694922
0.711779
0.188831
0.0390626
0.196914
0.138634
0.535365
0.534054
0.525895
0.522922
0.539498
0.537608
0.542162
0.539157
0.542104
0.543499
-0.0269633
-0.0514157
-0.0645411
-0.131027
0.3338
0.594271
0.274424
0.304855
0.165314
-0.0138485
-0.0131035
-0.0170789
-0.0236296
0.0259494
-0.00130429
0.0667368
0.0673988
0.0358744
0.00931376
0.0176681
0.00451232
0.00930068
0.534029
0.532413
0.538753
0.547639
0.48513
0.488879
0.454435
0.47481
0.460262
0.400634
0.434983
0.410497
0.000636582
0.0114348
0.00194853
-0.00561838
0.00017912
-0.0182079
-0.0146059
-0.015786
-0.00910853
-0.0141437
-0.0197847
-0.0247439
-0.157713
-0.271862
1.00004
0.930911
0.141091
0.53097
0.537396
0.534175
0.53901
0.542135
0.542972
0.54071
0.537274
0.527489
0.529154
0.525744
0.52645
-0.0885992
-0.225507
-0.0546839
-0.125786
0.152681
0.63459
0.376694
0.314829
0.309243
0.534651
0.942129
0.732645
0.71496
0.733531
-0.328302
0.0668972
-0.261949
0.357334
0.180082
0.680367
0.728721
0.749438
0.698222
0.651104
-0.0975834
0.566278
-0.0503306
-0.00100137
0.197624
0.0808023
0.71534
0.678376
0.682444
0.701167
0.719224
0.684734
0.667598
0.662229
0.696675
0.700337
0.508953
0.269761
0.222716
0.184257
0.661358
0.546317
0.601613
0.513746
0.530424
0.533134
0.531734
0.513716
0.521198
0.5168
0.522979
0.526326
0.535212
0.535605
0.530965
0.533126
-0.0316745
-0.0345576
-0.00972003
-0.119667
-0.110085
-0.170182
-0.0464244
0.0927763
0.0561174
0.249749
0.35577
0.0683474
-0.0452497
-0.016391
0.0196151
0.194313
0.219843
0.0977503
0.185292
0.174234
0.157816
0.259337
0.264546
-0.00202454
-0.00580797
-0.00697012
-0.00961966
0.0429468
0.114378
0.124111
0.0175846
0.0130922
-0.0113569
-0.0134651
0.00191009
-0.00267481
0.000450198
0.0367594
-0.0395407
-0.00653276
0.00821987
0.0194753
0.0156411
0.0106517
0.52655
0.528765
0.528425
0.536059
0.553947
0.569995
0.527151
0.506983
0.497922
0.500906
0.474399
0.484562
0.480438
0.493841
0.514425
0.523566
0.521146
0.523824
0.506602
0.508245
0.495215
0.498816
0.474288
0.45541
0.443904
-0.0306521
0.00684197
0.00036989
-0.0281705
0.00155529
-0.0113842
0.00719194
0.0234603
0.0100304
0.00630437
-0.00319987
-0.012681
-0.010017
-0.0618615
0.0217457
-0.170635
-0.206021
-0.27542
0.903183
1.02455
0.825861
0.600658
0.61549
0.856762
0.943341
0.563155
0.749731
0.773743
0.58957
0.856581
0.535776
0.53539
0.532988
0.532466
0.533688
0.00162655
0.104124
0.110311
0.167728
0.284182
0.397471
0.320203
0.196044
0.328604
0.332425
0.627834
0.641325
0.596078
0.619117
0.619733
0.440153
0.516261
0.569511
0.525567
0.575501
0.596487
0.553873
0.585314
0.535244
0.490654
0.487191
0.436439
0.457527
0.434363
0.416242
0.525663
0.503239
0.513666
0.503861
0.523427
0.547564
0.544341
0.57659
0.587631
0.508001
0.464637
0.474493
0.504346
0.464856
0.479464
0.495389
0.235769
0.135648
0.220508
-0.0682813
0.00932442
-0.0052663
-0.0525383
-0.00544288
0.279898
-0.415309
-0.390216
-1.02162
0.507223
0.972656
0.666802
0.640099
0.716175
0.696791
0.701706
0.722017
0.726559
0.651818
0.668852
0.672106
0.634015
0.657137
0.679384
0.676346
0.536387
0.403826
0.398699
0.351985
0.22348
0.260098
0.461814
0.383658
0.308654
0.310178
0.474599
0.36128
0.430041
0.467516
0.398905
0.352905
0.557835
0.622612
0.612779
0.587505
0.50541
0.519921
0.544075
0.579784
0.606225
0.637717
0.522638
0.528448
0.529701
0.527226
0.524437
0.527413
0.527565
0.530096
0.53086
0.533803
0.532819
-0.019091
-0.0073368
-0.0211718
-0.0279444
0.00190951
-0.00258145
0.0416455
0.02759
0.0126454
0.0191042
-0.00754359
-0.0119728
-0.00670726
0.00265474
0.119136
0.132199
0.11612
0.0765321
0.263426
0.394215
0.465157
0.343062
0.236279
0.260238
0.282507
0.0112296
0.0379091
0.0249979
0.0645252
0.0563871
-0.00921045
-0.0133216
-0.0119323
-0.00537374
0.00510827
-0.0141483
-0.0205478
-0.0101551
-0.0152701
-0.0174707
-0.0224866
0.509191
0.502738
0.504253
0.498281
0.497024
0.511056
0.515295
0.517194
0.522552
0.524666
0.515051
0.520594
0.524259
0.00547593
-0.0185689
-0.022788
-0.00628026
-0.0126967
-0.0117168
-0.0101178
0.129969
0.0594438
0.0639043
0.0185728
-0.109802
-0.0523193
0.495192
0.493935
0.489022
0.725061
0.575308
0.494653
0.590898
0.696166
0.280564
0.479373
0.312413
0.896022
0.789393
0.935947
0.550057
0.249267
0.407925
0.457555
0.265093
0.337898
0.338678
0.225614
0.257986
0.291685
0.393515
0.271113
0.246238
0.00347766
0.19164
0.307858
0.288812
0.417168
0.479568
0.26769
0.188728
0.143355
0.618434
0.636089
0.652055
0.625663
0.647834
0.58595
0.574178
0.592343
0.602151
0.597875
-0.748839
-0.455696
-1.40067
-0.716362
-0.264507
0.538338
0.502926
0.778662
0.661134
0.719354
0.703668
0.660464
0.627368
0.643826
0.673248
0.366215
0.478164
0.452737
0.457787
0.358534
0.290129
0.592188
0.58622
0.621503
0.644993
0.613424
0.64512
0.520386
0.520053
0.519634
0.515956
0.514253
0.516526
0.0803606
0.049443
0.0841338
0.0649303
0.0423962
0.0310137
0.0147137
0.00533024
-0.00375458
-0.00512841
0.00842106
0.0144421
0.173004
0.113508
0.0358155
0.064877
0.00560806
-0.0612266
-0.079215
0.0217472
0.115365
0.105786
0.412122
0.664079
0.484422
0.652919
0.492672
0.548469
0.479222
0.471922
0.498707
0.386232
0.465552
0.242724
-0.264219
-0.172099
0.795316
0.811246
0.594073
0.411733
0.180829
0.36633
0.559431
0.492937
0.531045
0.600574
0.59086
0.0240735
0.0875097
0.357508
0.584795
0.24207
0.234012
0.228134
0.405915
0.327581
)
;

boundaryField
{
    wall-4
    {
        type            zeroGradient;
    }
    velocity-inlet-5
    {
        type            zeroGradient;
    }
    velocity-inlet-6
    {
        type            zeroGradient;
    }
    pressure-outlet-7
    {
        type            fixedValue;
        value           uniform 0;
    }
    wall-8
    {
        type            zeroGradient;
    }
    frontAndBackPlanes
    {
        type            empty;
    }
}


// ************************************************************************* //
