/*--------------------------------*- C++ -*----------------------------------*\
  =========                 |
  \\      /  F ield         | OpenFOAM: The Open Source CFD Toolbox
   \\    /   O peration     | Website:  https://openfoam.org
    \\  /    A nd           | Version:  9
     \\/     M anipulation  |
\*---------------------------------------------------------------------------*/
FoamFile
{
    format      ascii;
    class       surfaceScalarField;
    location    "45";
    object      phi;
}
// * * * * * * * * * * * * * * * * * * * * * * * * * * * * * * * * * * * * * //

dimensions      [0 3 -1 0 0 0 0];

internalField   nonuniform List<scalar> 
1300
(
3.75095
5.62643
-3.19283
3.75095
-7.68566
5.62643
-4.36372
4.36372
-0.748495
0.748495
1.8764
1.87455
-2.85038
2.85038
-2.32907
2.32907
-2.54688
2.54688
-5.24644
5.24644
-5.06827
5.06827
4.6637
-4.6637
-6.26783
6.26783
-1.0897
1.0897
-3.75728
3.75728
3.16973
-3.16973
-2.21197
2.21197
-0.164343
0.164343
-0.553501
4.30445
3.19745
3.19745
-2.0138
2.0138
-4.86603
4.86603
6.2181
-6.2181
5.1841
-5.1841
-1.99127
-2.36003
1.79106
-11.5828
-5.89459
-5.89459
-8.4404
8.4404
-2.81397
2.81246
2.94476
-2.94476
-1.78316
1.78316
-4.29846
-0.0652568
-4.29846
4.35903
0.00469399
4.35903
-0.831879
0.0833846
-0.831879
3.89973
-3.89973
0.632136
0.116359
0.632136
3.06507
-3.06507
-1.8771
3.75351
1.87385
-1.87187
6.17633
-1.87908
3.75363
-5.99036
5.99036
-3.07422
0.223844
-3.07422
2.66686
0.183524
2.66686
-6.82351
6.82351
-2.38077
0.0516985
-2.38077
2.28371
0.0453617
2.28371
2.87375
-2.87375
-2.65245
0.105573
-2.65245
2.43246
0.114417
2.43246
0.353541
5.27289
-5.97997
8.79243
-5.27289
0.0264526
5.20841
0.0380305
5.20841
-5.10585
0.0375737
-5.10585
5.01222
0.0560533
5.01222
4.75351
-0.0898073
4.75351
-4.77892
0.11522
-4.77892
-3.41359
-4.07642
-6.42514
0.157312
-6.42514
-1.12349
0.0337865
-1.12349
1.03412
0.0555828
1.03412
-3.65132
3.65132
-4.14938
0.392106
-4.14938
3.12414
0.0455875
3.12414
1.8685
1.88245
5.61945
-5.61945
2.44973
-2.18915
-0.0228211
-2.18915
-2.23587
-2.94823
2.23587
-0.0239012
-0.398494
0.234152
-0.398494
3.15934
0.0381084
3.15934
2.27181
0.160651
-2.27181
0.258012
3.24928
-3.24928
1.35098
0.662815
1.35098
-5.56606
5.56606
4.95451
0.0577047
-4.95451
0.0884839
6.15635
0.0617483
6.15635
-6.19951
-0.0185862
-6.19951
2.62927
-4.9893
-2.55677
6.08018
0.187654
-6.08018
0.185583
2.91572
0.0290445
2.91572
-2.92022
2.92022
-2.98381
0.0390533
-2.98381
-2.18351
0.400349
-2.18351
1.48249
0.300677
1.48249
-4.17256
-0.125901
-4.17256
-4.2755
0.126119
4.2755
0.0835227
1.10746
-1.10746
-0.931856
0.0999771
-0.931856
-4.02333
-0.149231
4.02333
-0.1236
-3.80041
-0.0993192
-3.80041
-3.02398
0.0401699
3.02398
0.0410857
3.11272
0.0466271
-3.11272
0.0476478
-1.87083
3.75328
-1.88013
3.75398
-5.60836
-0.382
-5.60836
6.30116
-0.310795
6.30116
3.43237
0.324905
-3.43237
0.358148
2.53475
0.132103
2.53475
-6.78498
-0.038529
-6.78498
6.80815
0.015361
6.80815
2.43911
0.0956438
-2.43911
0.0583383
2.23168
0.0520268
2.23168
2.89116
-0.0174116
2.89116
-2.87004
-0.0037089
-2.87004
2.79785
-2.79785
2.72918
0.0686748
-2.72918
0.076723
-11.133
11.1144
-0.0351973
-11.0978
5.17321
5.17321
4.1833
0.570209
4.1833
-4.99432
0.215403
-4.99432
2.73479
-5.29157
3.05738
-6.47097
4.69188
-16.2747
4.33174
-8.40816
6.67251
-6.67251
6.56037
0.112137
-6.56037
0.135231
-1.20197
0.0784806
-1.20197
-3.04615
-0.605173
-3.04615
4.2992
-0.647877
4.2992
-3.02861
3.02861
-3.07774
0.0491334
3.07774
0.046398
2.18467
0.0470183
-2.18467
-0.00448125
0.514948
0.117188
-0.514948
0.116454
3.4503
-0.201014
3.4503
-3.05832
-0.190963
-3.05832
-1.27877
0.076799
1.27877
0.0722138
-5.81551
0.249447
-5.81551
-11.1908
0.0929567
-11.1527
-6.10655
-6.10655
2.33385
11.1263
-2.88977
0.0197284
2.88977
0.0259503
2.9756
0.0530081
-2.9756
0.0553807
-2.86148
0.0636283
2.86148
0.0587397
-2.55963
0.376118
-2.55963
-1.073
1.073
-1.24525
0.172244
1.24525
0.23724
1.37048
-0.263023
1.37048
0.990441
0.0436813
-0.990441
0.0585843
-3.71724
-0.0831726
-3.71724
6.53463
-0.233476
6.53463
-2.94932
-0.109004
2.94932
-0.0581582
-0.0333336
11.1478
-5.13988
0.0340303
5.13988
-11.2095
11.2435
-3.23186
0.672225
3.23186
0.951442
5.28627
0.279787
-5.28627
0.291949
6.75806
0.0500942
-6.75806
0.085546
-2.55395
-0.492201
-2.55395
-5.02584
-0.582528
5.02584
-0.726636
-11.4754
-0.202584
11.678
-11.4194
6.01809
0.138256
-6.01809
11.3818
-1.01905
-0.0884048
1.01905
0.053951
1.69485
-0.324369
1.69485
3.63169
-0.181397
-3.63169
-0.085548
-6.68847
-0.0965147
6.68847
-0.153835
-2.11041
-0.44354
2.11041
-0.41556
-4.26703
4.30514
1.9093
-2.45902
-2.53028
-5.40725
1.85191
1.90137
4.30164
-10.2108
-6.06385
-10.0252
7.26386
-6.97191
-9.26185
9.17204
7.76756
-7.86688
-5.78514
5.83154
6.48244
-6.44135
1.87877
1.87474
7.94535
-7.72151
-15.6368
15.2548
7.48209
-7.43039
15.7831
-15.8216
-17.8835
17.9336
-5.70574
5.81131
-6.7311
6.72739
-6.95748
6.89933
-2.87024
-3.60073
13.1849
-13.0276
8.44521
-8.46803
-8.5535
8.9456
3.3825
0.922643
3.42912
-1.88226
3.76103
-1.87137
3.78067
2.67998
-5.55021
2.61159
-5.14187
4.22403
4.22117
-4.20013
-1.20712
-5.92184
5.95089
-5.81835
5.87709
9.00298
-9.06824
-1.88513
3.75986
-1.86885
3.77022
-3.42507
-2.36007
3.37948
0.922154
8.11314
5.07174
-8.3008
-1.72443
-7.97495
7.79355
-8.19546
8.0045
-0.437414
5.81892
-5.3815
4.42862
-1.55897
7.37789
5.7049
5.9203
5.86638
-5.58659
1.10554
-6.48704
-6.39856
-2.42186
2.52183
2.36442
-2.24806
6.03664
1.73092
5.91304
-5.69711
-2.16977
-5.78028
3.82094
2.01059
3.87008
4.07758
2.40486
4.11775
3.03067
-3.03572
0.00505074
-3.05645
6.08712
0.724143
-5.41652
-4.49437
4.96226
2.98309
5.14578
-5.50661
-2.21489
-5.14846
-9.54923
-6.08761
-10.1318
10.0957
5.15914
9.7849
-11.9684
11.8146
4.77552
2.70657
4.82088
-4.9081
-2.52229
-4.84976
11.6214
-2.6131
-9.00832
-10.3343
-7.5492
10.319
5.46413
10.9903
6.94333
11.0759
4.43105
7.19037
-9.89518
2.34598
-3.86353
-1.84221
-3.78681
3.67681
2.13451
3.79123
-4.21464
-2.51646
-4.19491
-4.28995
-2.66753
4.30736
2.42003
-4.40597
-3.78949
4.51498
2.38435
4.0565
-10.1203
4.35166
-7.95239
-9.23823
-3.78934
-9.103
3.47374
2.63061
-6.10435
-2.07648
8.42547
-4.20429
7.21834
-5.14805
-3.31998
-5.15253
-6.81605
-1.73744
-6.68993
-8.89139
8.39919
-9.1892
8.54132
12.6006
-5.67476
-6.92584
-3.96826
-2.47309
3.92061
-0.491487
-3.71088
3.71594
0.0501442
3.83081
4.75345
4.26197
-3.88604
-1.93231
-3.83066
3.82929
2.0478
3.89292
6.7767
2.22629
6.78139
-6.49494
-2.5733
-6.62084
9.06962
-8.66927
2.89492
-2.81812
5.35582
2.64868
-5.15481
-2.82014
6.20334
-3.19334
-3.00999
-12.2027
10.5472
1.65543
-4.82478
-0.396166
-0.231824
-5.49503
-3.76682
5.37981
0.540491
11.0877
7.32091
-5.51231
5.76176
6.16568
6.22339
-0.175169
5.82894
-5.15671
5.32409
-2.5201
-2.80399
5.36903
-5.51827
-1.2518
-5.43133
4.17953
0.394773
1.6498
-1.41565
-1.88104
-0.540815
-1.82246
1.42273
0.941686
1.53992
0.922477
1.59936
-2.93908
0.565317
2.37377
-2.01661
-1.68274
-3.7109
-1.1317
4.8426
5.67521
2.11834
-5.58966
-0.190617
2.609
-2.55341
-0.720887
-2.99002
2.20289
-2.92377
-3.66799
-1.96099
5.62898
-3.37035
-0.460302
3.31735
0.55273
-3.82637
-2.09547
3.78732
0.330428
-3.12624
6.19048
-3.06424
-5.05855
2.52823
3.55889
4.53882
-4.78975
2.44687
2.34287
-1.23086
4.24392
0.901862
4.37602
-6.83078
4.61589
5.76915
3.17645
-6.09405
0.94559
-5.88519
8.49989
-7.31266
-1.18722
4.11366
4.38623
7.11163
5.48897
-5.70385
12.8155
-1.16114
-6.15152
7.04633
-3.86988
4.79561
-8.66549
-10.2846
4.13306
-9.16229
10.9375
-1.7752
-3.62579
-8.3426
12.7881
-1.20882
-11.5793
8.57608
-4.19077
-4.28338
8.47414
-6.80386
6.80567
-1.9668
-4.83887
-10.1132
-5.70846
10.2097
1.60486
-9.85686
12.2028
-2.66649
4.09046
0.730427
4.14248
3.25572
-5.43014
2.17442
3.54814
-5.51495
2.07154
-7.50168
-6.7496
12.0948
-5.34522
-10.5389
-9.54374
-0.995205
2.54432
9.65852
-9.48765
7.45874
2.02891
3.30657
0.586352
-3.37524
-0.411566
0.238587
4.53704
-4.77563
4.02981
4.19046
3.32203
1.21501
3.8426
2.10829
-3.86855
-0.326361
-4.157
1.48947
-1.73697
-3.68111
5.17058
-4.06581
0.384701
-2.74052
-3.50499
6.24552
-4.58273
3.03798
3.1525
5.08577
-4.9124
1.40741
-2.39709
-2.51531
2.6584
-4.39537
1.97953
3.19105
4.36388
0.57439
5.88283
6.21199
-8.51344
0.561046
11.2837
-9.5593
2.4664
8.60946
-9.92514
0.381399
-8.7216
1.00816
-5.21245
-5.09619
5.12236
-6.8598
-3.54313
6.16896
0.61243
-6.25249
-0.437449
-6.04112
-2.85027
-6.48466
-3.05009
-6.13911
-8.75394
-1.65491
-7.09904
6.74428
-6.68703
-3.44472
7.41367
1.12766
-7.42028
7.33188
-7.49876
7.17439
0.0950833
3.62085
4.35705
1.88396
-2.38999
4.27396
-5.11851
7.3448
-8.66254
3.54403
4.11788
-6.69118
-4.54466
5.03766
4.03196
5.33833
8.92829
-10.4229
1.49463
-10.7263
12.0553
-1.32895
-16.5047
5.77842
-7.57644
2.5478
0.347119
2.62628
0.586481
2.49408
-3.08056
-2.23164
-2.15942
-2.39798
-3.46053
5.85852
1.13023
-3.47423
2.344
-3.5547
4.68493
-0.146721
-3.3275
5.29947
-2.8054
5.64659
-3.70142
1.94517
3.39794
5.72549
-2.32755
4.3895
-1.74082
1.89117
-4.21872
-1.56936
-2.9645
5.09901
-3.28101
3.66571
-0.32338
3.98909
-4.08184
0.888498
-0.759807
3.43066
3.68867
4.295
-3.08
2.93371
-4.67454
-1.28501
-4.10015
-0.909098
-0.28522
-3.7602
4.04542
6.02771
-6.31293
-5.25088
9.5582
-4.30732
7.7151
-5.39613
-2.31897
-4.2692
-4.40007
3.89309
1.93585
9.65095
0.211706
-5.60783
-4.94501
-3.99356
3.18125
2.14284
-1.87083
3.52627
2.10266
-0.452856
0.505974
1.03395
1.82943
-1.32345
0.265251
1.56418
-1.1504
1.87296
0.736034
-1.91664
0.0941871
-1.30452
3.50741
1.06924
-2.01093
0.687474
1.00843
-3.52853
4.95807
-2.61889
-2.33918
5.9665
1.13753
-3.75642
4.2938
-3.89903
2.34158
-3.47327
-1.41485
-5.31388
-3.58295
-2.53854
4.88254
-3.31998
5.43832
1.21455
-5.2477
6.46225
-3.65513
1.69414
-3.08163
3.81766
-1.0298
-2.05182
2.86674
2.76224
-2.99152
0.0015052
-0.124786
2.3674
-2.49219
-0.556376
-2.57298
-4.57238
4.90281
-2.10643
4.55331
2.16752
-1.91557
6.46888
1.81028
-3.72585
-3.24827
-3.70857
-1.38298
3.15584
-0.594744
-4.25502
-5.43361
4.15938
0.216648
-6.94819
7.75851
-0.810322
-3.96509
-0.650792
4.76445
-5.99557
0.480627
-3.92404
3.83447
4.73633
4.95298
-11.3754
-0.203817
-6.2163
1.14034
-7.35664
5.52657
-3.57638
7.70944
-10.3668
6.92204
-9.2391
6.52221
-0.834425
6.24324
-4.06882
2.76508
-8.47354
-6.86868
5.43451
-2.72794
6.16494
-3.07971
9.24465
-5.7462
5.19315
4.0515
-0.980862
-4.17167
-5.21098
4.23012
-0.0178331
4.12465
4.97699
-2.86871
4.65063
2.2612
-4.65829
-2.13417
-6.49577
1.83748
-3.34327
-1.91808
3.75556
3.16769
3.75405
1.24025
-3.34248
7.16575
-8.16095
-1.82053
-3.27566
5.18669
-0.956568
3.34574
-6.6214
-1.86671
4.8444
-0.8028
-4.0416
0.830364
-4.37349
1.6774
-6.0509
5.1824
-5.61985
2.21802
-9.79446
-5.20226
-5.14831
-2.25688
-5.24188
-7.6054
5.34852
-1.82697
5.5049
-8.56402
7.76122
-3.49124
8.83976
-5.43563
-1.04904
5.85119
1.32321
10.163
0.185038
-4.72969
-1.9064
3.94156
-2.03516
1.27484
-3.57516
0.3664
2.47888
3.48762
-6.65841
-0.0327697
-4.76246
-3.92534
7.95731
5.63286
11.6606
1.23765
9.14633
-1.18902
10.384
4.14931
4.38655
-3.02985
4.52448
1.01556
4.55959
-0.883135
2.82831
1.74314
1.77693
0.776483
2.31026
1.37841
3.19876
0.118203
-2.04122
4.63156
-8.62513
-0.97627
-8.05492
1.11712
5.72006
-4.60294
3.07731
-0.934468
1.04215
0.0173897
-1.49449
1.4771
-2.7866
-1.94735
-0.383172
-1.65404
2.34151
1.85338
-1.95834
-0.828262
0.370608
-3.95356
3.10266
-3.10116
-0.338915
6.12333
-2.78386
0.291676
-1.08973
-2.28131
-2.82212
2.72793
6.17662
0.292265
3.11238
5.19508
3.0996
0.230897
3.90236
-5.67756
-3.59932
-5.88138
-0.354811
4.40964
1.71615
7.94236
5.76765
4.81108
-1.81032
-9.97127
6.56114
-2.03666
5.23219
-1.19059
-4.8603
5.01983
2.32497
-5.63226
0.0124093
-4.84789
-6.88456
-0.522868
8.28409
-9.64009
8.59106
5.74079
1.35825
-4.41598
-0.73233
4.24374
0.142809
10.5268
-1.12559
-6.78687
7.91246
-4.59447
3.6182
0.803172
2.72309
2.28027
1.34581
-5.44106
-10.044
-1.99113
-1.5374
-4.33031
0.512287
-2.36566
6.24465
-2.62645
3.92568
5.28601
6.32816
-2.14794
-4.16498
6.45526
-2.52958
3.79858
)
;

boundaryField
{
    wall-4
    {
        type            calculated;
        value           uniform 0;
    }
    velocity-inlet-5
    {
        type            calculated;
        value           uniform -3.75095;
    }
    velocity-inlet-6
    {
        type            calculated;
        value           uniform -5.62643;
    }
    pressure-outlet-7
    {
        type            calculated;
        value           nonuniform List<scalar> 8(3.19283 7.68566 4.3513 9.79172 7.49 5.18604 5.79217 9.02362);
    }
    wall-8
    {
        type            calculated;
        value           uniform 0;
    }
    frontAndBackPlanes
    {
        type            empty;
        value           nonuniform List<scalar> 0();
    }
}


// ************************************************************************* //
