/*--------------------------------*- C++ -*----------------------------------*\
  =========                 |
  \\      /  F ield         | OpenFOAM: The Open Source CFD Toolbox
   \\    /   O peration     | Website:  https://openfoam.org
    \\  /    A nd           | Version:  9
     \\/     M anipulation  |
\*---------------------------------------------------------------------------*/
FoamFile
{
    format      ascii;
    class       volScalarField;
    location    "14";
    object      p;
}
// * * * * * * * * * * * * * * * * * * * * * * * * * * * * * * * * * * * * * //

dimensions      [0 2 -2 0 0 0 0];

internalField   nonuniform List<scalar> 
8800
(
0.403271
0.355243
0.316905
0.288315
0.267757
0.253085
0.242563
0.235118
0.230291
0.228145
0.229193
0.233116
0.239511
0.248599
0.261146
0.278577
0.302908
0.336438
0.378823
0.435928
0.235725
0.24295
0.251431
0.254909
0.253068
0.247634
0.241014
0.234939
0.23024
0.227351
0.226911
0.229146
0.233353
0.239066
0.245735
0.252156
0.256133
0.255508
0.24935
0.240311
0.212257
0.218484
0.222792
0.226279
0.228913
0.229855
0.228899
0.22687
0.224841
0.223789
0.224534
0.226636
0.229131
0.231006
0.231242
0.229469
0.22641
0.222597
0.217942
0.214141
0.206961
0.209714
0.212618
0.215144
0.216989
0.21848
0.21951
0.219785
0.21953
0.219369
0.219853
0.22066
0.221099
0.220705
0.219589
0.218083
0.216027
0.213247
0.210646
0.209113
0.201637
0.203092
0.205158
0.207534
0.209565
0.211071
0.212225
0.213193
0.213926
0.214452
0.214746
0.214725
0.214318
0.213587
0.212522
0.210918
0.208789
0.206508
0.204961
0.204167
0.196709
0.197638
0.199279
0.201384
0.203555
0.205565
0.207176
0.208352
0.209237
0.209889
0.210256
0.210215
0.209741
0.208747
0.207182
0.205254
0.203225
0.201345
0.20023
0.19975
0.192441
0.193009
0.194444
0.196365
0.198263
0.200095
0.201874
0.203459
0.204701
0.205589
0.205995
0.205821
0.205056
0.20384
0.202368
0.200743
0.198953
0.19727
0.196392
0.196147
0.189802
0.190113
0.191149
0.192655
0.194196
0.195671
0.19708
0.198446
0.199737
0.200797
0.201314
0.201216
0.200708
0.199911
0.198887
0.197652
0.196297
0.195071
0.194499
0.194389
0.188071
0.188255
0.188863
0.189831
0.190959
0.192269
0.193674
0.195096
0.19644
0.197608
0.19831
0.198419
0.198049
0.197342
0.196485
0.195641
0.194821
0.194152
0.193844
0.193778
0.185901
0.186015
0.186347
0.186875
0.187621
0.18853
0.189588
0.190836
0.19219
0.193503
0.194425
0.194792
0.194771
0.194563
0.194226
0.193845
0.19353
0.193255
0.193107
0.193058
0.182954
0.183031
0.1833
0.183773
0.184373
0.185168
0.186234
0.187494
0.18892
0.190423
0.191639
0.192331
0.192598
0.192593
0.192502
0.192374
0.192203
0.192038
0.191954
0.191921
0.179474
0.179518
0.179751
0.180216
0.180845
0.181547
0.182593
0.183895
0.185462
0.187232
0.188796
0.189839
0.190437
0.190751
0.190929
0.190958
0.190863
0.190765
0.190732
0.190715
0.17567
0.175698
0.175903
0.176349
0.176955
0.177854
0.178909
0.180312
0.182083
0.184192
0.186204
0.187689
0.188673
0.189289
0.189567
0.189768
0.189787
0.189772
0.189782
0.189771
0.171532
0.17156
0.171752
0.172193
0.172846
0.173747
0.174964
0.176586
0.178687
0.181268
0.183829
0.185801
0.187171
0.188081
0.188641
0.188963
0.189114
0.189192
0.189234
0.189223
0.166906
0.166933
0.167139
0.167581
0.16828
0.16929
0.170702
0.172629
0.175174
0.178369
0.181615
0.184174
0.185998
0.187241
0.188059
0.188569
0.18887
0.189039
0.189109
0.189096
0.161617
0.161644
0.161888
0.16237
0.16317
0.164355
0.166047
0.168393
0.171531
0.175515
0.179603
0.182853
0.185222
0.186864
0.187966
0.18868
0.189124
0.189376
0.189473
0.189458
0.155485
0.155519
0.155805
0.156401
0.157358
0.158796
0.160871
0.163776
0.167687
0.172677
0.177825
0.181954
0.18496
0.187052
0.188471
0.189404
0.189994
0.190328
0.190453
0.190435
0.148288
0.148328
0.148684
0.14943
0.15064
0.152422
0.155021
0.158671
0.163582
0.169849
0.176314
0.181502
0.185267
0.187905
0.189702
0.190888
0.19164
0.192064
0.192221
0.192198
0.139743
0.139796
0.140258
0.141204
0.142738
0.145019
0.148326
0.152945
0.159145
0.167025
0.175118
0.181592
0.186286
0.189579
0.191825
0.193314
0.19426
0.194795
0.194985
0.194952
0.129477
0.129551
0.130149
0.131373
0.133357
0.136311
0.140544
0.146438
0.154304
0.164217
0.174317
0.182354
0.188171
0.192252
0.195041
0.196892
0.198063
0.198721
0.198962
0.198921
0.116939
0.117044
0.117832
0.11945
0.122061
0.125905
0.131404
0.139001
0.149011
0.161466
0.174017
0.183941
0.191109
0.196138
0.199583
0.201881
0.203341
0.204153
0.204443
0.204389
0.101342
0.101485
0.10255
0.104752
0.10826
0.113379
0.12063
0.130483
0.14324
0.158843
0.174351
0.186523
0.195301
0.201472
0.205714
0.208558
0.210374
0.211372
0.211728
0.211661
0.0815054
0.0817074
0.0832112
0.0863131
0.0911663
0.0981471
0.107839
0.120716
0.136998
0.15646
0.175474
0.19028
0.200957
0.208497
0.213716
0.217244
0.219518
0.220773
0.221202
0.221115
0.0556281
0.0559481
0.0581965
0.0627672
0.0697428
0.0795208
0.0927017
0.10965
0.130388
0.154479
0.177552
0.195374
0.208252
0.217426
0.223855
0.228263
0.23114
0.232739
0.23328
0.233162
0.0205585
0.0211491
0.0249113
0.0322493
0.0428304
0.0569867
0.0751643
0.0974683
0.123673
0.153146
0.180768
0.201937
0.217295
0.228381
0.236306
0.241878
0.245601
0.247687
0.248371
0.248209
-0.0298504
-0.0280374
-0.0203296
-0.007284
0.00961326
0.0305312
0.0555902
0.0846458
0.117283
0.152755
0.185274
0.210011
0.228062
0.241307
0.251038
0.258135
0.263096
0.266014
0.266969
0.26674
-0.105259
-0.0955059
-0.0779686
-0.0547809
-0.0283997
0.00147067
0.0349176
0.0717508
0.111539
0.153574
0.191462
0.220213
0.241431
0.257367
0.269515
0.278908
0.285981
0.290568
0.292338
0.292419
-0.185296
-0.1642
-0.136162
-0.102617
-0.0665544
-0.0276463
0.0142316
0.0589887
0.106309
0.155629
0.199907
0.233749
0.259137
0.278684
0.294094
0.306477
0.316388
0.324165
0.327552
0.32781
-0.248935
-0.225159
-0.188819
-0.147043
-0.10248
-0.055197
-0.00531078
0.0470477
0.101579
0.15776
0.207856
0.246094
0.274873
0.297168
0.314856
0.329123
0.340529
0.349296
0.352474
0.352974
-0.30006
-0.274086
-0.23313
-0.185479
-0.134397
-0.0803305
-0.0235418
0.0356432
0.0967609
0.159188
0.214414
0.25625
0.287479
0.311435
0.33021
0.345203
0.3571
0.365855
0.369423
0.369937
-0.341487
-0.314776
-0.270401
-0.218382
-0.162271
-0.10275
-0.0402055
0.0248499
0.0917978
0.159807
0.219468
0.264184
0.29717
0.32216
0.341507
0.356758
0.368721
0.377365
0.381135
0.381661
-0.37661
-0.349528
-0.302736
-0.247187
-0.187005
-0.122964
-0.0555353
0.0146475
0.0867779
0.159805
0.223504
0.270807
0.305292
0.331077
0.350752
0.366017
0.377864
0.386332
0.390209
0.390726
-0.407411
-0.38019
-0.331557
-0.27316
-0.209533
-0.14158
-0.0698823
0.00485514
0.0817137
0.159443
0.22692
0.276582
0.312391
0.338835
0.358766
0.374052
0.38582
0.394119
0.397999
0.398521
-0.435352
-0.408007
-0.357888
-0.297076
-0.230531
-0.1592
-0.0837122
-0.00484435
0.0763687
0.158473
0.229568
0.281606
0.318798
0.34598
0.366247
0.381626
0.393334
0.401486
0.405335
0.405867
-0.461245
-0.433785
-0.382414
-0.319548
-0.250494
-0.176214
-0.0973646
-0.014784
0.0704527
0.156815
0.231616
0.286169
0.324884
0.352922
0.373614
0.389157
0.400874
0.408919
0.412674
0.413271
-0.485789
-0.458158
-0.405639
-0.340991
-0.269734
-0.192856
-0.111032
-0.0250626
0.0639805
0.1545
0.23307
0.290323
0.330776
0.359851
0.381108
0.396911
0.408693
0.416669
0.420309
0.420916
-0.509254
-0.481361
-0.427859
-0.36174
-0.288508
-0.209324
-0.124812
-0.0357373
0.0568473
0.151381
0.233834
0.294053
0.336532
0.366885
0.388885
0.405074
0.417001
0.42494
0.428442
0.429009
-0.53197
-0.50373
-0.449375
-0.381918
-0.306936
-0.225716
-0.138812
-0.046946
0.0489237
0.147365
0.23381
0.297287
0.34212
0.374048
0.397009
0.413729
0.425892
0.43385
0.437206
0.437683
-0.553961
-0.525405
-0.470421
-0.401613
-0.325104
-0.242111
-0.153096
-0.0587138
0.0401912
0.142376
0.232872
0.299888
0.347434
0.381277
0.405477
0.422924
0.43544
0.443458
0.446697
0.447016
-0.5753
-0.54635
-0.490838
-0.420861
-0.343043
-0.258498
-0.167629
-0.071017
0.0306315
0.136336
0.230872
0.301673
0.35232
0.388476
0.414243
0.432647
0.445653
0.453772
0.456898
0.457039
-0.596072
-0.566826
-0.510627
-0.439671
-0.360731
-0.274832
-0.182367
-0.0838202
0.0202635
0.129209
0.227683
0.302429
0.356585
0.395518
0.423231
0.442842
0.456471
0.464702
0.467699
0.467668
-0.616326
-0.58666
-0.529836
-0.458031
-0.378117
-0.291077
-0.197255
-0.0970614
0.00913601
0.120977
0.22319
0.301931
0.359916
0.402147
0.432313
0.453462
0.467831
0.476154
0.478906
0.478721
-0.63589
-0.605828
-0.548437
-0.475905
-0.395158
-0.307156
-0.212216
-0.110646
-0.00267324
0.111685
0.217304
0.299965
0.361961
0.408004
0.441303
0.464484
0.479705
0.487972
0.490373
0.490014
-0.65473
-0.624321
-0.566407
-0.493235
-0.411791
-0.323
-0.227149
-0.124481
-0.0150625
0.101391
0.21
0.296347
0.362383
0.412648
0.44991
0.475987
0.492298
0.500061
0.501735
0.501196
-0.67291
-0.642069
-0.583719
-0.509989
-0.427953
-0.338531
-0.241964
-0.138452
-0.0279169
0.0901936
0.201286
0.290949
0.360836
0.415464
0.457544
0.487954
0.506327
0.512915
0.512644
0.511839
-0.690278
-0.659096
-0.600323
-0.526107
-0.443595
-0.353674
-0.256571
-0.152443
-0.0411021
0.0782341
0.191229
0.283699
0.357036
0.415724
0.463123
0.499741
0.522856
0.52919
0.524454
0.521816
-0.706929
-0.675404
-0.616243
-0.541617
-0.458749
-0.368474
-0.271023
-0.166515
-0.0546809
0.0654485
0.17973
0.274368
0.350693
0.412622
0.464958
0.509285
0.541143
0.553933
0.546352
0.528998
-0.722817
-0.69098
-0.631604
-0.556686
-0.473685
-0.383239
-0.285705
-0.181128
-0.0691862
0.051175
0.166073
0.262041
0.340936
0.404924
0.459804
0.510902
0.550677
0.565115
0.551028
0.530498
-0.737814
-0.705925
-0.646256
-0.57109
-0.488167
-0.397662
-0.300404
-0.195956
-0.084283
0.0357542
0.150509
0.246621
0.327414
0.392386
0.443614
0.49404
0.529373
0.530203
0.463003
0.421282
-0.751532
-0.721223
-0.659781
-0.584258
-0.501551
-0.411286
-0.314854
-0.210767
-0.0997287
0.0193849
0.133124
0.228105
0.309488
0.376011
0.417203
0.447952
0.467169
0.425693
0.349905
0.301332
-0.798017
-0.734467
-0.671951
-0.597452
-0.514938
-0.42525
-0.329048
-0.225747
-0.115772
0.00177959
0.113555
0.206332
0.285106
0.356977
0.372909
0.376021
0.349646
0.284452
0.198034
0.150715
-0.761744
-0.746517
-0.68918
-0.616718
-0.534318
-0.445375
-0.350433
-0.248506
-0.140557
-0.0261086
0.0810478
0.1689
0.23879
0.300227
0.307062
0.186814
0.0716382
-0.00836925
-0.0915592
-0.0429659
-0.789341
-0.761322
-0.703723
-0.631023
-0.549309
-0.460959
-0.366234
-0.265403
-0.159111
-0.0473541
0.0556459
0.138101
0.200265
0.231206
0.177339
0.0100684
-0.140951
-0.248223
-0.366452
-0.288976
-0.809522
-0.778644
-0.720238
-0.647227
-0.565833
-0.477854
-0.383633
-0.284059
-0.179709
-0.0711835
0.0269476
0.102554
0.154366
0.155251
0.0327547
-0.187162
-0.374699
-0.519538
-0.687871
-0.615604
-0.828574
-0.796508
-0.737188
-0.663649
-0.58233
-0.494722
-0.40134
-0.303124
-0.2009
-0.0959782
-0.00344089
0.0645886
0.102244
0.0639073
-0.132576
-0.390558
-0.632178
-0.850426
-1.09478
-1.06462
-0.846378
-0.814371
-0.754533
-0.680536
-0.599299
-0.512129
-0.419681
-0.322907
-0.22302
-0.121969
-0.0355051
0.0244737
0.0445273
-0.039507
-0.293361
-0.582806
-0.876175
-1.13245
-1.47561
-1.79515
-0.863962
-0.832328
-0.772448
-0.698207
-0.617074
-0.53032
-0.43874
-0.343421
-0.245896
-0.14878
-0.0685617
-0.0170571
-0.0152413
-0.152072
-0.438311
-0.739018
-1.04625
-1.29068
-1.41936
-1.6492
-0.881915
-0.850669
-0.791012
-0.716881
-0.63596
-0.549722
-0.459101
-0.365386
-0.270449
-0.17766
-0.104245
-0.0624072
-0.0832759
-0.2835
-0.569182
-0.856336
-1.12147
-1.28228
-1.3143
-1.34524
-0.900538
-0.869649
-0.810397
-0.736513
-0.655947
-0.570375
-0.480918
-0.389051
-0.297058
-0.209163
-0.143108
-0.111668
-0.164021
-0.409532
-0.690939
-0.946514
-1.16115
-1.25502
-1.27262
-1.27374
-0.919955
-0.889381
-0.830483
-0.756961
-0.676871
-0.592138
-0.50404
-0.41428
-0.325563
-0.243072
-0.184601
-0.165449
-0.248353
-0.527859
-0.81302
-1.03277
-1.19196
-1.24139
-1.23939
-1.2384
-0.939979
-0.909747
-0.851087
-0.778057
-0.698577
-0.614824
-0.528278
-0.440884
-0.355653
-0.278985
-0.228294
-0.223561
-0.33884
-0.638209
-0.938534
-1.12928
-1.16464
-1.20433
-1.22477
-1.22836
-0.960342
-0.930444
-0.872146
-0.799576
-0.720779
-0.638169
-0.553375
-0.468543
-0.38701
-0.316421
-0.274007
-0.281745
-0.441404
-0.736935
-1.06426
-1.29481
-1.26849
-1.2562
-1.25145
-1.25046
-0.980336
-0.950866
-0.893193
-0.821142
-0.743091
-0.661799
-0.578903
-0.49679
-0.419137
-0.354398
-0.320938
-0.338979
-0.547042
-0.835195
-1.15226
-1.54833
-1.48828
-1.33516
-1.28079
-1.26715
-0.999449
-0.970502
-0.913794
-0.842158
-0.765057
-0.685131
-0.604275
-0.525008
-0.451327
-0.391834
-0.367467
-0.397258
-0.647537
-0.921945
-1.04866
-1.34832
-1.34026
-1.32134
-1.29758
-1.28308
-1.01704
-0.988807
-0.932785
-0.861978
-0.785811
-0.707497
-0.628838
-0.552365
-0.48265
-0.427558
-0.411877
-0.45236
-0.751981
-1.00434
-0.827354
-0.506281
-0.922458
-1.383
-1.53063
-1.51074
-1.03194
-1.00471
-0.949634
-0.879495
-0.804438
-0.727782
-0.651481
-0.578098
-0.511768
-0.460467
-0.450811
-0.494405
-0.897467
-1.33879
-1.46283
-1.51649
-1.70462
-1.83791
-1.81916
-1.83567
-1.04295
-1.01699
-0.963056
-0.893614
-0.819725
-0.744896
-0.671173
-0.600994
-0.537461
-0.48867
-0.478436
-0.526447
-1.09697
-1.98068
-3.06841
-3.66637
-3.82779
-3.44058
-2.9305
-2.7429
-1.04859
-1.02417
-0.971574
-0.90292
-0.830329
-0.757565
-0.686787
-0.619947
-0.558604
-0.509155
-0.492516
-0.550244
-1.19717
-2.29949
-3.82173
-4.62937
-4.76519
-4.41154
-3.90569
-3.57145
-1.04731
-1.02467
-0.973478
-0.905737
-0.834637
-0.764393
-0.697109
-0.634183
-0.575233
-0.520627
-0.487568
-0.515382
-0.938325
-1.67699
-2.48415
-2.92715
-2.79774
-2.38888
-2.00781
-1.78503
-1.03655
-1.01593
-0.966482
-0.900139
-0.830999
-0.763863
-0.701007
-0.643379
-0.588613
-0.526602
-0.461234
-0.420967
-0.398068
-0.355113
-0.11096
0.19959
0.584573
0.922163
1.0932
1.15618
-1.0143
-0.995539
-0.948422
-0.884208
-0.817884
-0.754934
-0.698302
-0.649718
-0.604973
-0.54036
-0.438396
-0.303421
-0.062209
0.419377
1.05379
1.69034
2.17388
2.45962
2.57354
2.59956
-0.978768
-0.962073
-0.917462
-0.856606
-0.794346
-0.737121
-0.689255
-0.655134
-0.635209
-0.594455
-0.475476
-0.238569
0.0435663
0.558139
1.22407
1.80617
2.2198
2.4656
2.56688
2.59243
-0.927571
-0.912949
-0.872531
-0.816754
-0.760217
-0.710556
-0.674731
-0.663825
-0.69087
-0.75116
-0.718773
-0.420852
-0.0272014
0.421153
0.9993
1.4735
1.81007
2.0095
2.09631
2.12076
-0.860765
-0.84783
-0.813327
-0.764654
-0.715805
-0.675253
-0.654125
-0.67593
-0.794977
-1.08889
-1.26997
-0.899524
-0.332248
0.128957
0.643048
1.05565
1.34164
1.50416
1.58132
1.59075
-0.779346
-0.768555
-0.740718
-0.700715
-0.660399
-0.628751
-0.620759
-0.674498
-0.896182
-1.45864
-1.97643
-1.49177
-0.808581
-0.217003
0.291137
0.661625
0.892149
1.01407
1.06544
1.07269
-0.685922
-0.67832
-0.655519
-0.623275
-0.59051
-0.564501
-0.560465
-0.619293
-0.834153
-1.36847
-1.7952
-1.39499
-0.818174
-0.275949
0.123008
0.375128
0.519037
0.596267
0.63575
0.644596
-0.57025
-0.566321
-0.550977
-0.527493
-0.501637
-0.478968
-0.469847
-0.500486
-0.635308
-0.947343
-1.12787
-0.844692
-0.425734
-0.0735387
0.152534
0.281125
0.35337
0.396219
0.419219
0.424777
-0.450985
-0.449282
-0.438563
-0.421663
-0.401703
-0.381302
-0.365929
-0.368977
-0.419889
-0.54005
-0.572826
-0.368391
-0.124268
0.0647884
0.172886
0.231959
0.26562
0.284917
0.293675
0.29538
-0.339588
-0.33822
-0.331032
-0.318337
-0.302492
-0.284255
-0.265292
-0.250248
-0.247174
-0.25256
-0.207462
-0.0750961
0.0443861
0.13357
0.180623
0.20523
0.21881
0.22624
0.229207
0.229032
-0.238012
-0.23749
-0.232898
-0.224099
-0.212251
-0.197051
-0.178218
-0.156182
-0.130861
-0.0959312
-0.0340916
0.0557684
0.114829
0.156362
0.1781
0.188319
0.192772
0.1942
0.194097
0.193312
-0.150058
-0.150173
-0.148197
-0.143406
-0.135785
-0.124495
-0.108593
-0.0868972
-0.0572096
-0.0149355
0.0400537
0.0983541
0.13414
0.156279
0.167528
0.171869
0.172557
0.17176
0.1708
0.169968
-0.0792231
-0.0797398
-0.0800136
-0.0788986
-0.0752607
-0.068009
-0.0560886
-0.037978
-0.0113844
0.0262845
0.0696326
0.108196
0.132335
0.146078
0.152586
0.154484
0.15393
0.152587
0.151538
0.150822
-0.0274791
-0.0281412
-0.0296009
-0.0306614
-0.0298804
-0.0261121
-0.018134
-0.00441973
0.0167389
0.0466579
0.0792724
0.105734
0.122722
0.132021
0.136217
0.137132
0.136229
0.134868
0.133947
0.133374
0.00720556
0.00658476
0.00481693
0.00291865
0.00227593
0.0038275
0.0086996
0.0183001
0.0339942
0.0565286
0.080598
0.0991592
0.111249
0.1178
0.120535
0.120824
0.11983
0.118579
0.117795
0.117348
0.0287677
0.0282704
0.0266823
0.0246949
0.0235121
0.0239966
0.0269899
0.0335289
0.0446945
0.0610312
0.0784957
0.0916917
0.100194
0.104605
0.106253
0.106184
0.105175
0.10402
0.10335
0.103009
0.0412157
0.0408475
0.0396054
0.037897
0.0366314
0.0364855
0.0382416
0.0427007
0.0505609
0.0621817
0.0746266
0.0838526
0.0896872
0.0926905
0.0936957
0.0934027
0.0924306
0.0914025
0.0908397
0.090583
0.0477637
0.0474973
0.0465932
0.0452698
0.0441998
0.0438423
0.0447464
0.0475782
0.0529703
0.0611475
0.0699406
0.0764481
0.0804794
0.0824249
0.0829048
0.0824795
0.0815852
0.0806925
0.0802284
0.0800363
0.0506627
0.0504647
0.0498089
0.0488066
0.0479391
0.0475533
0.0480475
0.049859
0.053435
0.0590452
0.0651782
0.0696699
0.0723262
0.0735066
0.0736735
0.073199
0.0724019
0.0716498
0.0712755
0.0711312
0.0512479
0.0510946
0.0505903
0.0497973
0.0490657
0.0486396
0.048813
0.0499307
0.0523217
0.0561181
0.0602782
0.0633131
0.0650469
0.0657426
0.0657108
0.0652364
0.0645529
0.0639379
0.0636421
0.0635328
0.050241
0.0501213
0.04972
0.0490747
0.0484518
0.0480278
0.0480027
0.0486118
0.0501108
0.0526257
0.0554302
0.0574496
0.0585361
0.0588879
0.058742
0.0582996
0.0577267
0.0572319
0.0569995
0.056916
0.0480832
0.0479896
0.0476661
0.0471326
0.0465954
0.0461851
0.0460454
0.0463462
0.047255
0.0488634
0.0506767
0.0519585
0.0525987
0.0527343
0.0525318
0.0521329
0.0516577
0.0512608
0.0510778
0.0510136
0.045087
0.0450141
0.0447548
0.0443153
0.0438558
0.0434717
0.043263
0.0433492
0.0438548
0.044844
0.0459804
0.0467624
0.047106
0.0471046
0.0468782
0.0465271
0.0461358
0.0458185
0.0456748
0.0456255
0.0414982
0.0414417
0.041238
0.0408833
0.0404995
0.0401564
0.0399238
0.0398836
0.0401235
0.0406886
0.0413611
0.0418001
0.0419458
0.0418633
0.0416353
0.0413308
0.0410092
0.0407555
0.0406427
0.040605
0.0375083
0.0374642
0.0373063
0.0370245
0.0367099
0.0364127
0.0361806
0.0360706
0.0361447
0.0364326
0.0367951
0.0370073
0.0370285
0.0369031
0.0366874
0.0364277
0.0361654
0.0359639
0.0358757
0.0358467
0.0332562
0.0332217
0.0331003
0.0328803
0.0326274
0.0323776
0.0321624
0.0320212
0.0319959
0.0321072
0.0322696
0.0323386
0.0322878
0.0321459
0.03195
0.031732
0.0315201
0.0313608
0.0312917
0.0312693
0.0288403
0.0288132
0.0287203
0.0285508
0.028351
0.0281461
0.0279565
0.027808
0.0277296
0.0277356
0.0277749
0.0277598
0.0276718
0.0275291
0.0273569
0.0271768
0.0270078
0.026883
0.0268291
0.0268118
0.0243264
0.0243052
0.0242342
0.0241042
0.023948
0.023783
0.0236221
0.0234823
0.0233833
0.0233333
0.0233047
0.0232444
0.0231423
0.0230101
0.0228639
0.0227175
0.0225837
0.0224864
0.0224445
0.0224313
0.0197549
0.0197387
0.0196846
0.0195857
0.0194654
0.0193356
0.0192046
0.0190828
0.0189824
0.0189091
0.018848
0.0187714
0.0186726
0.0185581
0.0184386
0.0183221
0.0182173
0.018142
0.01811
0.0181
0.0151477
0.0151356
0.0150949
0.015021
0.0149308
0.0148326
0.0147312
0.0146328
0.014545
0.0144712
0.0144048
0.0143314
0.0142464
0.0141539
0.0140599
0.0139698
0.0138893
0.0138316
0.0138073
0.0138
0.0105164
0.0105078
0.0104786
0.0104259
0.0103622
0.0102931
0.0102211
0.0101501
0.0100838
0.0100244
0.009969
0.0099103
0.00984631
0.00977859
0.00971097
0.0096466
0.00958869
0.00954663
0.00952901
0.00952385
0.00586352
0.00585813
0.00584037
0.0058084
0.00577067
0.00573063
0.00568932
0.0056482
0.00560898
0.00557221
0.00553685
0.00550004
0.00546112
0.00542142
0.00538232
0.00534446
0.00530968
0.00528422
0.0052735
0.00526995
0.00119436
0.00119485
0.00119734
0.00119204
0.00118162
0.00117046
0.00115902
0.00114737
0.00113527
0.0011224
0.00110916
0.00109671
0.00108463
0.00107304
0.00106193
0.00105098
0.00104037
0.00103191
0.00103092
0.00103311
-0.822464
-0.562703
-0.291747
-0.0758321
0.0996502
0.241709
0.362687
0.464403
0.508749
0.493176
-0.375904
-0.211198
-0.0437005
0.100148
0.222256
0.324973
0.408576
0.468207
0.500202
0.512044
-0.0849059
0.0230245
0.134034
0.233304
0.31899
0.390937
0.448095
0.49017
0.519754
0.536661
0.115507
0.189409
0.267227
0.338036
0.39948
0.451436
0.493833
0.527433
0.553402
0.571044
0.266252
0.318964
0.375279
0.42751
0.473778
0.513819
0.547706
0.575674
0.597669
0.615204
0.386648
0.425148
0.469886
0.510874
0.548262
0.581505
0.610277
0.634286
0.652758
0.670152
0.48873
0.520921
0.559127
0.594805
0.627748
0.657472
0.68332
0.704636
0.720218
0.737606
0.583363
0.614826
0.651321
0.68565
0.717138
0.745329
0.769527
0.788922
0.802239
0.819722
0.682392
0.717221
0.755141
0.790179
0.821386
0.848535
0.871254
0.888957
0.900859
0.918714
0.799548
0.838807
0.87793
0.912964
0.942938
0.968229
0.989029
1.00513
1.01677
1.03518
0.945661
0.985595
1.02161
1.0525
1.0785
1.10094
1.12026
1.13604
1.14889
1.16707
1.12108
1.15348
1.17959
1.20221
1.22253
1.2415
1.25931
1.276
1.29186
1.31011
1.30918
1.3269
1.34265
1.35943
1.37574
1.3904
1.40354
1.4176
1.43477
1.45448
1.49113
1.50215
1.51437
1.52521
1.53452
1.54419
1.55521
1.56688
1.57688
1.59208
1.70233
1.70439
1.68923
1.67402
1.66775
1.67349
1.69212
1.72258
1.75476
1.78552
2.00822
1.87118
1.795
1.75305
1.73562
1.73966
1.76707
1.8232
1.92667
2.14196
0.299525
0.296165
0.290274
0.280518
0.267644
0.255303
0.245085
0.237238
0.231643
0.228342
0.227819
0.230284
0.235109
0.242078
0.251276
0.262778
0.275764
0.287647
0.295035
0.299712
0.217398
0.223299
0.230278
0.235613
0.238564
0.238364
0.235607
0.231792
0.228273
0.225932
0.225601
0.227537
0.230929
0.23499
0.238651
0.240397
0.239089
0.234838
0.228811
0.221701
0.209595
0.211949
0.215399
0.21845
0.220818
0.22277
0.223868
0.223745
0.222806
0.221877
0.221848
0.222975
0.224419
0.225331
0.225061
0.223608
0.221546
0.218976
0.215645
0.212602
0.204244
0.205316
0.207353
0.210022
0.212263
0.213871
0.215117
0.21608
0.216602
0.216828
0.217117
0.217516
0.217661
0.217259
0.21639
0.215171
0.213386
0.210939
0.208511
0.207005
0.19914
0.199756
0.201058
0.203145
0.205341
0.207303
0.208827
0.209998
0.210966
0.211736
0.212224
0.212317
0.212016
0.211373
0.210341
0.208804
0.206831
0.204743
0.203035
0.202168
0.194417
0.194772
0.195822
0.197729
0.19982
0.201911
0.203904
0.205536
0.206729
0.207577
0.208147
0.208348
0.20803
0.20713
0.205647
0.203829
0.201914
0.199989
0.198498
0.197918
0.190918
0.191077
0.191848
0.193435
0.195189
0.196818
0.198338
0.199867
0.201322
0.202525
0.203282
0.203373
0.202892
0.202018
0.200961
0.199704
0.198211
0.196618
0.195442
0.195102
0.188919
0.188996
0.189478
0.19056
0.191891
0.193292
0.19478
0.196196
0.19752
0.198728
0.19961
0.199923
0.199706
0.199099
0.198178
0.197136
0.196045
0.194977
0.194256
0.194065
0.187091
0.187142
0.187411
0.187998
0.188802
0.189838
0.19094
0.192235
0.193617
0.19495
0.196013
0.196512
0.196487
0.196148
0.195656
0.194948
0.194414
0.193932
0.193604
0.193497
0.184513
0.184546
0.184727
0.185129
0.185692
0.186348
0.187331
0.188483
0.189788
0.191184
0.192453
0.193264
0.193583
0.193569
0.193363
0.193259
0.193015
0.192779
0.192611
0.192546
0.181262
0.181276
0.181417
0.181785
0.182333
0.182999
0.183895
0.185062
0.186463
0.188051
0.189603
0.190734
0.191345
0.191617
0.191694
0.191674
0.191588
0.191441
0.191343
0.191315
0.177609
0.177606
0.177716
0.17806
0.178599
0.179284
0.180236
0.181395
0.182883
0.184696
0.186595
0.188143
0.189145
0.189722
0.19012
0.19029
0.190313
0.190247
0.190212
0.190208
0.173652
0.173651
0.173737
0.174076
0.174625
0.175377
0.176367
0.177684
0.179395
0.181529
0.183908
0.185945
0.187372
0.188323
0.188896
0.189228
0.18937
0.189415
0.189446
0.189457
0.169292
0.169282
0.169387
0.169707
0.170261
0.171061
0.172174
0.173696
0.175722
0.178316
0.181283
0.183912
0.185826
0.187128
0.187991
0.188532
0.188841
0.189009
0.189101
0.18912
0.164357
0.164344
0.164468
0.164801
0.165403
0.1663
0.167594
0.16941
0.171872
0.175071
0.178791
0.182153
0.184569
0.186337
0.187518
0.188289
0.188771
0.18906
0.189205
0.189232
0.158675
0.15866
0.158803
0.159208
0.159892
0.160945
0.162502
0.164723
0.167764
0.171748
0.176419
0.180664
0.183812
0.186038
0.187571
0.188595
0.189258
0.189663
0.18986
0.189896
0.152048
0.152028
0.15221
0.1527
0.15354
0.154828
0.156758
0.159519
0.163318
0.168312
0.174179
0.179519
0.183496
0.186314
0.188261
0.189572
0.190433
0.190964
0.191219
0.191264
0.144225
0.1442
0.144433
0.145045
0.146103
0.147749
0.150182
0.153657
0.158447
0.16473
0.172093
0.178782
0.183748
0.187282
0.189724
0.191374
0.192464
0.193139
0.193461
0.193518
0.13488
0.134847
0.135155
0.135955
0.137317
0.139423
0.14253
0.146969
0.153051
0.160976
0.170203
0.178543
0.184714
0.189106
0.192141
0.194192
0.195549
0.196388
0.196785
0.19686
0.123535
0.123492
0.123907
0.124971
0.126756
0.129496
0.13354
0.139262
0.147015
0.157026
0.168565
0.178915
0.186544
0.19197
0.195721
0.198257
0.199938
0.20099
0.201486
0.201572
0.109533
0.109482
0.110064
0.111503
0.113888
0.117525
0.122839
0.130264
0.140212
0.152873
0.167258
0.180032
0.18941
0.196078
0.200699
0.203829
0.205906
0.207208
0.207827
0.207934
0.0919335
0.0918836
0.0927272
0.0947102
0.0979646
0.10288
0.109968
0.119733
0.132568
0.148562
0.166399
0.182054
0.193501
0.201652
0.207327
0.211193
0.213769
0.215388
0.216167
0.216295
0.0692651
0.0692351
0.0705127
0.0733568
0.0779626
0.0848177
0.0945023
0.107499
0.124093
0.144215
0.166156
0.185158
0.199009
0.208912
0.215862
0.220645
0.223863
0.225896
0.226871
0.227033
0.0390946
0.0391396
0.0412139
0.0455939
0.0524911
0.062465
0.07602
0.0934763
0.114915
0.140043
0.166731
0.189516
0.206089
0.218025
0.226515
0.232455
0.236519
0.239119
0.24036
0.240562
-0.00286699
-0.00254991
0.0013227
0.00885987
0.0199705
0.03509
0.0543806
0.0778617
0.105352
0.136341
0.168333
0.195244
0.214799
0.229029
0.239353
0.246771
0.251999
0.255435
0.257065
0.257307
-0.0647009
-0.0628828
-0.0537446
-0.0393996
-0.0203994
0.00291797
0.0302224
0.0613499
0.0959687
0.133486
0.171137
0.202356
0.225038
0.241739
0.254136
0.263368
0.270142
0.274758
0.277061
0.277373
-0.138932
-0.135636
-0.118479
-0.0931315
-0.0636237
-0.0308343
0.00520448
0.0444729
0.0867356
0.131498
0.1758
0.212499
0.239498
0.259844
0.275457
0.287595
0.297136
0.303779
0.306391
0.307361
-0.214769
-0.205487
-0.180096
-0.144712
-0.105598
-0.0636712
-0.01901
0.0283494
0.0782311
0.130228
0.181224
0.223416
0.25465
0.278499
0.297173
0.31206
0.323974
0.332609
0.337221
0.338933
-0.272587
-0.26214
-0.231805
-0.189812
-0.143375
-0.0938479
-0.0416258
0.0131128
0.0700877
0.128836
0.18593
0.232887
0.26753
0.293914
0.314498
0.330807
0.343751
0.353428
0.358957
0.360796
-0.319174
-0.308244
-0.274557
-0.227959
-0.176082
-0.120671
-0.0622363
-0.00113642
0.0621345
0.12696
0.189494
0.240455
0.277651
0.305641
0.327203
0.344108
0.357422
0.367346
0.37297
0.374918
-0.35754
-0.346626
-0.310932
-0.260689
-0.204526
-0.144391
-0.0808394
-0.0143573
0.0544196
0.124663
0.192007
0.246418
0.285712
0.314925
0.337152
0.354347
0.367713
0.377619
0.383221
0.385129
-0.390705
-0.379874
-0.342694
-0.289638
-0.229982
-0.165877
-0.0979296
-0.0267427
0.0469272
0.122094
0.193936
0.251557
0.292717
0.322934
0.345613
0.36293
0.376245
0.386093
0.3917
0.393518
-0.420225
-0.409493
-0.371251
-0.315896
-0.253296
-0.185781
-0.113999
-0.0386303
0.0394954
0.119239
0.195277
0.255903
0.29884
0.330029
0.353176
0.370667
0.383995
0.39378
0.399408
0.401098
-0.447276
-0.4366
-0.397511
-0.340208
-0.275131
-0.204687
-0.129537
-0.0504049
0.0317803
0.115764
0.195878
0.259599
0.304435
0.336711
0.360418
0.378146
0.391543
0.401304
0.406917
0.408499
-0.472606
-0.461957
-0.422096
-0.363123
-0.295912
-0.222908
-0.144797
-0.0623201
0.0235928
0.111664
0.195862
0.262803
0.309705
0.343226
0.367624
0.38569
0.399213
0.408964
0.414586
0.416061
-0.496695
-0.486022
-0.445523
-0.385083
-0.315975
-0.240705
-0.159968
-0.0744516
0.0149291
0.106891
0.195139
0.265472
0.314691
0.349692
0.374969
0.393507
0.407245
0.417047
0.422635
0.424042
-0.519874
-0.509145
-0.467958
-0.406325
-0.33553
-0.258245
-0.175156
-0.0869023
0.00564776
0.101281
0.193593
0.267541
0.319386
0.356155
0.382539
0.401718
0.415781
0.425683
0.431206
0.432591
-0.542334
-0.531466
-0.489618
-0.426993
-0.354657
-0.27562
-0.190461
-0.0997684
-0.00432926
0.0947862
0.191122
0.268885
0.323706
0.362594
0.390363
0.410383
0.424909
0.434994
0.440446
0.441802
-0.564089
-0.553065
-0.510717
-0.447116
-0.373435
-0.292878
-0.205905
-0.113045
-0.0149894
0.0873536
0.187612
0.269358
0.327495
0.36891
0.398401
0.419497
0.434636
0.444982
0.450394
0.451672
-0.585275
-0.574043
-0.531275
-0.466686
-0.391881
-0.309999
-0.221443
-0.126694
-0.0263272
0.0789594
0.182969
0.268784
0.330532
0.374893
0.406521
0.429002
0.444945
0.455646
0.461024
0.462171
-0.605836
-0.59441
-0.551182
-0.485743
-0.409965
-0.326939
-0.237028
-0.140666
-0.0382947
0.0696143
0.177122
0.266978
0.332576
0.380302
0.414568
0.438818
0.455777
0.466882
0.472225
0.473183
-0.625805
-0.614162
-0.570435
-0.504273
-0.427652
-0.343656
-0.252606
-0.154881
-0.0508132
0.0593617
0.170036
0.263778
0.333372
0.38488
0.422359
0.448883
0.467099
0.478593
0.483769
0.484504
-0.645023
-0.633229
-0.589025
-0.522231
-0.444885
-0.360068
-0.268095
-0.169252
-0.0637896
0.0482845
0.161706
0.259065
0.332628
0.388236
0.429561
0.45911
0.478994
0.490763
0.495479
0.495883
-0.663594
-0.651584
-0.60693
-0.539586
-0.461623
-0.376128
-0.283398
-0.183685
-0.0771165
0.0364916
0.152179
0.25275
0.33008
0.389863
0.435629
0.469284
0.491775
0.503692
0.507141
0.506893
-0.681395
-0.669162
-0.62413
-0.556292
-0.477795
-0.39176
-0.298438
-0.198059
-0.0906707
0.0240817
0.141559
0.244805
0.325545
0.389262
0.439763
0.47879
0.505812
0.518782
0.519462
0.517074
-0.698464
-0.686058
-0.640582
-0.572305
-0.493366
-0.406905
-0.313135
-0.21229
-0.104331
0.0112182
0.129979
0.235252
0.318931
0.386024
0.440874
0.486148
0.520425
0.538374
0.53747
0.525729
-0.714747
-0.702215
-0.656386
-0.587763
-0.508527
-0.421825
-0.327808
-0.226771
-0.118551
-0.00263076
0.116836
0.223403
0.309488
0.379387
0.437296
0.488568
0.532141
0.559356
0.561754
0.554966
-0.730227