/*--------------------------------*- C++ -*----------------------------------*\
  =========                 |
  \\      /  F ield         | OpenFOAM: The Open Source CFD Toolbox
   \\    /   O peration     | Website:  https://openfoam.org
    \\  /    A nd           | Version:  9
     \\/     M anipulation  |
\*---------------------------------------------------------------------------*/
FoamFile
{
    format      ascii;
    class       surfaceScalarField;
    location    "14";
    object      phi;
}
// * * * * * * * * * * * * * * * * * * * * * * * * * * * * * * * * * * * * * //

dimensions      [0 3 -1 0 0 0 0];

internalField   nonuniform List<scalar> 
17370
(
-0.0910881
0.0935337
0.286565
-0.0749372
0.0569346
0.364778
-0.040917
0.0299373
0.427148
-0.0211858
0.0155852
0.504852
-0.0113257
0.00861273
0.602115
-0.00646856
0.0050072
0.720519
-0.00378111
0.00291031
0.863777
-0.00215316
0.00159742
1.03601
-0.00109407
0.000696494
1.2429
-0.000309005
-4.51287e-05
1.49155
0.000397977
-0.000797864
1.49159
0.00119222
-0.00169071
1.24319
0.00224085
-0.00298989
1.03639
0.00385143
-0.00506816
0.864123
0.00652243
-0.00866372
0.721199
0.0113753
-0.0156299
0.603469
0.0212251
-0.0299703
0.508184
0.0409445
-0.0569565
0.43218
0.0749541
-0.0935438
0.365365
0.0910962
0.197915
-0.127387
0.0882297
0.0391569
-0.364775
0.35388
-0.0725155
0.0834112
-0.446576
0.454429
-0.081499
0.0736465
-0.520948
0.52958
-0.0654718
0.0568399
-0.612843
0.62102
-0.0490388
0.0408615
-0.727007
0.733748
-0.0339645
0.0272229
-0.867507
0.87239
-0.0219162
0.0170335
-1.03854
1.04181
-0.0133709
0.0101006
-1.24468
1.247
-0.00762904
0.0053101
-1.49276
1.4947
-0.0034197
0.00147825
-1.49261
1.49436
0.000255813
-0.00200192
-1.24407
1.24594
0.00391843
-0.00578686
-1.03759
1.04004
0.00807738
-0.0105219
-0.866162
0.869795
0.0137608
-0.0173929
-0.724499
0.729771
0.0222416
-0.0275127
-0.608914
0.615786
0.0342197
-0.0410917
-0.514984
0.522763
0.0492436
-0.0570233
-0.439768
0.447925
0.0656331
-0.0737902
-0.375196
0.377082
0.081621
-0.0835067
-0.256993
0.223594
0.07258
-0.0391814
-0.0687835
0.0591279
0.0096556
-0.0516324
0.0582346
-0.374652
0.36805
-0.0573232
0.0535129
-0.45392
0.45773
-0.0481987
0.0438706
-0.527848
0.532176
-0.0396154
0.0357613
-0.621107
0.624961
-0.0314722
0.0273988
-0.734759
0.738832
-0.0229907
0.0190924
-0.873899
0.877798
-0.0151013
0.0117154
-1.04323
1.04661
-0.00830643
0.00539478
-1.24847
1.25138
-0.00234319
-0.000491152
-1.49671
1.49955
0.00331002
-0.00633313
-1.49721
1.50024
0.00919782
-0.0125489
-1.24993
1.25328
0.0158771
-0.0197991
-1.04561
1.04953
0.0236377
-0.0279855
-0.877235
0.881583
0.0320041
-0.0362416
-0.739314
0.743552
0.0400492
-0.0442562
-0.626485
0.630691
0.0485445
-0.0538201
-0.535124
0.5404
0.0575901
-0.0584536
-0.458084
0.458947
0.051797
-0.0316975
-0.336678
0.316578
0.00968283
-0.0687057
0.0590228
-0.0534654
0.0495254
0.00393994
-0.0324113
0.0426267
-0.358765
0.34855
-0.0461593
0.0455021
-0.459564
0.460221
-0.0425259
0.0393097
-0.536003
0.53922
-0.0356423
0.0323471
-0.628442
0.631737
-0.0288352
0.0257272
-0.742195
0.745303
-0.0224071
0.0193473
-0.88135
0.88441
-0.0159362
0.0127761
-1.05
1.05316
-0.00931892
0.00616085
-1.25448
1.25764
-0.00264651
-0.000732936
-1.50269
1.50607
0.0040878
-0.00755047
-1.50353
1.50699
0.0106493
-0.014022
-1.25675
1.26013
0.0170982
-0.0204128
-1.05328
1.0566
0.0233823
-0.0265989
-0.88528
0.888496
0.0296204
-0.0330653
-0.747097
0.750542
0.0363006
-0.0398981
-0.634658
0.638256
0.0430541
-0.0459679
-0.544568
0.547482
0.0465626
-0.0429451
-0.457259
0.453642
0.0326309
-0.0157647
-0.297588
0.280721
0.00397357
-0.0533306
0.049357
-0.0465453
0.0442167
0.00232856
-0.0214254
0.0311551
-0.338345
0.328616
-0.036507
0.0373013
-0.460097
0.459303
-0.0359633
0.0336403
-0.541897
0.544221
-0.0310408
0.0286201
-0.634622
0.637043
-0.0258661
0.0232964
-0.748201
0.75077
-0.0204137
0.0177661
-0.887173
0.88982
-0.0148154
0.0120607
-1.05602
1.05878
-0.00891321
0.005896
-1.26076
1.26377
-0.00239661
-0.00100936
-1.50956
1.51297
0.00439369
-0.00782462
-1.51051
1.51394
0.0107502
-0.013789
-1.26329
1.26633
0.0164416
-0.0192764
-1.05953
1.06236
0.0218136
-0.0245666
-0.891491
0.894244
0.0270165
-0.0296464
-0.753667
0.756297
0.0319712
-0.0344721
-0.641257
0.643758
0.0367131
-0.0379485
-0.549503
0.550738
0.0370532
-0.0315651
-0.448863
0.443375
0.0216953
-0.00942958
-0.266248
0.253983
0.00236894
-0.0463403
0.0439714
-0.0423529
0.0408377
0.00151515
-0.0145372
0.0227166
-0.319573
0.311393
-0.028561
0.030459
-0.457888
0.45599
-0.0301455
0.0287404
-0.546107
0.547512
-0.0269134
0.0251332
-0.639158
0.640938
-0.0230933
0.0211147
-0.753032
0.75501
-0.0187439
0.0163817
-0.892353
0.894715
-0.0136125
0.0109601
-1.0615
1.06415
-0.00795138
0.00509883
-1.2667
1.26955
-0.00183357
-0.0013127
-1.51621
1.51935
0.00443183
-0.00761748
-1.51723
1.52042
0.0103584
-0.0132178
-1.26929
1.27215
0.0157145
-0.0183054
-1.06511
1.0677
0.0205027
-0.0227006
-0.896743
0.898941
0.024539
-0.0264414
-0.758564
0.760467
0.0280842
-0.029779
-0.645883
0.647578
0.0310748
-0.0312623
-0.55136
0.551547
0.0292286
-0.0232074
-0.437479
0.431457
0.0148562
-0.00618305
-0.243613
0.23494
0.00156337
-0.042064
0.0405006
-0.0396268
0.0387217
0.000905049
-0.00883935
0.0148372
-0.304244
0.298247
-0.0201919
0.0226891
-0.453742
0.451245
-0.0231575
0.0225493
-0.548519
0.549127
-0.0213115
0.0200439
-0.642395
0.643663
-0.0185345
0.0170149
-0.756727
0.758247
-0.0152456
0.0135062
-0.896784
0.898523
-0.0114266
0.00932344
-1.06659
1.0687
-0.00678846
0.00426122
-1.2723
1.27482
-0.00125375
-0.00173419
-1.52246
1.52545
0.00468108
-0.00756753
-1.52351
1.52639
0.00994091
-0.0122668
-1.2748
1.27713
0.014157
-0.0160014
-1.06996
1.07181
0.0175366
-0.019087
-0.900793
0.902343
0.0203976
-0.0217182
-0.762016
0.763336
0.0228257
-0.0239033
-0.648933
0.65001
0.0243493
-0.0236971
-0.55133
0.550677
0.0210085
-0.0154219
-0.425549
0.419963
0.00921663
-0.00371563
-0.227886
0.222385
0.000964274
-0.0392348
0.0382706
-0.0381163
0.0377609
0.000355378
-0.00430475
0.0080579
-0.293424
0.289671
-0.0122276
0.0147458
-0.448649
0.446131
-0.0157675
0.0158282
-0.549343
0.549283
-0.0152172
0.0144985
-0.644702
0.645421
-0.0135878
0.0126404
-0.759536
0.760483
-0.0114228
0.0101484
-0.90001
0.901285
-0.00856561
0.00695351
-1.0705
1.07212
-0.00495667
0.00290265
-1.27708
1.27914
-0.00036645
-0.00218208
-1.52822
1.53077
0.00467426
-0.007045
-1.52901
1.53138
0.00889465
-0.0106464
-1.27913
1.28088
0.0120197
-0.0133141
-1.07334
1.07463
0.014306
-0.0152217
-0.903602
0.904517
0.0159118
-0.0165537
-0.764355
0.764996
0.0170736
-0.0174548
-0.650742
0.651123
0.0171918
-0.0159409
-0.549654
0.548403
0.0131874
-0.00874511
-0.414892
0.41045
0.00475347
-0.00176112
-0.218275
0.215283
0.000426372
-0.0376012
0.0371748
-0.0375852
0.0375196
6.55854e-05
-0.0018977
0.00417422
-0.286784
0.284508
-0.0072344
0.00946655
-0.443783
0.441551
-0.0107131
0.0111056
-0.549068
0.548675
-0.0110941
0.0108694
-0.645843
0.646068
-0.0103949
0.00983663
-0.761144
0.761703
-0.00906293
0.00817585
-0.902327
0.903214
-0.00695436
0.00558749
-1.07358
1.07494
-0.00380177
0.0019095
-1.28107
1.28297
0.00040996
-0.00271808
-1.53316
1.53547
0.00497012
-0.00712619
-1.53361
1.53577
0.00878797
-0.0102577
-1.28247
1.28394
0.0113182
-0.0122118
-1.07569
1.07658
0.0128284
-0.0133226
-0.905107
0.905601
0.013619
-0.0136826
-0.765287
0.765351
0.0135462
-0.0132851
-0.651179
0.650918
0.0125924
-0.0110121
-0.547016
0.545436
0.00846315
-0.00505285
-0.406604
0.403193
0.00247253
-0.000802898
-0.213096
0.211426
0.000157355
-0.0369183
0.036761
-0.0375031
0.0375023
7.87187e-07
-0.00108065
0.00273381
-0.282608
0.280955
-0.00536817
0.00774592
-0.439291
0.436913
-0.00960811
0.0105752
-0.548003
0.547036
-0.0108589
0.0109011
-0.646156
0.646113
-0.0107702
0.0103256
-0.76223
0.762674
-0.0095146
0.00848866
-0.904124
0.90515
-0.00704844
0.00544979
-1.07637
1.07797
-0.00341616
0.00136438
-1.28489
1.28694
0.00108066
-0.00348247
-1.53777
1.54017
0.00581975
-0.00804364
-1.53791
1.54013
0.00979512
-0.0114169
-1.28543
1.28705
0.0125884
-0.0135379
-1.07744
1.07839
0.0140969
-0.0143577
-0.906032
0.906292
0.0143224
-0.014128
-0.765292
0.765097
0.0138366
-0.0131394
-0.650417
0.64972
0.0118429
-0.00959899
-0.543566
0.541322
0.00684983
-0.0037976
-0.400026
0.396974
0.00177639
-0.000566624
-0.210051
0.208841
0.000108764
-0.0366452
0.0365364
-0.0375102
0.0375281
-1.79191e-05
-0.000623212
0.00186957
-0.279502
0.278255
-0.00422119
0.00683141
-0.434389
0.431779
-0.00949141
0.0112983
-0.545668
0.543861
-0.0124757
0.0128233
-0.645908
0.64556
-0.0126911
0.0121803
-0.763161
0.763672
-0.0112147
0.00994177
-0.906307
0.90758
-0.00816418
0.00622899
-1.07975
1.08169
-0.00380647
0.00133403
-1.2892
1.29167
0.00161568
-0.00449507
-1.54279
1.54567
0.00727682
-0.00992998
-1.54255
1.5452
0.0119954
-0.0138735
-1.28882
1.2907
0.0152782
-0.0164656
-1.07948
1.08066
0.017202
-0.017629
-0.906662
0.907089
0.0175816
-0.0171407
-0.764744
0.764303
0.0163132
-0.0146349
-0.648568
0.64689
0.0123589
-0.00917892
-0.538595
0.535415
0.00608625
-0.0032089
-0.393987
0.39111
0.00150324
-0.000519411
-0.207747
0.206763
0.000121128
-0.0364211
0.0363
-0.0375598
0.0376073
-4.75705e-05
-0.000128595
0.000880333
-0.27725
0.276498
-0.00263117
0.00496053
-0.429226
0.426897
-0.00780758
0.0100879
-0.541728
0.539448
-0.0119325
0.01273
-0.645056
0.644258
-0.0127828
0.0123704
-0.7641
0.764512
-0.0113231
0.00996387
-0.908927
0.910286
-0.00807462
0.00603472
-1.08371
1.08575
-0.00346194
0.000759555
-1.2943
1.29701
0.0025216
-0.00571162
-1.54876
1.55195
0.00875228
-0.0116377
-1.54803
1.55092
0.0138509
-0.0158031
-1.29264
1.2946
0.0172138
-0.0183434
-1.08187
1.083
0.018958
-0.0191358
-0.907446
0.907623
0.018985
-0.0182813
-0.763782
0.763078
0.01678
-0.0142395
-0.644717
0.642177
0.0113497
-0.00784612
-0.531953
0.52845
0.00492564
-0.00253453
-0.388434
0.386042
0.00121669
-0.000457318
-0.205894
0.205134
0.000121853
-0.0361774
0.0360556
-0.0376784
0.0377741
-9.57459e-05
0.000328258
-9.50109e-05
-0.275998
0.275764
-0.000841565
0.00236948
-0.424932
0.423404
-0.00451863
0.00644806
-0.537242
0.535313
-0.00814599
0.00913051
-0.643221
0.642236
-0.00950506
0.00924674
-0.764935
0.765193
-0.00846516
0.00732688
-0.911572
0.91271
-0.00565859
0.00379703
-1.08773
1.08959
-0.00139811
-0.0011439
-1.29967
1.30221
0.00422723
-0.00720574
-1.5551
1.55808
0.00999801
-0.0125818
-1.55373
1.55631
0.0145239
-0.0162106
-1.29646
1.29815
0.0173077
-0.0180545
-1.08398
1.08473
0.0183495
-0.0182228
-0.907667
0.90754
0.0175384
-0.0160916
-0.761957
0.76051
0.0142276
-0.0116186
-0.639491
0.636882
0.00890666
-0.00594248
-0.525133
0.522169
0.00368857
-0.0019585
-0.383982
0.382252
0.00100689
-0.000415316
-0.20447
0.203879
0.000120295
-0.0359352
0.035815
-0.0378934
0.0380352
-0.000141847
0.000763708
-0.000892541
-0.275736
0.275865
0.000682416
-1.03107e-06
-0.422318
0.421637
-0.0011679
0.00232745
-0.533756
0.532597
-0.00341668
0.00409543
-0.641378
0.6407
-0.00440044
0.00427533
-0.765346
0.765471
-0.00370672
0.00281633
-0.913706
0.914596
-0.00145954
-0.000105145
-1.0913
1.09286
0.00213694
-0.00422677
-1.30454
1.30663
0.0067119
-0.00907054
-1.56078
1.56314
0.0112188
-0.0130477
-1.55854
1.56037
0.0143275
-0.0154244
-1.29959
1.30069
0.0159978
-0.016104
-1.08513
1.08524
0.0158078
-0.0151039
-0.907084
0.90638
0.0140783
-0.0125726
-0.759025
0.75752
0.010857
-0.00870005
-0.634484
0.632327
0.00661904
-0.00448371
-0.51963
0.517494
0.0029171
-0.0016992
-0.380811
0.379593
0.000963941
-0.000432152
-0.203332
0.2028
0.000131062
-0.0356925
0.0355615
-0.0381987
0.038385
-0.000186217
0.00109884
-0.0015527
-0.276139
0.276593
0.00182522
-0.00180592
-0.421313
0.421294
0.00146622
-0.00103647
-0.53184
0.53141
0.000614915
-0.000392923
-0.640259
0.640037
0.000397447
-0.000660786
-0.76565
0.765914
0.00125344
-0.00206701
-0.915422
0.916236
0.00324594
-0.0045668
-1.09428
1.0956
0.00623572
-0.00787019
-1.30847
1.3101
0.00973111
-0.0114207
-1.56515
1.56684
0.0128589
-0.0139662
-1.56183
1.56294
0.0145718
-0.0148337
-1.30136
1.30162
0.0147616
-0.0143544
-1.08507
1.08467
0.0136956
-0.0126959
-0.905502
0.904502
0.011563
-0.0101215
-0.756037
0.754596
0.0086563
-0.0069592
-0.630421
0.628724
0.00542508
-0.00389662
-0.515709
0.514181
0.00274978
-0.0017743
-0.37853
0.377555
0.00108913
-0.000514913
-0.20226
0.201686
0.000160541
-0.0354199
0.0352593
-0.0385965
0.0388331
-0.000236567
0.0014446
-0.00212459
-0.277145
0.277824
0.00278084
-0.0031992
-0.421478
0.421896
0.00346259
-0.00361416
-0.531338
0.53149
0.00376991
-0.00399326
-0.640101
0.640324
0.00439089
-0.00492649
-0.766323
0.766858
0.00571547
-0.00661626
-0.917056
0.917957
0.0077897
-0.0090093
-1.09682
1.09804
0.0104567
-0.0117857
-1.31154
1.31287
0.0131871
-0.0143363
-1.56822
1.56937
0.015166
-0.0155909
-1.5637
1.56413
0.0155724
-0.0152608
-1.30158
1.30127
0.0147309
-0.0138997
-1.08397
1.08314
0.0129585
-0.0117752
-0.903387
0.902204
0.0105903
-0.00921538
-0.753194
0.751819
0.00792179
-0.00650705
-0.627212
0.625797
0.00526914
-0.00402678
-0.51285
0.511608
0.00303238
-0.00208502
-0.37662
0.375673
0.00133312
-0.000646424
-0.201068
0.200381
0.000204752
-0.0350841
0.0348793
-0.0391042
0.0394032
-0.000299032
0.00184975
-0.00276032
-0.278615
0.279525
0.00370777
-0.00446324
-0.42247
0.423225
0.00514474
-0.00570381
-0.531921
0.532481
0.00632745
-0.00697552
-0.640864
0.641512
0.00780302
-0.00868926
-0.767573
0.768459
0.00980039
-0.0109212
-0.918903
0.920023
0.0122375
-0.0134989
-1.0992
1.10046
0.0148944
-0.0160877
-1.31407
1.31526
0.0172217
-0.0179965
-1.57029
1.57106
0.0183678
-0.0182864
-1.56427
1.56419
0.0178179
-0.0169756
-1.30067
1.29983
0.0160072
-0.0148362
-1.08212
1.08095
0.0136705
-0.0123214
-0.900916
0.899567
0.0110548
-0.0096589
-0.750439
0.749043
0.00839778
-0.00705355
-0.624473
0.623128
0.00588137
-0.00467123
-0.510448
0.509238
0.00363898
-0.00257496
-0.374697
0.373633
0.00167539
-0.000821842
-0.19963
0.198776
0.000263062
-0.0346611
0.034398
-0.0397499
0.0401293
-0.000379421
0.0023568
-0.00353234
-0.280579
0.281755
0.00478447
-0.00582381
-0.424165
0.425205
0.0068343
-0.00772357
-0.533349
0.534239
0.00875585
-0.00981486
-0.642454
0.643513
0.0111117
-0.012411
-0.769491
0.770791
0.0139339
-0.0153795
-0.921184
0.922629
0.0169764
-0.0184078
-1.10172
1.10315
0.0198989
-0.0210929
-1.31637
1.31756
0.0221033
-0.0226282
-1.57166
1.57218
0.0226427
-0.0221278
-1.56386
1.56335
0.0212686
-0.0199946
-1.29874
1.29747
0.0186725
-0.0171466
-1.07956
1.07803
0.0157114
-0.0141277
-0.898051
0.896467
0.012697
-0.0111644
-0.74756
0.746028
0.00980384
-0.0083608
-0.621796
0.620353
0.00708784
-0.005734
-0.508059
0.506705
0.00453013
-0.00323768
-0.372513
0.371221
0.00211949
-0.00104466
-0.19785
0.196775
0.000336687
-0.0341292
0.0337925
-0.0405768
0.041062
-0.000485229
0.00301014
-0.00451516
-0.28313
0.284635
0.00613455
-0.00750103
-0.426529
0.427895
0.00886772
-0.0101001
-0.535543
0.536775
0.0115424
-0.0130226
-0.644843
0.646323
0.0148158
-0.0165634
-0.772172
0.77392
0.0185558
-0.0204052
-0.924083
0.925933
0.0224112
-0.0241537
-1.10459
1.10633
0.0258745
-0.0271682
-1.3187
1.31999
0.0281456
-0.0284877
-1.57255
1.5729
0.0281902
-0.0272568
-1.56259
1.56166
0.0259952
-0.0242952
-1.29596
1.29426
0.0225938
-0.0206652
-1.07626
1.07433
0.0188953
-0.016991
-0.894633
0.892729
0.0153073
-0.013533
-0.744304
0.742529
0.0119709
-0.010312
-0.618854
0.617195
0.00882858
-0.00721255
-0.505377
0.503761
0.00573074
-0.00408995
-0.369891
0.368251
0.00266694
-0.00131222
-0.195631
0.194276
0.000422618
-0.0334636
0.033041
-0.041647
0.0422829
-0.000635973
0.00390158
-0.00584779
-0.286425
0.288371
0.00794906
-0.0097299
-0.429638
0.431419
0.0115182
-0.0131422
-0.538537
0.540161
0.0150532
-0.0170032
-0.648105
0.650055
0.0193635
-0.021657
-0.775709
0.778003
0.0242495
-0.0266122
-0.927756
0.930119
0.0291101
-0.0312216
-1.10804
1.11015
0.0332399
-0.0346902
-1.32123
1.32268
0.035682
-0.0358636
-1.57309
1.57327
0.0352515
-0.033871
-1.56048
1.5591
0.0321583
-0.0299576
-1.29229
1.29009
0.0277961
-0.0253697
-1.0721
1.06967
0.0231704
-0.0208346
-0.890477
0.888142
0.0187949
-0.0166699
-0.740435
0.73831
0.0148105
-0.0128343
-0.615392
0.613416
0.0110456
-0.00905606
-0.502179
0.500189
0.00720075
-0.00515212
-0.366651
0.364603
0.00336043
-0.00164067
-0.192863
0.191144
0.000525673
-0.0326331
0.0321075
-0.0430428
0.0439029
-0.000860082
0.00517809
-0.00773954
-0.29068
0.293241
0.0104866
-0.0127948
-0.433678
0.435987
0.0150973
-0.017197
-0.542469
0.544569
0.0196917
-0.0222427
-0.652373
0.654924
0.0253015
-0.0282421
-0.780291
0.783232
0.0315147
-0.0344443
-0.932415
0.935344
0.0374982
-0.0400406
-1.11223
1.11478
0.0424208
-0.0440668
-1.32408
1.32572
0.0450856
-0.0450868
-1.57328
1.57328
0.044112
-0.0422105
-1.55743
1.55552
0.0399618
-0.0371483
-1.28757
1.28476
0.0344168
-0.0313703
-1.06688
1.06384
0.028625
-0.0257255
-0.885368
0.882468
0.0232098
-0.020609
-0.735731
0.73313
0.0183472
-0.0159491
-0.611191
0.608793
0.0137633
-0.0113038
-0.498259
0.495799
0.00900202
-0.00644183
-0.362608
0.360048
0.00420323
-0.00205234
-0.189406
0.187255
0.000655681
-0.0316063
0.0309506
-0.0448908
0.0460855
-0.0011947
0.00705364
-0.0104871
-0.296208
0.299641
0.0141057
-0.0170969
-0.438919
0.44191
0.0200541
-0.0227749
-0.547582
0.550303
0.0260236
-0.0293259
-0.657899
0.661201
0.0332328
-0.0369231
-0.786165
0.789855
0.0409739
-0.0445632
-0.938257
0.941847
0.0482636
-0.0512941
-1.11731
1.12034
0.0540562
-0.0558754
-1.32727
1.32909
0.0568559
-0.0565865
-1.57304
1.57277
0.0551399
-0.0525916
-1.55326
1.55071
0.0496879
-0.0461244
-1.28156
1.27799
0.0426976
-0.0388946
-1.06036
1.05656
0.035477
-0.0318737
-0.879049
0.875446
0.0287547
-0.0255453
-0.729946
0.726736
0.0227702
-0.0198441
-0.606018
0.603092
0.0171748
-0.0141533
-0.493385
0.490364
0.0112705
-0.00806162
-0.357577
0.354369
0.00525313
-0.00256136
-0.185093
0.182401
0.000816318
-0.0303389
0.0295225
-0.0473947
0.0490905
-0.00169589
0.00982341
-0.0144658
-0.303477
0.308119
0.019208
-0.0230571
-0.445757
0.449606
0.0268457
-0.0303819
-0.554241
0.557777
0.034626
-0.0389034
-0.665001
0.669279
0.043885
-0.0485126
-0.793609
0.798237
0.053515
-0.0578788
-0.945473
0.949837
0.0622917
-0.0658091
-1.12334
1.12686
0.0688891
-0.0707794
-1.33076
1.33265
0.0715699
-0.0708603
-1.57216
1.57145
0.0687635
-0.0653862
-1.54769
1.54431
0.0616715
-0.057195
-1.27395
1.26947
0.0529322
-0.0482254
-1.05225
1.04754
0.0440051
-0.0395566
-0.871235
0.866786
0.0357073
-0.0317518
-0.722808
0.718853
0.0283419
-0.0247616
-0.599624
0.596044
0.0214947
-0.0177819
-0.48731
0.483598
0.0142036
-0.0101317
-0.351304
0.347232
0.00658239
-0.00319542
-0.179738
0.176351
0.00101138
-0.0287782
0.0277668
-0.0508824
0.053399
-0.00251661
0.0141247
-0.0204584
-0.313214
0.319547
0.0266512
-0.0316044
-0.454769
0.459722
0.0364955
-0.0411409
-0.562943
0.567589
0.0467268
-0.0522558
-0.674123
0.679652
0.0585508
-0.0642696
-0.802944
0.808662
0.0703201
-0.0754734
-0.95421
0.959364
0.0805362
-0.0844262
-1.13028
1.13417
0.0876521
-0.0894206
-1.33429
1.33605
0.0897765
-0.0883814
-1.57028
1.56888
0.0853973
-0.0809632
-1.54034
1.53591
0.0762553
-0.0706868
-1.26441
1.25884
0.065438
-0.0596733
-1.04223
1.03646
0.0545166
-0.0490815
-0.861622
0.856186
0.0443758
-0.0395375
-0.714022
0.709184
0.0353704
-0.0310036
-0.591722
0.587355
0.0270075
-0.0224284
-0.479737
0.475158
0.0179666
-0.0128418
-0.343389
0.338264
0.008301
-0.00398571
-0.173079
0.168764
0.00124546
-0.0268622
0.0256167
-0.0559324
0.0599376
-0.00400517
0.021392
-0.0302661
-0.326544
0.335418
0.0384736
-0.0448452
-0.466814
0.473186
0.0512157
-0.0573418
-0.574386
0.580512
0.0646397
-0.071649
-0.685768
0.692778
0.0793653
-0.0861522
-0.814422
0.821209
0.0931152
-0.0988515
-0.964433
0.970169
0.104265
-0.108209
-1.1378
1.14175
0.111197
-0.11248
-1.33737
1.33865
0.112005
-0.109577
-1.56682
1.5644
0.105405
-0.0996561
-1.53074
1.52499
0.0937667
-0.0869351
-1.25259
1.24576
0.0805672
-0.0736132
-1.03001
1.02306
0.0674078
-0.0608648
-0.84993
0.843387
0.0551883
-0.0493383
-0.703294
0.697444
0.0443003
-0.0390268
-0.58198
0.576707
0.0341716
-0.0285277
-0.470268
0.464625
0.0229301
-0.0164093
-0.333415
0.326894
0.0105814
-0.00504051
-0.164703
0.159162
0.00155144
-0.024508
0.0229565
-0.0637056
0.0709549
-0.00724922
0.035078
-0.0480287
-0.345719
0.358669
0.059055
-0.0670493
-0.483122
0.491116
0.0750794
-0.0829707
-0.589269
0.59716
0.0920944
-0.100425
-0.700212
0.708543
0.109201
-0.116619
-0.827838
0.835256
0.123938
-0.129698
-0.975554
0.981314
0.134829
-0.138225
-1.14514
1.14853
0.14034
-0.140563
-1.33918
1.3394
0.138701
-0.134781
-1.56105
1.55713
0.129058
-0.121726
-1.51834
1.51101
0.114469
-0.10624
-1.23816
1.22993
0.0986612
-0.0904509
-1.01537
1.00716
0.0831478
-0.0754527
-0.835965
0.82827
0.0687624
-0.0618438
-0.690402
0.683483
0.0558673
-0.0496043
-0.570094
0.563831
0.0438114
-0.0369318
-0.458349
0.451469
0.0298713
-0.0214904
-0.320619
0.312238
0.013831
-0.00646873
-0.154074
0.146712
0.00189723
-0.0216161
0.0197189
-0.0779311
0.0812657
-0.00333459
0.0242738
-0.035278
-0.374573
0.385577
0.0451956
-0.0530832
-0.504453
0.51234
0.0620543
-0.0716904
-0.607312
0.616948
0.0823855
-0.0919581
-0.716553
0.726126
0.102625
-0.112055
-0.841935
0.851365
0.12185
-0.130243
-0.986165
0.994557
0.138575
-0.145224
-1.15089
1.15754
0.151106
-0.154902
-1.33849
1.34229
0.156841
-0.156066
-1.55199
1.55122
0.152446
-0.146381
-1.50259
1.49653
0.139284
-0.13029
-1.22085
1.21185
0.121501
-0.110971
-0.998197
0.987666
0.101322
-0.0907255
-0.819702
0.809106
0.081266
-0.0712431
-0.675336
0.665313
0.0621733
-0.0528025
-0.555905
0.546534
0.04445
-0.0344522
-0.443569
0.433571
0.0249743
-0.0153817
-0.303821
0.294228
0.00814639
-0.00285973
-0.140068
0.134781
0.000447224
-0.0180887
0.0176415
-0.0886246
0.0853001
0.0033245
0.00124816
-0.00767278
-0.399323
0.405748
0.0156231
-0.0222955
-0.524983
0.531655
0.0308144
-0.0392143
-0.626976
0.635376
0.0488631
-0.0576743
-0.735638
0.744449
0.067067
-0.075585
-0.860324
0.868842
0.0844497
-0.091774
-1.00267
1.00999
0.099273
-0.104959
-1.16407
1.16975
0.109976
-0.112956
-1.3459
1.34888
0.113875
-0.112373
-1.54974
1.54824
0.108177
-0.101701
-1.48975
1.48328
0.0942083
-0.0850063
-1.20245
1.19324
0.0761605
-0.0660648
-0.97691
0.966814
0.0566247
-0.0461742
-0.797722
0.787272
0.0368443
-0.0272965
-0.653359
0.643811
0.0191576
-0.0108341
-0.534456
0.526132
0.00377775
0.00272527
-0.421685
0.415182
-0.0067123
0.00825515
-0.283292
0.281749
-0.00740268
0.0046919
-0.128105
0.130816
-0.00192534
-0.0161955
0.0181208
-0.0878447
0.0843232
0.00352143
-0.00658679
0.00376819
-0.415335
0.418153
0.00114511
-0.00664522
-0.54189
0.54739
0.0137567
-0.0209764
-0.644167
0.651386
0.0291913
-0.0367374
-0.752763
0.76031
0.0450085
-0.0523709
-0.876725
0.884088
0.0598302
-0.0663696
-1.01718
1.02372
0.0729075
-0.0779934
-1.17508
1.18017
0.0821245
-0.0844324
-1.35134
1.35364
0.0851183
-0.0834408
-1.54628
1.5446
0.0793229
-0.0732243
-1.47652
1.47042
0.0663779
-0.0582874
-1.18429
1.1762
0.0502777
-0.0414853
-0.956803
0.948011
0.0333694
-0.0245129
-0.777325
0.768469
0.0168967
-0.0091064
-0.633662
0.625871
0.00269367
0.00374184
-0.515905
0.50947
-0.00858996
0.0124263
-0.406544
0.402707
-0.0139098
0.0123592
-0.276176
0.277727
-0.00913691
0.00513269
-0.130522
0.134526
-0.00188023
-0.0184097
0.0202899
-0.0853954
0.0820583
0.00333709
-0.00911576
0.00830126
-0.425257
0.426071
-0.00518289
0.000953297
-0.555267
0.559497
0.00515274
-0.0111716
-0.658447
0.664466
0.0181732
-0.0246258
-0.767597
0.774049
0.0316611
-0.0379575
-0.891042
0.897339
0.0447329
-0.0503221
-1.02991
1.0355
0.0561349
-0.0602805
-1.18496
1.18911
0.0639906
-0.0660853
-1.35589
1.35798
0.0666153
-0.064893
-1.54277
1.54104
0.0613889
-0.0562228
-1.46422
1.45905
0.050405
-0.0432911
-1.16841
1.1613
0.0366535
-0.0294876
-0.939551
0.932385
0.0228241
-0.0159305
-0.760259
0.753365
0.00972563
-0.0036468
-0.617763
0.611684
-0.00126609
0.00570715
-0.501805
0.497364
-0.00871503
0.0108425
-0.396323
0.394196
-0.0112481
0.00912351
-0.274043
0.276167
-0.00649576
0.00349699
-0.134836
0.137835
-0.00128228
-0.0205339
0.0218161
-0.0830022
0.0802469
0.00275526
-0.00925494
0.00967916
-0.431609
0.431185
-0.00725715
0.00392411
-0.566228
0.569561
0.000994945
-0.006373
-0.670495
0.675873
0.0122506
-0.0179207
-0.78011
0.78578
0.0240152
-0.0295077
-0.903314
0.908807
0.0353772
-0.0404285
-1.04105
1.0461
0.0454609
-0.0494192
-1.19324
1.1972
0.0527931
-0.0547464
-1.3599
1.36185
0.0553383
-0.0539196
-1.5394
1.53798
0.0509612
-0.0463968
-1.4536
1.44903
0.0414507
-0.0355745
-1.15459
1.14871
0.0300401
-0.0239887
-0.925429
0.919377
0.0186098
-0.0129913
-0.746712
0.741094
0.00817089
-0.00339684
-0.60557
0.600796
-0.000322495
0.00358414
-0.491594
0.488332
-0.00584405
0.0072034
-0.389558
0.388199
-0.00718749
0.00578472
-0.273056
0.274459
-0.00410806
0.00215162
-0.137171
0.139127
-0.000864902
-0.021596
0.0224609
-0.0810888
0.078802
0.00228677
-0.00847079
0.00907874
-0.435683
0.435075
-0.00768717
0.00485629
-0.574818
0.577649
-0.000271502
-0.00431602
-0.680792
0.685379
0.00939706
-0.0143465
-0.79093
0.79588
0.0197905
-0.0247403
-0.914061
0.919011
0.0301809
-0.0347017
-1.05097
1.05549
0.0393661
-0.0430781
-1.20101
1.20472
0.0462409
-0.0481225
-1.36371
1.36559
0.0487814
-0.0479667
-1.53666
1.53585
0.0454249
-0.0416482
-1.44431
1.44053
0.0373741
-0.0323019
-1.14297
1.1379
0.0277615
-0.0224876
-0.913552
0.908278
0.0178835
-0.0132434
-0.735714
0.731074
0.00920891
-0.00520546
-0.596066
0.592063
0.00203828
0.000900385
-0.483852
0.480913
-0.0026268
0.00377131
-0.384355
0.38321
-0.00420095
0.0035333
-0.271408
0.272076
-0.00254092
0.00141076
-0.13758
0.13871
-0.000610056
-0.0219177
0.0225278
-0.0797143
0.0779507
0.00176362
-0.00714126
0.00792244
-0.438603
0.437822
-0.00669418
0.00443893
-0.582406
0.584662
-0.000312845
-0.00383477
-0.689757
0.693905
0.00868086
-0.0129837
-0.800648
0.804951
0.0178147
-0.0222588
-0.924024
0.928469
0.0274871
-0.0316804
-1.06012
1.06431
0.0359492
-0.0395974
-1.20836
1.21201
0.0430713
-0.0449926
-1.36764
1.36956
0.0459533
-0.0453595
-1.53484
1.53425
0.0434959
-0.0399794
-1.4367
1.43318
0.0363448
-0.0319602
-1.13283
1.12844
0.0277938
-0.0232398
-0.903196
0.898642
0.0190725
-0.0147342
-0.726311
0.721972
0.0113228
-0.0076228
-0.587873
0.584173
0.00461662
-0.00202916
-0.477061
0.474474
0.000185395
0.0012028
-0.379768
0.37838
-0.00182219
0.00180075
-0.269133
0.269155
-0.00142269
0.000882167
-0.136692
0.137232
-0.00044555
-0.0218007
0.0222463
-0.0789439
0.0775581
0.00138588
-0.00578893
0.00665098
-0.44088
0.440018
-0.00547091
0.00321438
-0.588987
0.591244
0.000557144
-0.00428368
-0.697852
0.701578
0.00847674
-0.0126465
-0.809365
0.813535
0.017145
-0.0217478
-0.932809
0.937412
0.0263181
-0.0303853
-1.06865
1.07272
0.0348532
-0.0383635
-1.21562
1.21913
0.0415113
-0.0439683
-1.37151
1.37397
0.045261
-0.0450902
-1.53385
1.53368
0.0435098
-0.0406328
-1.42992
1.42704
0.0373575
-0.0333042
-1.12379
1.11974
0.0294847
-0.0251941
-0.893989
0.889698
0.0212831
-0.0173308
-0.717674
0.713721
0.0138026
-0.0103223
-0.580244
0.576763
0.00750113
-0.00473463
-0.470977
0.46821
0.00269597
-0.00127135
-0.374981
0.373556
0.000261247
0.000336724
-0.266061
0.265463
-0.000544965
0.000487652
-0.134948
0.135006
-0.000328067
-0.02142
0.0217481
-0.0787473
0.0775836
0.00116367
-0.00434378
0.00496479
-0.442983
0.442362
-0.0039641
0.00167413
-0.594978
0.597268
0.00177316
-0.0053421
-0.705395
0.708964
0.00936522
-0.0131661
-0.81764
0.821441
0.0177964
-0.0216641
-0.941535
0.945403
0.0262276
-0.0301536
-1.07699
1.08092
0.0345578
-0.0383085
-1.22268
1.22643
0.041809
-0.0441528
-1.37627
1.37861
0.045893
-0.0462055
-1.53355
1.53386
0.0452869
-0.0426868
-1.4241
1.4215
0.0397432
-0.035924
-1.11573
1.11191
0.0323005
-0.028084
-0.885146
0.88093
0.0243487
-0.0203229
-0.709468
0.705442
0.0168191
-0.0132575
-0.572958
0.569396
0.0102513
-0.00755419
-0.464728
0.462031
0.00527106
-0.00350145
-0.369968
0.368198
0.00211137
-0.00106203
-0.262262
0.261212
0.000356067
0.000158965
-0.132481
0.131966
-0.000232999
-0.0207917
0.0210247
-0.0788275
0.0779934
0.000834123
-0.00313029
0.00329076
-0.445292
0.445131
-0.00246842
0.000186384
-0.600245
0.602527
0.00298327
-0.00642215
-0.712412
0.71585
0.010276
-0.014201
-0.82522
0.829145
0.0182514
-0.0222775
-0.949528
0.953554
0.0268154
-0.0305591
-1.0853
1.08904
0.0350821
-0.0388311
-1.23003
1.23378
0.0424503
-0.0453721
-1.38141
1.38433
0.0476636
-0.0483173
-1.5343
1.53496
0.0476619
-0.0457009
-1.4191
1.41714
0.0431563
-0.03949
-1.1079
1.10423
0.0358935
-0.0319203
-0.876527
0.872554
0.0278517
-0.0239104
-0.701077
0.697136
0.0203235
-0.0165661
-0.565673
0.561916
0.0135424
-0.0104892
-0.458302
0.455249
0.00802339
-0.00571025
-0.36472
0.362407
0.00406035
-0.00254729
-0.257815
0.256302
0.00122283
-0.000216776
-0.129359
0.128353
-0.00014072
-0.0199444
0.0200851
-0.0792897
0.0786097
0.000680078
-0.00215571
0.00228645
-0.447802
0.447672
-0.000946179
-0.00118746
-0.605483
0.607616
0.00441412
-0.00766914
-0.718944
0.722199
0.0113539
-0.0148904
-0.832839
0.836375
0.0190557
-0.0227827
-0.957634
0.961361
0.0272786
-0.0314524
-1.09327
1.09744
0.0356515
-0.0397453
-1.23762
1.24172
0.0438152
-0.0468798
-1.38721
1.39028
0.0495979
-0.051066
-1.5359
1.53737
0.0508803
-0.0495005
-1.41507
1.41369
0.0470595
-0.0436568
-1.10053
1.09712
0.0402558
-0.0362017
-0.868025
0.863971
0.0322401
-0.028109
-0.692594
0.688463
0.0243577
-0.0203179
-0.557827
0.553787
0.0169619
-0.0137023
-0.451515
0.448256
0.0107877
-0.00811047
-0.358757
0.35608
0.00599655
-0.00397278
-0.252587
0.250563
0.00221544
-0.000699895
-0.125579
0.124064
1.36678e-05
-0.0189279
0.0189142
-0.0799939
0.0794724
0.000521453
-0.00113236
0.00102957
-0.450485
0.450588
9.11429e-05
-0.00252407
-0.6103
0.612733
0.00562666
-0.00869268
-0.72519
0.728256
0.0124272
-0.0158065
-0.83995
0.843329
0.0198152
-0.0236538
-0.965587
0.969426
0.0280546
-0.032196
-1.10152
1.10566
0.036617
-0.0407543
-1.24578
1.24992
0.0450354
-0.0488667
-1.39368
1.39751
0.0520831
-0.0539112
-1.53887
1.5407
0.0544505
-0.0533967
-1.41224
1.41119
0.0514454
-0.048426
-1.09363
1.09062
0.044924
-0.0408829
-0.859417
0.855376
0.0368826
-0.0324737
-0.683816
0.679407
0.0286021
-0.0242356
-0.549703
0.545337
0.0206409
-0.0169176
-0.444253
0.440529
0.0138042
-0.0107502
-0.352116
0.349062
0.00805185
-0.00547917
-0.246514
0.243941