/*--------------------------------*- C++ -*----------------------------------*\
  =========                 |
  \\      /  F ield         | OpenFOAM: The Open Source CFD Toolbox
   \\    /   O peration     | Website:  https://openfoam.org
    \\  /    A nd           | Version:  9
     \\/     M anipulation  |
\*---------------------------------------------------------------------------*/
FoamFile
{
    format      ascii;
    class       volVectorField;
    location    "14";
    object      U;
}
// * * * * * * * * * * * * * * * * * * * * * * * * * * * * * * * * * * * * * //

dimensions      [0 1 -1 0 0 0 0];

internalField   nonuniform List<vector> 
8800
(
(0.984926 -0.0884399 0)
(1.00209 -0.0568089 0)
(0.999695 -0.0305438 0)
(1.00003 -0.0158567 0)
(1.00001 -0.00869856 0)
(1.00004 -0.00504316 0)
(1.00004 -0.00294322 0)
(1.00004 -0.00164995 0)
(1.00005 -0.000790059 0)
(1.00005 -0.000123503 0)
(1.00005 0.000529334 0)
(1.00004 0.00126912 0)
(1.00003 0.00230052 0)
(1.00004 0.00392102 0)
(1.00001 0.00665001 0)
(1.00004 0.0117088 0)
(0.999946 0.0220301 0)
(0.999179 0.0411473 0)
(1.0074 0.0768869 0)
(0.773646 0.0450651 0)
(0.361222 -0.0151492 0)
(1.04574 -0.0740745 0)
(1.08717 -0.0676961 0)
(1.04777 -0.0519796 0)
(1.02454 -0.0379966 0)
(1.01238 -0.0257803 0)
(1.00651 -0.0164912 0)
(1.00365 -0.0100795 0)
(1.00218 -0.00558795 0)
(1.00148 -0.00211298 0)
(1.00137 0.000985875 0)
(1.00174 0.00419737 0)
(1.00276 0.00802611 0)
(1.00481 0.0132977 0)
(1.00891 0.0210108 0)
(1.01737 0.031768 0)
(1.03454 0.0451538 0)
(1.06563 0.0594321 0)
(1.09421 0.0727568 0)
(0.842623 0.0556231 0)
(0.217651 -0.00162031 0)
(1.07628 -0.0499283 0)
(1.1001 -0.0482445 0)
(1.0649 -0.0397371 0)
(1.03999 -0.0325317 0)
(1.02349 -0.0251393 0)
(1.0136 -0.0178629 0)
(1.00811 -0.0113515 0)
(1.00537 -0.00579702 0)
(1.00432 -0.000756186 0)
(1.00459 0.00407625 0)
(1.00636 0.00921699 0)
(1.01026 0.0151274 0)
(1.01766 0.0219519 0)
(1.03055 0.0292794 0)
(1.05098 0.0364422 0)
(1.08089 0.0438359 0)
(1.10673 0.0510709 0)
(0.943975 0.0409359 0)
(0.217337 0.00162986 0)
(0.177093 -0.000615477 0)
(1.0201 -0.0346553 0)
(1.10573 -0.0403492 0)
(1.07797 -0.0351867 0)
(1.05273 -0.0292226 0)
(1.03539 -0.0235474 0)
(1.02335 -0.0179635 0)
(1.01541 -0.0122433 0)
(1.01074 -0.00656744 0)
(1.00873 -0.000798617 0)
(1.0093 0.00494685 0)
(1.01248 0.0104987 0)
(1.0186 0.0160637 0)
(1.02841 0.0215556 0)
(1.04286 0.0269662 0)
(1.06363 0.0327133 0)
(1.09408 0.0386672 0)
(1.09532 0.0405789 0)
(0.832099 0.0221506 0)
(0.176571 0.000626737 0)
(0.156566 -0.000441622 0)
(0.96129 -0.0239947 0)
(1.10506 -0.0327978 0)
(1.08788 -0.0301543 0)
(1.06104 -0.0256983 0)
(1.04306 -0.0211261 0)
(1.03058 -0.0164194 0)
(1.02185 -0.0115616 0)
(1.01621 -0.00634453 0)
(1.01356 -0.000577731 0)
(1.0143 0.00523959 0)
(1.01829 0.0105412 0)
(1.02529 0.0153695 0)
(1.03563 0.0199329 0)
(1.05048 0.0243616 0)
(1.07236 0.0286671 0)
(1.10185 0.0327491 0)
(1.07239 0.0314566 0)
(0.748659 0.0132154 0)
(0.155788 0.000454362 0)
(0.143597 -0.000315772 0)
(0.909012 -0.0167336 0)
(1.0982 -0.0264183 0)
(1.09549 -0.0256001 0)
(1.06774 -0.0225364 0)
(1.04835 -0.0191387 0)
(1.03525 -0.0151209 0)
(1.02639 -0.0105439 0)
(1.02066 -0.00557572 0)
(1.0179 -0.000193432 0)
(1.01858 0.00515643 0)
(1.02255 0.0101202 0)
(1.02954 0.0146164 0)
(1.04018 0.0186417 0)
(1.05603 0.0220941 0)
(1.07942 0.0249961 0)
(1.10435 0.0273894 0)
(1.04393 0.0241466 0)
(0.688748 0.00850688 0)
(0.142516 0.000331206 0)
(0.135303 -0.000202549 0)
(0.867933 -0.0104007 0)
(1.08751 -0.0193206 0)
(1.09962 -0.0199724 0)
(1.07296 -0.0178797 0)
(1.05366 -0.0153501 0)
(1.04026 -0.0124686 0)
(1.03082 -0.00897284 0)
(1.02463 -0.00474868 0)
(1.02158 0.000214575 0)
(1.02226 0.00528544 0)
(1.02643 0.00957721 0)
(1.03389 0.0130691 0)
(1.04494 0.0158277 0)
(1.06081 0.018181 0)
(1.08412 0.0202293 0)
(1.10358 0.0212512 0)
(1.01568 0.0167695 0)
(0.648225 0.00500806 0)
(0.133848 0.000222447 0)
(0.131141 -6.11502e-05 0)
(0.840122 -0.00524621 0)
(1.07503 -0.0122139 0)
(1.10048 -0.0138393 0)
(1.07647 -0.012879 0)
(1.05732 -0.0113983 0)
(1.04426 -0.00933658 0)
(1.03527 -0.00671439 0)
(1.02931 -0.00342134 0)
(1.02631 0.000781499 0)
(1.02678 0.00507925 0)
(1.03066 0.00846435 0)
(1.03757 0.0109556 0)
(1.04811 0.0128038 0)
(1.06375 0.0140659 0)
(1.08655 0.0149734 0)
(1.09946 0.0147843 0)
(0.991304 0.00998684 0)
(0.624523 0.0023952 0)
(0.129242 8.57762e-05 0)
(0.12989 1.45735e-05 0)
(0.823401 -0.0024626 0)
(1.06366 -0.00756232 0)
(1.09949 -0.00956194 0)
(1.07771 -0.00959223 0)
(1.05876 -0.00875596 0)
(1.04585 -0.00751962 0)
(1.037 -0.00547927 0)
(1.03129 -0.00249259 0)
(1.0284 0.00136113 0)
(1.02864 0.00524161 0)
(1.03209 0.00827593 0)
(1.0387 0.0102275 0)
(1.04899 0.0113508 0)
(1.06436 0.0119411 0)
(1.08658 0.0116277 0)
(1.0938 0.0105861 0)
(0.972735 0.0060209 0)
(0.611842 0.00114079 0)
(0.127429 1.63834e-05 0)
(0.129744 2.18838e-05 0)
(0.812407 -0.00147477 0)
(1.05279 -0.00586447 0)
(1.09689 -0.0089348 0)
(1.07804 -0.00946557 0)
(1.06051 -0.00924317 0)
(1.0486 -0.00784246 0)
(1.04057 -0.00546205 0)
(1.03524 -0.00207932 0)
(1.03235 0.0019881 0)
(1.03239 0.00601798 0)
(1.03536 0.00921557 0)
(1.0411 0.011368 0)
(1.05032 0.0124463 0)
(1.06427 0.0123262 0)
(1.08504 0.0118331 0)
(1.08632 0.0095857 0)
(0.957477 0.00460902 0)
(0.603861 0.000810668 0)
(0.126595 1.16931e-05 0)
(0.1298 1.86409e-05 0)
(0.804029 -0.000898009 0)
(1.04064 -0.00485245 0)
(1.09135 -0.00922479 0)
(1.07733 -0.0111032 0)
(1.06166 -0.0108948 0)
(1.05092 -0.00923025 0)
(1.04359 -0.00627116 0)
(1.03843 -0.00224685 0)
(1.03541 0.00265208 0)
(1.03517 0.00746162 0)
(1.03773 0.011239 0)
(1.04276 0.0138105 0)
(1.05087 0.0151881 0)
(1.06321 0.0150979 0)
(1.08117 0.0135745 0)
(1.07539 0.00955305 0)
(0.943131 0.00390722 0)
(0.597561 0.000714563 0)
(0.1258 2.54679e-05 0)
(0.130024 2.17228e-05 0)
(0.798247 -0.000282098 0)
(1.02839 -0.00324873 0)
(1.0828 -0.00796492 0)
(1.07566 -0.0109256 0)
(1.06294 -0.0110196 0)
(1.05416 -0.00929875 0)
(1.04763 -0.00614647 0)
(1.0428 -0.0018698 0)
(1.03969 0.00356642 0)
(1.0391 0.00884067 0)
(1.04102 0.0128919 0)
(1.04523 0.0154776 0)
(1.05179 0.0165793 0)
(1.0618 0.0163831 0)
(1.07391 0.0136243 0)
(1.06154 0.0084153 0)
(0.930282 0.00306086 0)
(0.592558 0.000610503 0)
(0.124959 3.20954e-05 0)
(0.13052 3.35999e-05 0)
(0.795375 0.000291531 0)
(1.01895 -0.00131046 0)
(1.07396 -0.00485921 0)
(1.07221 -0.00758777 0)
(1.06401 -0.00817666 0)
(1.05708 -0.00691022 0)
(1.05141 -0.0041396 0)
(1.04705 -0.000147915 0)
(1.04389 0.00494468 0)
(1.04284 0.00979747 0)
(1.04399 0.0133663 0)
(1.04708 0.0154094 0)
(1.05186 0.0159637 0)
(1.05868 0.014704 0)
(1.06495 0.0113934 0)
(1.04826 0.00645311 0)
(0.920384 0.00229688 0)
(0.588732 0.000544926 0)
(0.12413 3.4487e-05 0)
(0.131343 4.4398e-05 0)
(0.795226 0.000768672 0)
(1.01372 0.00037915 0)
(1.06768 -0.00155865 0)
(1.0693 -0.00333946 0)
(1.06439 -0.00383774 0)
(1.05935 -0.00288967 0)
(1.05467 -0.000632688 0)
(1.05076 0.00272174 0)
(1.04746 0.00683526 0)
(1.04579 0.0105502 0)
(1.0463 0.0129026 0)
(1.04786 0.0139823 0)
(1.05081 0.0134902 0)
(1.0545 0.011662 0)
(1.05693 0.00858127 0)
(1.03808 0.00479487 0)
(0.913447 0.00190377 0)
(0.585571 0.000563134 0)
(0.123277 3.86745e-05 0)
(0.132472 5.85915e-05 0)
(0.79682 0.00117993 0)
(1.01217 0.00165146 0)
(1.06458 0.00106905 0)
(1.06775 0.000384859 0)
(1.06482 0.00039864 0)
(1.06121 0.00138256 0)
(1.05735 0.00333336 0)
(1.05367 0.00608767 0)
(1.05011 0.00915567 0)
(1.0477 0.0116493 0)
(1.04735 0.0128278 0)
(1.04752 0.0126741 0)
(1.04875 0.0114993 0)
(1.05037 0.009463 0)
(1.05055 0.00681184 0)
(1.0309 0.00401636 0)
(0.908312 0.00190935 0)
(0.582433 0.000668209 0)
(0.122286 4.82433e-05 0)
(0.133928 7.39792e-05 0)
(0.79999 0.00157028 0)
(1.01304 0.00261495 0)
(1.0642 0.00307542 0)
(1.06784 0.0033312 0)
(1.06588 0.00399635 0)
(1.06305 0.00530097 0)
(1.05963 0.00723586 0)
(1.05591 0.00961712 0)
(1.05189 0.0119175 0)
(1.04865 0.0133651 0)
(1.04723 0.013391 0)
(1.04619 0.0124659 0)
(1.04615 0.0107574 0)
(1.04645 0.00861664 0)
(1.04547 0.00627168 0)
(1.02552 0.00401162 0)
(0.903758 0.00219456 0)
(0.578821 0.000836327 0)
(0.121046 6.23302e-05 0)
(0.135783 9.30905e-05 0)
(0.804502 0.00201237 0)
(1.01574 0.00356308 0)
(1.06576 0.00470615 0)
(1.06951 0.00574701 0)
(1.06787 0.00711693 0)
(1.06526 0.00895101 0)
(1.06185 0.011115 0)
(1.05777 0.0134049 0)
(1.05304 0.0152546 0)
(1.04876 0.015903 0)
(1.04615 0.0150782 0)
(1.04418 0.0133765 0)
(1.04315 0.0112857 0)
(1.04259 0.00899427 0)
(1.04098 0.00670622 0)
(1.02075 0.00456455 0)
(0.898926 0.00268498 0)
(0.574378 0.0010606 0)
(0.119472 8.0948e-05 0)
(0.138146 0.000117956 0)
(0.810495 0.00256576 0)
(1.02008 0.00461854 0)
(1.06901 0.0063109 0)
(1.07261 0.00803044 0)
(1.0709 0.0101765 0)
(1.0681 0.0126829 0)
(1.06433 0.0153016 0)
(1.05956 0.0177431 0)
(1.0538 0.0193784 0)
(1.04828 0.0194116 0)
(1.04436 0.0178927 0)
(1.04149 0.0155244 0)
(1.03966 0.0129391 0)
(1.03848 0.0103502 0)
(1.03643 0.00788176 0)
(1.01578 0.00555604 0)
(0.893248 0.00336662 0)
(0.568798 0.00134579 0)
(0.117483 0.000104475 0)
(0.14118 0.000151031 0)
(0.818284 0.00327636 0)
(1.02618 0.00592887 0)
(1.07395 0.00822248 0)
(1.07714 0.0106176 0)
(1.07505 0.0135867 0)
(1.07176 0.016865 0)
(1.06732 0.020157 0)
(1.06151 0.0229666 0)
(1.05434 0.0245383 0)
(1.04727 0.0240365 0)
(1.04193 0.0218004 0)
(1.03808 0.0187453 0)
(1.0355 0.015551 0)
(1.03375 0.0125027 0)
(1.03132 0.00966936 0)
(1.01007 0.00696125 0)
(0.886368 0.00426113 0)
(0.561801 0.00169106 0)
(0.114995 0.000131208 0)
(0.145147 0.000199869 0)
(0.828408 0.00424158 0)
(1.03412 0.00768906 0)
(1.08051 0.0106794 0)
(1.08315 0.0138592 0)
(1.08047 0.0177569 0)
(1.07649 0.0220237 0)
(1.07099 0.0261218 0)
(1.06373 0.0294155 0)
(1.05471 0.0310034 0)
(1.04574 0.0299638 0)
(1.0388 0.0269208 0)
(1.03384 0.0230357 0)
(1.03043 0.0190627 0)
(1.0281 0.015368 0)
(1.02523 0.0119957 0)
(1.00324 0.00873532 0)
(0.878017 0.00535886 0)
(0.553112 0.00212623 0)
(0.111894 0.00016199 0)
(0.150407 0.000275268 0)
(0.841611 0.00562202 0)
(1.04434 0.010132 0)
(1.08896 0.0139583 0)
(1.09092 0.0181325 0)
(1.08747 0.0231848 0)
(1.08237 0.0285632 0)
(1.07535 0.0335679 0)
(1.06616 0.0374546 0)
(1.05483 0.0390807 0)
(1.04355 0.0374218 0)
(1.03478 0.0334175 0)
(1.02853 0.0285034 0)
(1.0242 0.0235414 0)
(1.02122 0.0189817 0)
(1.01786 0.0148783 0)
(0.99495 0.0108968 0)
(0.867559 0.00670579 0)
(0.542385 0.00265862 0)
(0.108062 0.000200504 0)
(0.157479 0.000389758 0)
(0.858878 0.00764941 0)
(1.05755 0.0135806 0)
(1.0999 0.0184645 0)
(1.10088 0.0239379 0)
(1.09623 0.0303802 0)
(1.08951 0.0370278 0)
(1.08042 0.0431 0)
(1.06874 0.0476146 0)
(1.05453 0.049176 0)
(1.04052 0.0467099 0)
(1.02963 0.0415255 0)
(1.02187 0.0353523 0)
(1.01648 0.029172 0)
(1.01277 0.0235169 0)
(1.00884 0.0184794 0)
(0.984776 0.013616 0)
(0.854579 0.00840862 0)
(0.528985 0.00331579 0)
(0.103348 0.000249057 0)
(0.167132 0.000561421 0)
(0.881424 0.0106302 0)
(1.07461 0.0183767 0)
(1.11412 0.0246309 0)
(1.11366 0.0318071 0)
(1.10728 0.0399987 0)
(1.09831 0.048214 0)
(1.08644 0.0554636 0)
(1.07149 0.0605086 0)
(1.05372 0.0617614 0)
(1.03646 0.0581797 0)
(1.02312 0.0515255 0)
(1.01358 0.0438314 0)
(1.00693 0.0361932 0)
(1.00233 0.029212 0)
(0.997701 0.0230199 0)
(0.972187 0.0170676 0)
(0.838581 0.0105997 0)
(0.51243 0.00414283 0)
(0.0975808 0.000306249 0)
(0.180662 0.000847035 0)
(0.911295 0.015196 0)
(1.09688 0.0252771 0)
(1.13269 0.0333887 0)
(1.12999 0.0428154 0)
(1.12109 0.0531564 0)
(1.10896 0.0631064 0)
(1.09335 0.0714415 0)
(1.07428 0.0767453 0)
(1.05221 0.0772908 0)
(1.03117 0.0721787 0)
(1.01501 0.0637129 0)
(1.00342 0.0542169 0)
(0.995233 0.0448707 0)
(0.989505 0.0363325 0)
(0.983937 0.0287596 0)
(0.95657 0.0214845 0)
(0.818822 0.0134228 0)
(0.492197 0.00520621 0)
(0.0906003 0.000369312 0)
(0.200355 0.00137119 0)
(0.951907 0.022748 0)
(1.12649 0.0360811 0)
(1.15696 0.0467727 0)
(1.15048 0.0589569 0)
(1.13768 0.0716431 0)
(1.1211 0.0831296 0)
(1.10065 0.0920737 0)
(1.0766 0.097011 0)
(1.04959 0.0961931 0)
(1.02434 0.0890176 0)
(1.00505 0.0783821 0)
(0.991118 0.0668336 0)
(0.981113 0.0555657 0)
(0.973944 0.0452571 0)
(0.967066 0.036083 0)
(0.937242 0.0272458 0)
(0.794292 0.0171521 0)
(0.467376 0.00661908 0)
(0.082148 0.000448309 0)
(0.229688 0.00256128 0)
(1.00898 0.0364177 0)
(1.16595 0.0545308 0)
(1.18797 0.0683791 0)
(1.17521 0.0833635 0)
(1.15647 0.097854 0)
(1.13387 0.109966 0)
(1.1075 0.118465 0)
(1.07774 0.121961 0)
(1.04531 0.118834 0)
(1.01557 0.108943 0)
(0.992956 0.0957866 0)
(0.976465 0.0820161 0)
(0.964374 0.0687407 0)
(0.955413 0.056568 0)
(0.946705 0.0456626 0)
(0.913261 0.0350908 0)
(0.763711 0.0223792 0)
(0.437324 0.00860165 0)
(0.0724355 0.000505713 0)
(0.270548 0.00946599 -2.97141e-20)
(1.08519 0.0644781 -2.36434e-20)
(1.21356 0.086557 6.7892e-21)
(1.22317 0.103831 0)
(1.20187 0.119989 3.45095e-35)
(1.1756 0.134219 -1.66002e-22)
(1.14589 0.145211 -1.74679e-21)
(1.11287 0.15188 0)
(1.07688 0.152913 8.12619e-35)
(1.03855 0.146775 -6.45271e-21)
(1.00383 0.133824 0)
(0.977356 0.118081 -9.54551e-21)
(0.957725 0.102176 -2.93551e-20)
(0.942875 0.0871039 -1.42506e-20)
(0.931313 0.0734777 -4.5134e-21)
(0.91969 0.0613325 -2.73791e-21)
(0.882424 0.049409 0)
(0.723996 0.0331584 1.96375e-21)
(0.400438 0.0151803 2.32058e-21)
(0.0632412 0.00203584 4.0572e-20)
(0.295892 0.0262549 -5.15345e-20)
(1.14576 0.110647 9.94145e-22)
(1.256 0.135309 -3.10677e-21)
(1.25499 0.152801 0)
(1.22577 0.167305 5.87744e-21)
(1.19215 0.179713 4.08049e-21)
(1.15544 0.188766 -7.82516e-22)
(1.11569 0.193307 -9.59362e-21)
(1.07314 0.191991 0)
(1.02821 0.183182 2.73448e-20)
(0.987343 0.167649 3.08401e-20)
(0.955678 0.149889 1.00371e-20)
(0.931552 0.132498 4.01476e-20)
(0.912638 0.116274 5.96e-20)
(0.897203 0.101727 0)
(0.881229 0.0889851 8.91717e-20)
(0.838444 0.0762853 1.30646e-19)
(0.681609 0.0563875 1.44682e-19)
(0.375475 0.0308106 -1.6787e-19)
(0.0598364 0.00513682 -3.03294e-21)
(0.290799 0.0426885 0)
(1.1804 0.169638 -1.54792e-20)
(1.28796 0.196986 0)
(1.27993 0.211687 2.61898e-20)
(1.24439 0.222607 0)
(1.20442 0.231514 1.56132e-20)
(1.16147 0.237284 -6.44138e-23)
(1.11558 0.238673 -1.23374e-20)
(1.06698 0.234263 -3.07161e-21)
(1.01598 0.222437 1.30416e-20)
(0.96958 0.204375 7.24612e-20)
(0.933384 0.184992 -5.38788e-22)
(0.905448 0.166802 -3.02714e-20)
(0.883159 0.150414 -5.92503e-20)
(0.86468 0.136149 7.21332e-20)
(0.846241 0.12394 -1.29715e-19)
(0.804863 0.111414 -1.78307e-20)
(0.665155 0.0879831 0)
(0.383671 0.0519245 3.84063e-22)
(0.0675545 0.00968165 0)
(0.280406 0.0566655 -3.75826e-19)
(1.19594 0.231694 1.57353e-19)
(1.30811 0.263317 8.57939e-20)
(1.29623 0.275218 -1.6842e-20)
(1.25631 0.282217 2.59054e-20)
(1.21166 0.287034 -3.67524e-20)
(1.16372 0.28891 -2.03058e-21)
(1.11268 0.286594 0)
(1.05883 0.278647 -4.80675e-20)
(1.00256 0.263491 0)
(0.951456 0.24283 -3.66726e-20)
(0.911604 0.221919 -5.2714e-20)
(0.880902 0.203111 -3.39817e-20)
(0.856527 0.186768 -4.42054e-20)
(0.83656 0.172932 0)
(0.817516 0.161401 0)
(0.779569 0.149226 -1.19919e-19)
(0.655248 0.123194 2.38812e-20)
(0.390336 0.0750396 -1.38356e-20)
(0.0730011 0.0144342 -1.60485e-20)
(0.270357 0.0690735 2.74659e-19)
(1.19941 0.29304 0)
(1.31884 0.330243 -2.38001e-19)
(1.30477 0.339857 -6.24602e-20)
(1.26187 0.343049 -4.9194e-20)
(1.21381 0.343883 0)
(1.16205 0.341861 -9.37755e-21)
(1.10691 0.335709 9.24347e-21)
(1.04876 0.324062 1.99231e-20)
(0.988065 0.305379 6.64231e-20)
(0.933175 0.281907 0)
(0.890678 0.259235 -1.14642e-19)
(0.858232 0.239544 -7.39434e-20)
(0.83275 0.222925 -4.46451e-20)
(0.812149 0.209229 2.95039e-19)
(0.79326 0.198018 3.62664e-20)
(0.758712 0.185693 1.73494e-19)
(0.644394 0.156362 -8.36984e-19)
(0.390194 0.0960679 4.94283e-19)
(0.0747934 0.0186691 -5.91036e-19)
(0.26169 0.080203 2.87945e-19)
(1.19528 0.351718 -5.44362e-20)
(1.32254 0.39598 4.1482e-20)
(1.30725 0.403668 1.14026e-19)
(1.26224 0.403329 7.14693e-20)
(1.21166 0.400455 3.26126e-21)
(1.15697 0.394725 9.02738e-21)
(1.09851 0.384886 4.38887e-21)
(1.0368 0.36956 -4.38217e-20)
(0.972461 0.347245 0)
(0.914382 0.320721 -4.87738e-20)
(0.869724 0.295998 -2.942e-21)
(0.836007 0.275043 -8.28962e-20)
(0.809883 0.257724 0)
(0.789141 0.243643 -6.43396e-20)
(0.770805 0.232168 -1.56605e-19)
(0.738988 0.219122 4.33994e-19)
(0.63119 0.185881 -4.31361e-19)
(0.384917 0.114248 6.10015e-19)
(0.074378 0.0222185 -6.27883e-19)
(0.254723 0.0904894 -8.66924e-22)
(1.18659 0.407206 6.60774e-20)
(1.32104 0.459335 1.97226e-19)
(1.30515 0.465581 -6.92657e-20)
(1.25859 0.462082 4.0591e-20)
(1.20604 0.455838 0)
(1.14902 0.446654 2.13894e-20)
(1.08785 0.433325 -9.33767e-22)
(1.02309 0.414458 -1.89691e-20)
(0.955508 0.388535 0)
(0.894721 0.35877 -4.70325e-20)
(0.848408 0.331647 -6.73781e-20)
(0.813866 0.308982 9.0669e-20)
(0.7875 0.290459 -5.84384e-20)
(0.766908 0.275527 -2.83263e-19)
(0.749174 0.263331 1.74472e-19)
(0.719218 0.249215 5.54073e-20)
(0.615688 0.211824 0)
(0.37614 0.129724 -5.92411e-19)
(0.072666 0.0251292 -2.14808e-20)
(0.249278 0.100269 4.6761e-20)
(1.17526 0.459387 -7.56453e-20)
(1.31573 0.519784 -1.07522e-19)
(1.29956 0.525033 -2.13427e-19)
(1.25187 0.518754 1.95099e-19)
(1.19781 0.509489 -1.08004e-19)
(1.13891 0.497129 -4.52893e-20)
(1.07546 0.480558 2.3455e-22)
(1.00804 0.458362 2.17967e-20)
(0.937654 0.428907 -1.61089e-19)
(0.874581 0.395795 -5.85723e-20)
(0.826809 0.365957 0)
(0.791576 0.341172 9.91733e-20)
(0.765057 0.32103 1.23067e-19)
(0.744686 0.304874 1.51959e-19)
(0.727532 0.291635 -1.9036e-19)
(0.698869 0.275949 -5.73075e-20)
(0.598307 0.234443 6.77485e-20)
(0.36494 0.142644 0)
(0.070151 0.0274235 -4.68258e-20)
(0.245098 0.109683 -5.39831e-19)
(1.16268 0.50844 3.45556e-19)
(1.30759 0.577167 1.17823e-19)
(1.29139 0.581692 -1.62127e-19)
(1.24287 0.572989 1.15751e-19)
(1.18764 0.561042 -7.60098e-21)
(1.12721 0.545842 4.5294e-20)
(1.06188 0.526317 -9.83688e-22)
(0.99219 0.501005 -3.43464e-20)
(0.919155 0.468168 2.85332e-22)
(0.853814 0.431664 -1.7302e-19)
(0.804642 0.398855 1.72641e-19)
(0.768751 0.371629 -1.11371e-19)
(0.742133 0.349506 1.39111e-19)
(0.72204 0.33178 0)
(0.705417 0.317224 -1.0338e-19)
(0.67763 0.299733 -2.62797e-21)
(0.579418 0.253954 -2.96326e-19)
(0.351933 0.153391 -4.3571e-20)
(0.0669411 0.0290777 0)
(0.241959 0.118797 0)
(1.14964 0.5546 3.73549e-19)
(1.29746 0.631327 2.73515e-19)
(1.28136 0.63537 1.82259e-19)
(1.23219 0.624579 1.12261e-19)
(1.17605 0.610273 0)
(1.1144 0.59255 3.91397e-20)
(1.04745 0.570378 -2.42461e-21)
(0.975685 0.54224 7.21756e-20)
(0.900152 0.506204 -1.91617e-20)
(0.83252 0.466327 -1.27085e-19)
(0.781921 0.430401 8.59125e-20)
(0.745293 0.400469 -3.83353e-21)
(0.718528 0.376074 1.4635e-19)
(0.698696 0.356452 9.62229e-20)
(0.682598 0.340304 -2.25351e-19)
(0.655484 0.320714 2.72871e-19)
(0.559138 0.270498 8.13707e-20)
(0.337265 0.161838 3.34195e-19)
(0.0631297 0.0300823 -8.82848e-19)
(0.239652 0.127766 -1.37465e-19)
(1.13662 0.598007 2.14728e-19)
(1.28604 0.682315 -1.69199e-19)
(1.27005 0.686098 -2.10347e-19)
(1.22037 0.673462 0)
(1.16352 0.657072 9.11104e-20)
(1.10085 0.637146 -1.14744e-19)
(1.03246 0.612638 -8.47862e-21)
(0.958815 0.581984 0)
(0.880936 0.543032 -3.01467e-19)
(0.810879 0.499882 3.46474e-19)
(0.758654 0.460716 0)
(0.721124 0.427844 1.3207e-19)
(0.694075 0.400905 -3.87661e-21)
(0.674472 0.379072 -3.04398e-19)
(0.658901 0.361054 1.19577e-19)
(0.632278 0.339101 0)
(0.53738 0.284191 4.41359e-19)
(0.32097 0.167967 0)
(0.05877 0.0304103 -4.21279e-19)
(0.238022 0.13658 1.52724e-19)
(1.12391 0.638969 2.44652e-19)
(1.27383 0.730257 -1.77129e-19)
(1.25787 0.733898 0)
(1.2078 0.719632 1.52243e-19)
(1.1504 0.701415 0)
(1.0869 0.679576 1.46508e-19)
(1.0173 0.653054 1.89201e-20)
(0.941911 0.620211 5.25252e-21)
(0.861662 0.578673 -1.48644e-19)
(0.789052 0.532428 3.32427e-20)
(0.734895 0.489971 0)
(0.696294 0.453918 -2.80811e-19)
(0.668805 0.42413 4.03267e-21)
(0.64939 0.399832 0)
(0.634236 0.379595 4.81903e-21)
(0.607869 0.35493 4.02381e-19)
(0.513928 0.294921 -3.87471e-19)
(0.302988 0.171668 1.13559e-19)
(0.0538329 0.0300752 0)
(0.236707 0.145139 0)
(1.11157 0.677676 2.7274e-19)
(1.26128 0.775223 2.06601e-19)
(1.24513 0.778833 -4.27366e-21)
(1.19482 0.763112 9.43066e-20)
(1.13704 0.743315 2.13965e-19)
(1.07287 0.719828 -4.78354e-20)
(1.0022 0.691593 1.05063e-20)
(0.925191 0.656903 3.84505e-20)
(0.842562 0.613141 -2.29645e-19)
(0.767211 0.564068 -5.97685e-21)
(0.710743 0.518408 -1.13661e-19)
(0.670804 0.47901 4.60926e-19)
(0.642717 0.446046 -4.85325e-21)
(0.623236 0.418972 -2.40831e-19)
(0.608261 0.396155 -4.40525e-19)
(0.581912 0.368327 0)
(0.48869 0.302753 0)
(0.283253 0.172833 1.25429e-19)
(0.048405 0.0289751 -7.21681e-20)
(0.235939 0.153523 1.88664e-19)
(1.09975 0.714087 -5.94774e-19)
(1.24849 0.817324 -2.20702e-19)
(1.23214 0.820971 0)
(1.1817 0.803966 -2.90112e-21)
(1.12364 0.782804 2.54326e-19)
(1.05894 0.757911 -1.55448e-19)
(0.987356 0.728244 -8.37264e-20)
(0.908857 0.692064 3.32042e-20)
(0.823856 0.646496 -1.73916e-19)
(0.745516 0.594996 -2.91096e-19)
(0.686271 0.546317 3.02649e-19)
(0.644413 0.503485 0)
(0.615421 0.467035 -1.08405e-19)
(0.595683 0.436699 -2.6502e-19)
(0.580811 0.410932 -3.19921e-19)
(0.554268 0.379327 -3.88893e-19)
(0.46132 0.307529 1.16337e-19)
(0.261594 0.171075 -6.79091e-20)
(0.0424787 0.0270844 8.82691e-22)
(0.235223 0.161637 0)
(1.08887 0.748045 0)
(1.23564 0.856736 4.64357e-21)
(1.21911 0.860405 0)
(1.16864 0.842286 -3.51229e-19)
(1.1104 0.819943 -2.22763e-19)
(1.0453 0.793853 0)
(0.972941 0.763025 -1.7882e-20)
(0.893071 0.725688 2.864e-20)
(0.805723 0.678741 -3.9843e-19)
(0.72417 0.625265 0)
(0.661692 0.573833 -1.93415e-19)
(0.617102 0.527472 -5.98187e-21)
(0.586671 0.48716 -4.95922e-21)
(0.566624 0.453227 2.83153e-19)
(0.551771 0.423988 -7.85046e-22)
(0.524797 0.388077 -8.46653e-19)
(0.431341 0.309099 2.54428e-19)
(0.23787 0.166358 7.52767e-20)
(0.0360668 0.0243743 0)
(0.234484 0.169468 -6.89363e-19)
(1.0784 0.780089 -3.64255e-19)
(1.22287 0.893586 -5.47985e-19)
(1.20622 0.897259 7.71243e-19)
(1.15578 0.878156 -6.55277e-19)
(1.09746 0.854803 0)
(1.03209 0.827709 -1.28757e-19)
(0.95909 0.795965 3.43693e-20)
(0.877968 0.757789 7.20339e-21)
(0.788351 0.709903 3.19013e-20)
(0.703424 0.654917 3.61224e-19)
(0.637337 0.601078 -6.57819e-20)
(0.58939 0.551289 -2.84015e-19)
(0.556718 0.506904 -1.29089e-19)
(0.535885 0.468855 1.58213e-19)
(0.520871 0.435488 -6.78759e-22)
(0.49314 0.394307 2.33254e-19)
(0.398694 0.30722 -5.52788e-19)
(0.211589 0.158119 6.57275e-19)
(0.0291952 0.020898 9.3523e-20)
(0.23362 0.176906 2.5217e-19)
(1.06836 0.810283 -1.98538e-19)
(1.21033 0.928 1.12784e-20)
(1.19357 0.931671 4.33406e-19)
(1.14323 0.911694 1.52081e-19)
(1.08491 0.887459 4.41743e-19)
(1.01939 0.859534 -5.57264e-20)
(0.945895 0.827091 1.60964e-19)
(0.863669 0.788368 1.4374e-20)
(0.771862 0.739965 -2.11086e-19)
(0.683498 0.684042 0)
(0.613407 0.628283 -2.96453e-19)
(0.561622 0.575467 4.12217e-19)
(0.525747 0.526984 0)
(0.503322 0.484046 -3.38534e-19)
(0.487765 0.445596 2.10872e-19)
(0.459013 0.397872 -2.52395e-19)
(0.363294 0.301356 -3.04398e-19)
(0.183367 0.146483 -5.3665e-19)
(0.0220876 0.0167185 -4.12348e-19)
(0.232901 0.184051 -2.75956e-19)
(1.05859 0.838636 2.11957e-19)
(1.19808 0.960088 5.06481e-19)
(1.18124 0.963743 5.93697e-19)
(1.13107 0.942997 -3.17957e-19)
(1.07284 0.918002 3.02407e-19)
(1.00728 0.889385 -1.73577e-19)
(0.93342 0.856445 1.93853e-19)
(0.850238 0.817443 2.13307e-20)
(0.756376 0.768915 1.95027e-19)
(0.664561 0.712617 7.58622e-19)
(0.590166 0.655556 0)
(0.533956 0.600201 0)
(0.493818 0.547812 -1.49168e-19)
(0.468569 0.499526 0)
(0.451726 0.45419 4.6013e-19)
(0.421766 0.397824 5.53609e-19)
(0.325286 0.290549 0)
(0.154252 0.131399 0)
(0.0152744 0.0122078 4.51117e-19)
(0.231914 0.190644 3.03104e-19)
(1.04912 0.865175 2.51997e-19)
(1.18618 0.989987 3.62714e-19)
(1.16929 0.993613 -5.27123e-19)
(1.11934 0.972174 -3.52681e-19)
(1.06129 0.946513 -3.98342e-19)
(0.995801 0.917334 2.55873e-19)
(0.921707 0.884064 8.64929e-22)
(0.837728 0.845015 -9.17364e-21)
(0.741985 0.796732 -1.20305e-20)
(0.646778 0.740615 3.82041e-19)
(0.5679 0.682904 0)
(0.506656 0.625734 4.1411e-19)
(0.461108 0.569953 3.13041e-19)
(0.431342 0.51604 8.06106e-19)
(0.411544 0.461863 2.47825e-19)
(0.379841 0.392647 -3.07739e-19)
(0.28517 0.272046 -1.81072e-19)
(0.127551 0.11231 0)
(0.0101348 0.00797585 4.92371e-19)
(0.231118 0.197098 -6.63206e-19)
(1.03994 0.890025 0)
(1.17464 1.01779 4.02874e-19)
(1.15775 1.02138 -4.29901e-19)
(1.10809 0.999327 3.96583e-19)
(1.05028 0.973088 5.7782e-19)
(0.984976 0.943446 -5.87185e-19)
(0.910771 0.90999 7.86865e-21)
(0.826158 0.871092 0)
(0.728737 0.823369 -1.69236e-19)
(0.630314 0.767983 -7.80775e-19)
(0.546879 0.710311 3.95081e-20)
(0.480273 0.652085 5.58957e-19)
(0.428137 0.594008 0)
(0.391546 0.535288 5.41875e-19)
(0.365515 0.470037 0)
(0.328954 0.380967 0)
(0.241422 0.238281 -2.02977e-19)
(0.114629 0.079935 0)
(0.0257637 0.0120583 1.33209e-19)
(0.230012 0.202897 -7.21738e-19)
(1.03102 0.913521 0)
(1.16345 1.0437 6.49248e-19)
(1.14659 1.04726 0)
(1.09728 1.0247 -2.13797e-19)
(1.03976 0.998 0)
(0.974733 0.96802 -4.31641e-20)
(0.900516 0.934544 -3.2595e-20)
(0.815416 0.896016 -5.03744e-21)
(0.716498 0.849195 -1.5656e-19)
(0.615057 0.795111 1.97372e-20)
(0.527047 0.738296 3.26727e-19)
(0.454773 0.679801 5.38706e-19)
(0.395012 0.620816 7.7674e-20)
(0.348816 0.559385 4.21563e-19)
(0.311338 0.482849 0)
(0.25828 0.365907 6.7324e-19)
(0.173447 0.176391 -4.00876e-19)
(0.0664151 0.0762754 4.56675e-19)
(-0.0547729 0.382245 -5.40853e-19)
(0.22889 0.208417 5.86521e-19)
(1.02213 0.935517 9.46191e-19)
(1.15253 1.06804 0)
(1.13569 1.07168 8.73011e-21)
(1.08675 1.04884 5.7855e-19)
(1.0295 1.02188 -1.10658e-18)
(0.964812 0.991791 -2.55502e-19)
(0.890615 0.958603 0)
(0.805088 0.920821 -7.91288e-20)
(0.704749 0.875476 -2.91778e-21)
(0.600279 0.823452 0)
(0.507493 0.768617 0)
(0.429058 0.71072 4.69282e-19)
(0.361017 0.652384 -2.42065e-19)
(0.301866 0.592652 -4.17149e-19)
(0.246368 0.50896 0)
(0.146494 0.35798 3.36108e-19)
(0.0389815 0.454357 -3.98124e-19)
(0.0471517 1.73161 -2.09484e-19)
(0.0854869 2.7289 -2.7776e-19)
(0.227585 0.213149 -4.24677e-19)
(1.0135 0.956159 -1.18741e-18)
(1.14187 1.09081 3.70929e-19)
(1.12505 1.09448 3.59763e-19)
(1.07656 1.07155 0)
(1.01954 1.04447 -7.88828e-19)
(0.955372 1.01447 -4.24585e-19)
(0.881209 0.981759 2.10144e-20)
(0.795382 0.945008 -1.09713e-20)
(0.693799 0.901587 1.01932e-19)
(0.586504 0.852269 3.32676e-19)
(0.489128 0.800595 3.26727e-19)
(0.404337 0.744316 4.56015e-19)
(0.328794 0.686769 -5.46417e-19)
(0.256879 0.635907 -6.11027e-19)
(0.178026 0.554425 0)
(0.0842975 0.813245 0)
(0.138461 2.43092 1.73516e-19)
(0.146688 3.15136 0)
(0.147284 3.36775 3.71764e-19)
(0.229112 0.217825 0)
(1.00559 0.975585 0)
(1.13123 1.11189 0)
(1.11446 1.11546 9.95759e-20)
(1.06641 1.09262 5.12952e-19)
(1.00966 1.06565 -5.98461e-19)
(0.946314 1.03596 -3.02572e-19)
(0.872239 1.00391 2.35669e-20)
(0.786244 0.968437 -1.63849e-19)
(0.683651 0.927356 -1.99057e-20)
(0.57384 0.881399 5.79698e-19)
(0.472245 0.833895 -3.82271e-20)
(0.381118 0.780984 5.0122e-20)
(0.299424 0.721448 7.70248e-20)
(0.222534 0.684074 3.83629e-21)
(0.147358 0.919668 3.14458e-21)
(0.188646 2.54818 -8.3746e-19)
(0.213804 3.26177 -3.15843e-19)
(0.195125 3.42394 1.3997e-19)
(0.174994 3.45193 -1.4001e-19)
(0.147519 0.170167 2.32582e-19)
(0.991327 0.996886 0)
(1.12047 1.13141 -7.24685e-19)
(1.10461 1.13522 -9.27679e-19)
(1.0569 1.11271 1.06585e-18)
(1.00063 1.08596 6.35249e-19)
(0.937499 1.05634 3.49166e-19)
(0.863759 1.02513 -3.90249e-19)
(0.777808 0.991182 1.669e-19)
(0.674646 0.952662 0)
(0.562899 0.910474 2.35431e-19)
(0.457697 0.867608 -2.35059e-19)
(0.360495 0.821693 0)
(0.273478 0.761075 6.46608e-20)
(0.210585 0.86051 1.56506e-19)
(0.191581 2.16627 -1.97498e-19)
(0.286304 3.29642 2.14298e-19)
(0.263568 3.4466 9.97902e-20)
(0.220225 3.47523 1.12204e-19)
(0.19138 3.48798 1.25283e-19)
(0.265906 0.250935 -4.18852e-19)
(0.971518 1.0006 0)
(1.10029 1.15202 7.26894e-19)
(1.09092 1.16458 9.44666e-19)
(1.04178 1.14196 -1.08199e-18)
(0.985782 1.11579 -6.6625e-19)
(0.922632 1.0876 -5.35344e-19)
(0.849172 1.05782 -2.91581e-20)
(0.762937 1.02649 -2.30265e-19)
(0.65836 0.992629 -5.43931e-20)
(0.543188 0.957844 7.39464e-21)
(0.432595 0.924165 1.70446e-19)
(0.32593 0.893775 3.86661e-20)
(0.251281 0.986707 -5.68207e-20)
(0.291309 2.09126 -1.31778e-19)
(0.36693 3.29293 7.69825e-20)
(0.357772 3.48854 -5.80485e-20)
(0.313075 3.51725 -3.18223e-20)
(0.268415 3.54996 4.24635e-20)
(0.20427 3.54026 1.82013e-21)
(0.253178 0.24668 0)
(0.966913 1.01943 1.90058e-19)
(1.09161 1.17229 -1.44418e-19)
(1.08086 1.1847 -1.05474e-19)
(1.03228 1.16221 -7.11145e-19)
(0.976777 1.13627 6.51257e-19)
(0.913844 1.10834 3.59697e-19)
(0.840927 1.0795 -3.04134e-20)
(0.755115 1.04992 2.80929e-19)
(0.650511 1.01932 -2.72194e-20)
(0.534271 0.98983 -2.42e-19)
(0.421775 0.963278 2.3847e-20)
(0.317452 0.953997 -3.20706e-20)
(0.299219 1.36441 -4.44702e-20)
(0.405983 2.93851 3.78959e-20)
(0.451926 3.47389 2.12907e-21)
(0.399077 3.56176 -1.59539e-19)
(0.355306 3.59002 -1.60192e-19)
(0.29257 3.61812 1.89137e-19)
(0.22096 3.61045 7.122e-20)
(0.235884 0.242798 4.62399e-19)
(0.960233 1.04042 1.28436e-18)
(1.08219 1.19405 -4.13025e-19)
(1.07038 1.20606 -4.01306e-19)
(1.02234 1.18345 0)
(0.967383 1.15753 9.50731e-19)
(0.904987 1.12991 5.47468e-19)
(0.832925 1.10198 -3.18032e-20)
(0.747896 1.07421 2.94052e-20)
(0.643828 1.04708 1.86474e-19)
(0.527285 1.02311 -4.19057e-20)
(0.414542 1.00451 -1.47606e-19)
(0.325541 1.04761 -1.93728e-19)
(0.38265 1.91493 2.11417e-19)
(0.509748 3.32834 4.92676e-20)
(0.51623 3.55481 0)
(0.451212 3.61335 0)
(0.405582 3.67003 1.84488e-19)
(0.32176 3.74016 0)
(0.235152 3.70612 3.36747e-19)
(0.223508 0.242201 -6.75834e-19)
(0.951441 1.06195 -1.07096e-18)
(1.07129 1.2166 0)
(1.0587 1.22799 9.65189e-21)
(1.01126 1.205 -6.92601e-19)
(0.957011 1.17897 1.41186e-18)
(0.895511 1.15164 3.67365e-19)
(0.824566 1.12454 -3.87888e-20)
(0.740642 1.09853 3.04478e-19)
(0.637611 1.0749 -1.74434e-20)
(0.521594 1.05655 0)
(0.410669 1.04724 0)
(0.35454 1.20856 -1.20314e-19)
(0.488984 2.53856 2.50253e-20)
(0.605772 3.48588 -7.99409e-20)
(0.573309 3.60442 0)
(0.526539 3.67073 4.24759e-19)
(0.462914 3.76482 -6.33634e-19)
(0.408593 3.78245 -5.11466e-19)