/*--------------------------------*- C++ -*----------------------------------*\
  =========                 |
  \\      /  F ield         | OpenFOAM: The Open Source CFD Toolbox
   \\    /   O peration     | Website:  https://openfoam.org
    \\  /    A nd           | Version:  9
     \\/     M anipulation  |
\*---------------------------------------------------------------------------*/
FoamFile
{
    format      ascii;
    class       volScalarField;
    location    "22";
    object      p;
}
// * * * * * * * * * * * * * * * * * * * * * * * * * * * * * * * * * * * * * //

dimensions      [0 2 -2 0 0 0 0];

internalField   nonuniform List<scalar> 
2200
(
0.396407
0.374912
0.359013
0.343352
0.328758
0.316263
0.305914
0.297807
0.292067
0.289077
0.289381
0.292931
0.299091
0.307489
0.318048
0.330697
0.345391
0.361124
0.377067
0.39858
0.328797
0.32554
0.322632
0.318542
0.313117
0.306673
0.300082
0.294123
0.289557
0.287085
0.287397
0.290469
0.295461
0.301742
0.30856
0.315159
0.320699
0.324857
0.327802
0.331081
0.288873
0.289106
0.291192
0.292565
0.292982
0.292153
0.290213
0.287578
0.285029
0.283398
0.283768
0.286024
0.289045
0.292028
0.294215
0.295211
0.294917
0.293671
0.291688
0.291472
0.266439
0.267906
0.270536
0.273013
0.275464
0.277513
0.27866
0.278875
0.278492
0.27806
0.278476
0.279611
0.28054
0.280731
0.279886
0.278058
0.275771
0.27341
0.270836
0.26939
0.252075
0.254048
0.256903
0.259791
0.262713
0.265578
0.26803
0.269861
0.270978
0.271565
0.272051
0.272302
0.271827
0.270468
0.26837
0.265762
0.263014
0.260226
0.257436
0.25548
0.244766
0.246326
0.248577
0.251216
0.253973
0.256679
0.259295
0.26176
0.263739
0.265065
0.265645
0.265333
0.26413
0.262238
0.260034
0.25763
0.25509
0.252591
0.250416
0.248865
0.241761
0.24275
0.244061
0.24599
0.24819
0.250379
0.252524
0.254749
0.256895
0.258624
0.259304
0.258799
0.257598
0.256089
0.254438
0.252632
0.250706
0.248966
0.247749
0.246759
0.239592
0.240258
0.240975
0.242403
0.244143
0.245894
0.247585
0.249314
0.251087
0.252701
0.253538
0.253422
0.252805
0.251934
0.250883
0.249578
0.248169
0.246962
0.246354
0.245685
0.236651
0.23704
0.2376
0.238987
0.240655
0.242372
0.244052
0.245641
0.247177
0.248595
0.249668
0.250117
0.250008
0.249483
0.248565
0.247381
0.246101
0.244974
0.244528
0.244135
0.233363
0.233519
0.234045
0.235424
0.237081
0.238886
0.240771
0.242616
0.244341
0.245895
0.247211
0.247937
0.247939
0.247399
0.246449
0.245366
0.244188
0.243133
0.242739
0.242584
0.230404
0.23044
0.230879
0.231937
0.233268
0.234831
0.236632
0.238624
0.240697
0.242711
0.244335
0.245196
0.245255
0.244883
0.244302
0.243562
0.242774
0.242089
0.241824
0.241797
0.227379
0.227324
0.227672
0.228364
0.229347
0.230574
0.232028
0.23381
0.235954
0.238315
0.240384
0.24172
0.2424
0.242593
0.242533
0.24229
0.242023
0.241774
0.241648
0.241648
0.223985
0.223908
0.2242
0.224736
0.225614
0.226732
0.228079
0.229794
0.231916
0.23447
0.237025
0.239022
0.240389
0.241177
0.241536
0.241709
0.241758
0.241726
0.241686
0.241684
0.220231
0.220204
0.220471
0.221012
0.221959
0.223198
0.22477
0.226773
0.229216
0.232186
0.235286
0.237769
0.239533
0.240672
0.241401
0.241847
0.24203
0.2421
0.242115
0.242118
0.21593
0.215923
0.216161
0.216737
0.217718
0.219068
0.220899
0.223307
0.226333
0.230049
0.233939
0.237066
0.239237
0.240785
0.241874
0.242532
0.24289
0.243088
0.243154
0.243148
0.210659
0.210629
0.210901
0.21153
0.212536
0.213953
0.215964
0.218718
0.222359
0.226973
0.231923
0.236012
0.238944
0.241033
0.242513
0.243495
0.244136
0.244528
0.244675
0.244655
0.204401
0.204362
0.204655
0.205312
0.206421
0.208058
0.210401
0.21363
0.217989
0.223615
0.229804
0.235032
0.238895
0.241662
0.243657
0.245019
0.24592
0.246446
0.24665
0.246618
0.196813
0.196776
0.197145
0.197992
0.199403
0.201469
0.204393
0.208424
0.213824
0.220766
0.228407
0.234921
0.239743
0.243213
0.24566
0.247326
0.248434
0.249074
0.249336
0.249299
0.187903
0.187849
0.188301
0.189375
0.191168
0.193802
0.197522
0.20262
0.209424
0.218104
0.227533
0.23553
0.241409
0.245638
0.248621
0.250671
0.252011
0.252772
0.253078
0.253028
0.177002
0.176961
0.177575
0.178971
0.181255
0.184587
0.189292
0.195764
0.204351
0.215206
0.226864
0.23666
0.243854
0.249026
0.252657
0.255154
0.256796
0.257731
0.258113
0.25805
0.163816
0.163727
0.164494
0.166265
0.169193
0.173488
0.179549
0.18781
0.198652
0.212176
0.2265
0.238436
0.247183
0.253476
0.257922
0.260998
0.263028
0.264184
0.264632
0.26454
0.147313
0.147293
0.148391
0.15071
0.154549
0.160206
0.168095
0.178732
0.192461
0.209235
0.226702
0.241133
0.251699
0.259301
0.264678
0.268404
0.270849
0.272232
0.27278
0.272673
0.126449
0.126379
0.12788
0.131135
0.136422
0.144099
0.154618
0.168491
0.185873
0.206558
0.227687
0.244956
0.257559
0.266649
0.273109
0.277623
0.280641
0.282356
0.282994
0.282825
0.098982
0.0992209
0.101614
0.106334
0.113881
0.124678
0.138969
0.157051
0.178938
0.204244
0.229515
0.249935
0.264804
0.275584
0.283353
0.28884
0.292488
0.294519
0.295274
0.295075
0.0623745
0.0628703
0.0668672
0.0745693
0.0860362
0.101661
0.121045
0.144504
0.171833
0.202433
0.232304
0.25617
0.273543
0.286202
0.295403
0.302025
0.306561
0.309153
0.31007
0.309725
0.0132187
0.0137929
0.0214016
0.0346108
0.052631
0.0749647
0.101165
0.131328
0.16499
0.201496
0.236302
0.263759
0.283737
0.298436
0.309312
0.317296
0.322837
0.325896
0.326806
0.326368
-0.0532423
-0.0499616
-0.0336248
-0.0112983
0.0155105
0.0461398
0.0802932
0.117937
0.158621
0.201774
0.24217
0.273975
0.297417
0.31495
0.328211
0.338299
0.345724
0.349758
0.350788
0.350531
-0.130414
-0.119028
-0.0911557
-0.0589204
-0.0224422
0.0170305
0.0593339
0.104698
0.152775
0.203023
0.24976
0.286743
0.314282
0.335355
0.351771
0.364593
0.37464
0.380673
0.383167
0.383551
-0.196752
-0.180193
-0.145309
-0.104814
-0.059313
-0.0113325
0.0390658
0.0921779
0.147566
0.204688
0.257406
0.299028
0.330093
0.354035
0.37285
0.387599
0.398882
0.406264
0.409093
0.409215
-0.245968
-0.231464
-0.19146
-0.145277
-0.0928392
-0.0377679
0.0199525
0.0802479
0.142427
0.20592
0.264049
0.309639
0.343632
0.36959
0.389886
0.405689
0.417546
0.42494
0.427831
0.428107
-0.286544
-0.272905
-0.229793
-0.179963
-0.122373
-0.0616354
0.00225905
0.0687585
0.137015
0.206453
0.269636
0.31883
0.354919
0.382042
0.402745
0.418685
0.430702
0.438368
0.441487
0.441811
-0.321443
-0.307538
-0.262262
-0.209964
-0.148351
-0.0830687
-0.0140913
0.0577137
0.131451
0.206344
0.273959
0.325735
0.363166
0.390944
0.41215
0.428441
0.440676
0.448528
0.451847
0.452152
-0.351975
-0.338005
-0.290849
-0.236339
-0.171444
-0.102499
-0.02931
0.0470784
0.125681
0.205249
0.276605
0.330762
0.36968
0.398356
0.419802
0.436156
0.448539
0.456497
0.460006
0.460074
-0.379586
-0.365654
-0.316789
-0.259985
-0.192265
-0.120374
-0.0436747
0.0366387
0.119428
0.203193
0.278264
0.33516
0.375397
0.404786
0.426812
0.443409
0.455649
0.463754
0.466809
0.466791
-0.404828
-0.391037
-0.340801
-0.281727
-0.211484
-0.137118
-0.0574675
0.0262139
0.112724
0.200555
0.279487
0.338868
0.38065
0.411047
0.433449
0.450069
0.462236
0.470068
0.473291
0.473388
-0.428659
-0.414529
-0.363375
-0.302299
-0.229722
-0.153122
-0.0708926
0.0157284
0.105644
0.197281
0.279987
0.342356
0.386304
0.417427
0.44015
0.456851
0.468974
0.476741
0.479905
0.480078
-0.451074
-0.436733
-0.384959
-0.322168
-0.247519
-0.168766
-0.0841333
0.00514684
0.0981828
0.19347
0.280095
0.345756
0.391273
0.423569
0.446889
0.463874
0.476029
0.483534
0.4868
0.486984
-0.472198
-0.457904
-0.405655
-0.341507
-0.265155
-0.184338
-0.0973896
-0.00563476
0.0902724
0.189101
0.279613
0.348348
0.396156
0.429874
0.453845
0.471033
0.483326
0.490845
0.493917
0.494055
-0.49256
-0.478145
-0.425579
-0.360337
-0.282631
-0.199947
-0.110837
-0.0167438
0.0818578
0.183964
0.278167
0.350216
0.401024
0.436452
0.461281
0.478756
0.490963
0.498162
0.501193
0.501268
-0.512668
-0.497665
-0.444824
-0.37863
-0.299857
-0.21559
-0.124567
-0.0283091
0.0727495
0.177742
0.275503
0.351435
0.40535
0.44306
0.46912
0.486958
0.499002
0.506089
0.508731
0.508664
-0.532488
-0.516665
-0.463494
-0.396376
-0.316732
-0.231188
-0.13856
-0.0404304
0.0627733
0.17035
0.271606
0.351625
0.409198
0.449983
0.477767
0.496101
0.507638
0.513819
0.516192
0.516023
-0.551839
-0.535278
-0.481665
-0.413605
-0.333187
-0.246633
-0.152731
-0.0530488
0.0520463
0.162199
0.267078
0.351171
0.412788
0.456888
0.487217
0.506364
0.517165
0.52222
0.523702
0.523327
-0.570539
-0.553462
-0.49936
-0.430364
-0.349209
-0.261826
-0.166913
-0.0659467
0.0408825
0.153358
0.260924
0.348604
0.414727
0.463404
0.497358
0.518659
0.528941
0.530574
0.529914
0.530143
-0.588573
-0.571134
-0.516538
-0.446669
-0.364801
-0.276687
-0.180926
-0.0788771
0.029377
0.143513
0.253358
0.345143
0.415788
0.469193
0.507941
0.532989
0.544195
0.542359
0.537058
0.53459
-0.605921
-0.588195
-0.533142
-0.462499
-0.379957
-0.291163
-0.194661
-0.0917514
0.0175628
0.133179
0.245382
0.340234
0.414797
0.473821
0.51862
0.549641
0.566185
0.559192
0.552923
0.557803
-0.622597
-0.604584
-0.549101
-0.477799
-0.394658
-0.305247
-0.208123
-0.104556
0.00561767
0.122426
0.236014
0.332598
0.411368
0.475885
0.527579
0.566777
0.593412
0.579266
0.53468
0.487927
-0.638538
-0.620311
-0.564434
-0.492617
-0.409019
-0.319125
-0.221535
-0.117503
-0.00680194
0.110689
0.225262
0.323746
0.405213
0.474398
0.533402
0.583206
0.625165
0.641413
0.662949
0.713303
-0.653706
-0.635431
-0.579228
-0.507073
-0.423208
-0.333046
-0.235222
-0.131025
-0.0201554
0.0976891
0.212828
0.311628
0.39458
0.467233
0.528959
0.579627
0.613869
0.622755
0.598844
0.605814
-0.668064
-0.649914
-0.593441
-0.5211
-0.437128
-0.34691
-0.249085
-0.144962
-0.0342344
0.08335
0.198234
0.296892
0.378738
0.450095
0.50991
0.554727
0.560974
0.5239
0.469795
0.461781
-0.681643
-0.663759
-0.607083
-0.534702
-0.450758
-0.360679
-0.263048
-0.159237
-0.0490336
0.0678466
0.181902
0.278976
0.35733
0.422536
0.474999
0.493277
0.464674
0.397076
0.326759
0.316328
-0.694486
-0.676957
-0.620172
-0.547901
-0.464102
-0.374322
-0.277072
-0.173836
-0.0644533
0.0511856
0.163489
0.257783
0.330054
0.382275
0.410263
0.40157
0.355011
0.255336
0.168777
0.152544
-0.707043
-0.689929
-0.633108
-0.561063
-0.477499
-0.388124
-0.291383
-0.188898
-0.0806869
0.0330954
0.142772
0.233077
0.297876
0.334896
0.328531
0.293245
0.189013
0.0668364
-0.0407771
-0.0635113
-0.720184
-0.703425
-0.646565
-0.574797
-0.491511
-0.40255
-0.306384
-0.204815
-0.098017
0.013599
0.11996
0.205067
0.262923
0.277006
0.23663
0.149236
-0.0101781
-0.164445
-0.292859
-0.317777
-0.734399
-0.717887
-0.660855
-0.589333
-0.506323
-0.417738
-0.32218
-0.221598
-0.116369
-0.00749085
0.0944088
0.173975
0.221816
0.20819
0.143318
-0.0106319
-0.220558
-0.441034
-0.625354
-0.671653
-0.749737
-0.733337
-0.676007
-0.604678
-0.521911
-0.433667
-0.338729
-0.239228
-0.135776
-0.0298682
0.0672064
0.140415
0.172699
0.126228
0.0267356
-0.175932
-0.425202
-0.732438
-1.06899
-1.21068
-0.766254
-0.749924
-0.692125
-0.620906
-0.538317
-0.450394
-0.356112
-0.257762
-0.156137
-0.0535128
0.0380925
0.104759
0.120642
0.0388071
-0.113072
-0.343032
-0.602348
-0.975443
-1.59515
-2.18396
-0.783937
-0.7676
-0.709231
-0.63805
-0.55554
-0.467895
-0.37423
-0.277017
-0.177294
-0.0780295
0.0075889
0.066792
0.0654998
-0.0420354
-0.251394
-0.518489
-0.752323
-1.02423
-1.63992
-3.27087
-0.802857
-0.786486
-0.727418
-0.65622
-0.573698
-0.486308
-0.393303
-0.29735
-0.199647
-0.103849
-0.0243963
0.0261574
0.00544419
-0.107954
-0.358078
-0.638572
-0.819073
-0.88655
-0.914873
-1.33219
-0.822918
-0.806506
-0.746814
-0.675672
-0.593132
-0.506076
-0.413843
-0.319278
-0.223825
-0.131897
-0.0582046
-0.0174917
-0.0576239
-0.160032
-0.416697
-0.665445
-0.808673
-0.836706
-0.792392
-0.840622
-0.844132
-0.827635
-0.767454
-0.696452
-0.613853
-0.527216
-0.435905
-0.342972
-0.250206
-0.162776
-0.0941894
-0.0629296
-0.117054
-0.213582
-0.456558
-0.66106
-0.771518
-0.791797
-0.831449
-0.846728
-0.866296
-0.849463
-0.789255
-0.718519
-0.635808
-0.549744
-0.459496
-0.368354
-0.278534
-0.195725
-0.131743
-0.109738
-0.170704
-0.275485
-0.494858
-0.660421
-0.752922
-0.724775
-0.751477
-0.752346
-0.88916
-0.871984
-0.812147
-0.74176
-0.658792
-0.573452
-0.484355
-0.395078
-0.3085
-0.230567
-0.170699
-0.158402
-0.219455
-0.346705
-0.535665
-0.662197
-0.732659
-0.75601
-0.746045
-0.753878
-0.912137
-0.894788
-0.835983
-0.765855
-0.682569
-0.598146
-0.510285
-0.422994
-0.339968
-0.266853
-0.211071
-0.212679
-0.265756
-0.416876
-0.583209
-0.67925
-0.692134
-0.756756
-0.724834
-0.735769
-0.934996
-0.917744
-0.86031
-0.790226
-0.706776
-0.623452
-0.536783
-0.451387
-0.371959
-0.303615
-0.250802
-0.264676
-0.320866
-0.480574
-0.618662
-0.706373
-0.678946
-0.733455
-0.717531
-0.720653
-0.957149
-0.94035
-0.884112
-0.814286
-0.731106
-0.648855
-0.56328
-0.479674
-0.403756
-0.340368
-0.289369
-0.312407
-0.387055
-0.54065
-0.64051
-0.712776
-0.732501
-0.717452
-0.729055
-0.726166
-0.978046
-0.961956
-0.906699
-0.837167
-0.755032
-0.67372
-0.589033
-0.507172
-0.43436
-0.376067
-0.327139
-0.353994
-0.462209
-0.625761
-0.665529
-0.647015
-0.711243
-0.697551
-0.723457
-0.726472
-0.996677
-0.981606
-0.927472
-0.858407
-0.777961
-0.697064
-0.613252
-0.532797
-0.46237
-0.40961
-0.363351
-0.383995
-0.539055
-0.736651
-0.754632
-0.647317
-0.679405
-0.693784
-0.721096
-0.728021
-1.0121
-0.998294
-0.945664
-0.877223
-0.798634
-0.717905
-0.634975
-0.555544
-0.485928
-0.438684
-0.397448
-0.405455
-0.608802
-0.877768
-1.02275
-1.02459
-1.02995
-1.01366
-0.993246
-0.976458
-1.02328
-1.0111
-0.960674
-0.893247
-0.815858
-0.735213
-0.653022
-0.574538
-0.503747
-0.459087
-0.427866
-0.413914
-0.654815
-1.01496
-1.47074
-1.76337
-1.84907
-1.80567
-1.70578
-1.62517
-1.02915
-1.01872
-0.971164
-0.904863
-0.828099
-0.747866
-0.666313
-0.588237
-0.515828
-0.465136
-0.444438
-0.418886
-0.651773
-1.03331
-1.57068
-1.95706
-2.03252
-1.92503
-1.82381
-1.75493
-1.02876
-1.02009
-0.97594
-0.911004
-0.834805
-0.75499
-0.67343
-0.594605
-0.519595
-0.459747
-0.436601
-0.403932
-0.554599
-0.757659
-1.00225
-1.14665
-1.1166
-1.02988
-0.908271
-0.804941
-1.02083
-1.01353
-0.97341
-0.910088
-0.834875
-0.755539
-0.673323
-0.592281
-0.513158
-0.441606
-0.401116
-0.322744
-0.315136
-0.168895
-0.00553093
0.13241
0.286399
0.406161
0.474856
0.512149
-1.00323
-0.996445
-0.962016
-0.901498
-0.827649
-0.748857
-0.665906
-0.582015
-0.497895
-0.406667
-0.338642
-0.208083
-0.0201186
0.339299
0.736811
1.05132
1.27901
1.42063
1.48761
1.51089
-0.973101
-0.966735
-0.94041
-0.884876
-0.813362
-0.735414
-0.652156
-0.565026
-0.475915
-0.366892
-0.262344
-0.129264
0.170928
0.572317
1.00352
1.36514
1.63148
1.79009
1.85839
1.87554
-0.930018
-0.925654
-0.909016
-0.859769
-0.791748
-0.71563
-0.633841
-0.545019
-0.45219
-0.340149
-0.217185
-0.118068
0.145217
0.503656
0.886559
1.21227
1.46905
1.62704
1.69932
1.72055
-0.88379
-0.88297
-0.872948
-0.828888
-0.764736
-0.691528
-0.613885
-0.527049
-0.435684
-0.335926
-0.214839
-0.145643
0.024836
0.309918
0.615116
0.867559
1.07057
1.20453
1.2705
1.29469
-0.835689
-0.838427
-0.828422
-0.790751
-0.732712
-0.66534
-0.593287
-0.514836
-0.430179
-0.342201
-0.23013
-0.162116
-0.0554322
0.149799
0.384192
0.568398
0.710797
0.812146
0.861375
0.877775
-0.764963
-0.769155
-0.761681
-0.734855
-0.688282
-0.63249
-0.570884
-0.505114
-0.427399
-0.349364
-0.244787
-0.167734
-0.0954437
0.0446442
0.226879
0.357507
0.455986
0.526586
0.558476
0.564627
-0.679302
-0.680669
-0.676904
-0.661372
-0.630089
-0.591016
-0.544981
-0.493644
-0.428639
-0.354325
-0.257492
-0.172349
-0.126093
-0.0259373
0.105549
0.187078
0.253424
0.300296
0.318027
0.324192
-0.598189
-0.598779
-0.596241
-0.587844
-0.570471
-0.545956
-0.515367
-0.479368
-0.430917
-0.362562
-0.275075
-0.192178
-0.152031
-0.0827539
0.00289339
0.0556289
0.101475
0.137527
0.151403
0.156852
-0.538551
-0.538441
-0.536536
-0.532231
-0.523672
-0.509221
-0.490138
-0.464357
-0.427022
-0.383168
-0.305482
-0.227992
-0.180774
-0.148343
-0.0907738
-0.0493202
-0.0129398
0.0139939
0.0305006
0.0348596
-0.507235
-0.506858
-0.50607
-0.504175
-0.500073
-0.492537
-0.48299
-0.46845
-0.447842
-0.420346
-0.351981
-0.282321
-0.227492
-0.211897
-0.168979
-0.134459
-0.104442
-0.0858306
-0.073816
-0.0724639
-0.501557
-0.501322
-0.501192
-0.501146
-0.499505
-0.49781
-0.497513
-0.496787
-0.500278
-0.492793
-0.449993
-0.373638
-0.304197
-0.27725
-0.24225
-0.211176
-0.183987
-0.169453
-0.163705
-0.164476
-0.51124
-0.511318
-0.511935
-0.513434
-0.515781
-0.519962
-0.52996
-0.547524
-0.581662
-0.611228
-0.620274
-0.529767
-0.428655
-0.369415
-0.321349
-0.282409
-0.248718
-0.22619
-0.221657
-0.225296
-0.524818
-0.525433
-0.527203
-0.530514
-0.536825
-0.54862
-0.571479
-0.613039
-0.685251
-0.775295
-0.853761
-0.757952
-0.619668
-0.524212
-0.433074
-0.360518
-0.301136
-0.274778
-0.268373
-0.274852
-0.529415
-0.530611
-0.533539
-0.539554
-0.549658
-0.569133
-0.605911
-0.673836
-0.792495
-0.958914
-1.11234
-1.01447
-0.853514
-0.707988
-0.561338
-0.450213
-0.38872
-0.361904
-0.356053
-0.360074
-0.513633
-0.515835
-0.518659
-0.526071
-0.540425
-0.5652
-0.610464
-0.696571
-0.845543
-1.05307
-1.33228
-1.17131
-0.9828
-0.802991
-0.649038
-0.550601
-0.506311
-0.481739
-0.476967
-0.476428
-0.472932
-0.475007
-0.478025
-0.484005
-0.497816
-0.523639
-0.571995
-0.660712
-0.815342
-1.05022
-1.25589
-1.14257
-0.941688
-0.76996
-0.665145
-0.607857
-0.567284
-0.567154
-0.562184
-0.559499
-0.407167
-0.408837
-0.41178
-0.41652
-0.427271
-0.449436
-0.490852
-0.567128
-0.700102
-0.89095
-1.02535
-0.921339
-0.758513
-0.67315
-0.624383
-0.587927
-0.576468
-0.577256
-0.575232
-0.572738
-0.324096
-0.325201
-0.327133
-0.330727
-0.337774
-0.352915
-0.381984
-0.436479
-0.530249
-0.657607
-0.739448
-0.644703
-0.557384
-0.534496
-0.532109
-0.525058
-0.532415
-0.532961
-0.532106
-0.528108
-0.236008
-0.236564
-0.237422
-0.238901
-0.242393
-0.250489
-0.266478
-0.297441
-0.350587
-0.422577
-0.46585
-0.386608
-0.373655
-0.392125
-0.404479
-0.434159
-0.44227
-0.444525
-0.443524
-0.442289
-0.154625
-0.154764
-0.154898
-0.154893
-0.155584
-0.158128
-0.163474
-0.174732
-0.193307
-0.215664
-0.218021
-0.212381
-0.240375
-0.264711
-0.298667
-0.327496
-0.333727
-0.337405
-0.339223
-0.339426
-0.0878083
-0.0876594
-0.087476
-0.0868032
-0.0860583
-0.085499
-0.0846484
-0.0839981
-0.0818079
-0.0672834
-0.0690841
-0.105312
-0.14364
-0.17945
-0.213266
-0.232569
-0.239129
-0.244068
-0.246326
-0.24672
-0.0387897
-0.0385041
-0.0382846
-0.0375738
-0.0365006
-0.0349414
-0.0319966
-0.0273108
-0.0196813
-0.00380797
0.00214728
-0.0421614
-0.0837091
-0.116307
-0.144004
-0.15898
-0.166302
-0.1703
-0.171623
-0.172111
-0.00654622
-0.00624793
-0.00609995
-0.00566578
-0.00479711
-0.00339797
-0.000557284
0.0039989
0.0108692
0.0207528
0.023916
-0.0139124
-0.0485966
-0.0743374
-0.0954516
-0.10476
-0.110245
-0.113342
-0.11476
-0.115339
0.0121816
0.012426
0.0124941
0.0125639
0.0130507
0.013922
0.0159039
0.0190896
0.0236797
0.0285427
0.0277625
-0.000490067
-0.0270853
-0.0461354
-0.0613932
-0.0689214
-0.0725445
-0.0743277
-0.075296
-0.0757227
0.0211925
0.0213684
0.0213678
0.0211508
0.0212194
0.0215061
0.0224988
0.0242243
0.0266463
0.028198
0.025105
0.00524533
-0.0139255
-0.0265637
-0.0402622
-0.0447186
-0.0471839
-0.0482877
-0.0489334
-0.0492127
0.0235834
0.0237007
0.0236434
0.0232719
0.023022
0.0228536
0.0230508
0.0236291
0.0244783
0.0241894
0.0202418
0.0065745
-0.00707743
-0.0165743
-0.024242
-0.0275305
-0.0295905
-0.0305228
-0.0310943
-0.0313181
0.0216818
0.0217572
0.0216754
0.0212692
0.0208649
0.0204519
0.0201733
0.020037
0.0199207
0.0187941
0.0150471
0.00588854
-0.0033346
-0.00979279
-0.0145869
-0.0172269
-0.0187085
-0.019308
-0.0196076
-0.0197082
0.0171332
0.0171829
0.0171067
0.0167625
0.0163594
0.015917
0.0154893
0.0150852
0.0145776
0.0132961
0.0102964
0.00440093
-0.00143583
-0.00545386
-0.00840913
-0.0101459
-0.0110458
-0.011313
-0.0114428
-0.0115224
0.0109974
0.0110325
0.0109878
0.0107474
0.0104435
0.0101145
0.00974815
0.00940048
0.00891082
0.00795784
0.00604476
0.00272402
-0.000566085
-0.00280384
-0.0043667
-0.00508496
-0.00543286
-0.00560433
-0.00573489
-0.00581041
0.00398111
0.00399581
0.00399515
0.00387255
0.00373133
0.00358559
0.00341135
0.0033087
0.00306336
0.00273466
0.00204289
0.000927598
-0.000249023
-0.00118133
-0.00195214
-0.00222152
-0.00221106
-0.00209467
-0.00196821
-0.00190717
-1.55999
-0.66661
-0.392235
-0.100613
0.0969484
0.26829
0.412929
0.559783
0.716067
0.792902
-0.533859
-0.102097
-0.0718631
0.125811
0.264219
0.387931
0.495764
0.590411
0.622651
0.577795
-0.123491
0.104583
0.150931
0.292409
0.388593
0.476537
0.549208
0.603258
0.608363
0.620133
0.124687
0.280128
0.317121
0.428311
0.488867
0.552285
0.600792
0.635016
0.645412
0.6683
0.317795
0.424657
0.454463
0.53098
0.575703
0.620847
0.655157
0.680453
0.691173
0.722041
0.466255
0.540501
0.571016
0.618646
0.656007
0.688141
0.713841
0.735036
0.74994
0.777712
0.590527
0.643845
0.670311
0.700448
0.729662
0.75453
0.775343
0.794968
0.810268
0.836461
0.697244
0.736171
0.757949
0.779608
0.80153
0.821687
0.839512
0.857923
0.872925
0.896493
0.793529
0.822862
0.840351
0.856264
0.873088
0.8896
0.905389
0.922558
0.936158
0.958456
0.882986
0.904035
0.919349
0.93289
0.946809
0.960852
0.97445
0.989119
1.00067
1.02034
0.969614
0.985555
0.999599
1.01165
1.02377
1.03549
1.04666
1.05837
1.06604
1.08286
1.05531
1.0683
1.08213
1.09385
1.10445
1.11422
1.123
1.13125
1.13483
1.14611
1.14479
1.15578
1.16927
1.17848
1.18592
1.1931
1.2003
1.20691
1.2079
1.21533
1.24328
1.24801
1.25605
1.26054
1.2638
1.26827
1.27427
1.28205
1.28587
1.29576
1.35661
1.34289
1.33544
1.32979
1.32711
1.32851
1.33504
1.34747
1.3622
1.39184
1.47742
1.42176
1.39088
1.3738
1.36567
1.36569
1.37434
1.39379
1.42585
1.49501
)
;

boundaryField
{
    wall-4
    {
        type            zeroGradient;
    }
    pressure-outlet-7
    {
        type            fixedValue;
        value           uniform 0;
    }
    velocity-inlet-6
    {
        type            zeroGradient;
    }
    velocity-inlet-5
    {
        type            zeroGradient;
    }
    frontAndBackPlanes
    {
        type            empty;
    }
}


// ************************************************************************* //
