/*--------------------------------*- C++ -*----------------------------------*\
  =========                 |
  \\      /  F ield         | OpenFOAM: The Open Source CFD Toolbox
   \\    /   O peration     | Website:  https://openfoam.org
    \\  /    A nd           | Version:  9
     \\/     M anipulation  |
\*---------------------------------------------------------------------------*/
FoamFile
{
    format      ascii;
    class       volVectorField;
    location    "22";
    object      U;
}
// * * * * * * * * * * * * * * * * * * * * * * * * * * * * * * * * * * * * * //

dimensions      [0 1 -1 0 0 0 0];

internalField   nonuniform List<vector> 
2200
(
(0.878841 -0.0304102 0)
(1.00578 -0.0512955 0)
(1.00325 -0.0353963 0)
(1.00027 -0.024474 0)
(1.00001 -0.0166937 0)
(1.00012 -0.0106899 0)
(0.99996 -0.0068043 0)
(0.999819 -0.00419968 0)
(0.999806 -0.00228493 0)
(1.00017 -0.000803504 0)
(1.00006 0.00102295 0)
(0.999829 0.00249105 0)
(0.999807 0.00437092 0)
(0.999955 0.00697573 0)
(1.00012 0.0107988 0)
(0.999989 0.0167879 0)
(1.00029 0.024559 0)
(1.00334 0.0354277 0)
(1.0058 0.0513235 0)
(0.878859 0.0304286 0)
(0.71195 -0.0327417 0)
(0.99661 -0.0629693 0)
(1.03323 -0.0561551 0)
(1.02485 -0.0464592 0)
(1.01587 -0.0362373 0)
(1.00964 -0.0266799 0)
(1.00595 -0.018434 0)
(1.00392 -0.0115624 0)
(1.0028 -0.00603072 0)
(1.00218 -0.00158722 0)
(1.00218 0.00223175 0)
(1.00272 0.00666267 0)
(1.00386 0.012096 0)
(1.00588 0.018885 0)
(1.00956 0.0271357 0)
(1.01584 0.0366357 0)
(1.02473 0.0467724 0)
(1.03298 0.056469 0)
(0.996465 0.0631331 0)
(0.711713 0.0327918 0)
(0.53582 -0.023873 0)
(0.969979 -0.0567887 0)
(1.05631 -0.0545439 0)
(1.0519 -0.0484477 0)
(1.03584 -0.0401466 0)
(1.02433 -0.0320939 0)
(1.01599 -0.0238734 0)
(1.01045 -0.0161285 0)
(1.00711 -0.00894238 0)
(1.00559 -0.0024086 0)
(1.00552 0.00363082 0)
(1.00697 0.0101426 0)
(1.01032 0.017225 0)
(1.01581 0.0248662 0)
(1.02412 0.0328651 0)
(1.03554 0.0407381 0)
(1.0516 0.0488941 0)
(1.05607 0.054741 0)
(0.969431 0.0570564 0)
(0.535071 0.0239287 0)
(0.39288 -0.0135355 0)
(0.91221 -0.0462364 0)
(1.05768 -0.0465718 0)
(1.06967 -0.0438777 0)
(1.0547 -0.0374268 0)
(1.03924 -0.0306409 0)
(1.02763 -0.0240162 0)
(1.01908 -0.0171429 0)
(1.01349 -0.0100619 0)
(1.01071 -0.00281372 0)
(1.01065 0.00450674 0)
(1.01332 0.0116536 0)
(1.01872 0.0185609 0)
(1.02713 0.0251506 0)
(1.03857 0.0315882 0)
(1.05406 0.0382737 0)
(1.06898 0.0446313 0)
(1.05668 0.0471657 0)
(0.911008 0.0465605 0)
(0.391429 0.0136205 0)
(0.308949 -0.00442059 0)
(0.847429 -0.0321072 0)
(1.04993 -0.0396969 0)
(1.07993 -0.0380308 0)
(1.06846 -0.0331905 0)
(1.05139 -0.0273954 0)
(1.03801 -0.0221894 0)
(1.02805 -0.0163272 0)
(1.02127 -0.00976586 0)
(1.01769 -0.00262087 0)
(1.01755 0.0049859 0)
(1.02088 0.0118996 0)
(1.02744 0.0181727 0)
(1.03715 0.0238419 0)
(1.0506 0.0288711 0)
(1.06759 0.0344204 0)
(1.07884 0.0390525 0)
(1.04839 0.0405355 0)
(0.845028 0.0324944 0)
(0.306649 0.00452053 0)
(0.266284 0.000122484 0)
(0.790574 -0.0195546 0)
(1.0337 -0.030593 0)
(1.08382 -0.0313068 0)
(1.07767 -0.0283351 0)
(1.06102 -0.0236419 0)
(1.04697 -0.019168 0)
(1.03574 -0.0143446 0)
(1.02783 -0.00872836 0)
(1.02363 -0.00207223 0)
(1.02334 0.00519682 0)
(1.02709 0.0116109 0)
(1.03467 0.0169033 0)
(1.04593 0.0213797 0)
(1.05969 0.0255054 0)
(1.07623 0.0298535 0)
(1.08212 0.0324917 0)
(1.03137 0.0314778 0)
(0.787002 0.0199562 0)
(0.263206 -3.3526e-05 0)
(0.243421 0.00120625 0)
(0.742503 -0.0116541 0)
(1.015 -0.0234452 0)
(1.08356 -0.0251063 0)
(1.08242 -0.0232755 0)
(1.06742 -0.0196168 0)
(1.05383 -0.0160147 0)
(1.04282 -0.0117692 0)
(1.03473 -0.00689772 0)
(1.02994 -0.00106358 0)
(1.0296 0.00499085 0)
(1.03379 0.010597 0)
(1.0415 0.0151012 0)
(1.05188 0.0189157 0)
(1.06541 0.0220319 0)
(1.08021 0.0253238 0)
(1.08086 0.0267482 0)
(1.01113 0.0246153 0)
(0.737126 0.0121661 0)
(0.239334 -0.00109636 0)
(0.230232 0.00115145 0)
(0.701707 -0.00739678 0)
(0.995456 -0.0193449 0)
(1.08134 -0.0213424 0)
(1.08513 -0.0196347 0)
(1.07174 -0.0166091 0)
(1.05864 -0.0133769 0)
(1.04846 -0.0093807 0)
(1.04086 -0.00494127 0)
(1.03617 6.52693e-05 0)
(1.03577 0.00485855 0)
(1.03967 0.00949979 0)
(1.04649 0.0133851 0)
(1.05636 0.0166866 0)
(1.06924 0.0196155 0)
(1.08207 0.0220825 0)
(1.07766 0.023332 0)
(0.990072 0.0207798 0)
(0.694184 0.00800709 0)
(0.224993 -0.00100713 0)
(0.222273 0.000714025 0)
(0.668661 -0.00452545 0)
(0.976636 -0.0156433 0)
(1.07896 -0.0178068 0)
(1.08755 -0.0163114 0)
(1.07509 -0.0138926 0)
(1.06178 -0.0108552 0)
(1.05169 -0.00730491 0)
(1.04421 -0.00338267 0)
(1.03963 0.000888259 0)
(1.03889 0.00510689 0)
(1.04222 0.00900202 0)
(1.04883 0.0123555 0)
(1.05854 0.0155096 0)
(1.0713 0.0175813 0)
(1.08337 0.0194277 0)
(1.07375 0.0203887 0)
(0.969027 0.0173663 0)
(0.658618 0.00525518 0)
(0.215594 -0.000529452 0)
(0.218158 0.000383612 0)
(0.646176 -0.00189328 0)
(0.960545 -0.0105937 0)
(1.07638 -0.0129002 0)
(1.08998 -0.0120162 0)
(1.07802 -0.0101345 0)
(1.0643 -0.00795782 0)
(1.05356 -0.00516675 0)
(1.04577 -0.00184375 0)
(1.04115 0.00193947 0)
(1.04027 0.00602602 0)
(1.04346 0.00924731 0)
(1.05024 0.0117833 0)
(1.05972 0.0134315 0)
(1.07318 0.0148223 0)
(1.08445 0.0159867 0)
(1.06936 0.0160075 0)
(0.950067 0.0126495 0)
(0.633162 0.00279886 0)
(0.209693 -0.000184511 0)
(0.216984 0.000135475 0)
(0.633676 -0.000217536 0)
(0.947505 -0.00576582 0)
(1.07344 -0.00783734 0)
(1.09204 -0.0075419 0)
(1.08127 -0.00605626 0)
(1.06744 -0.0043918 0)
(1.05644 -0.00248776 0)
(1.04818 1.29694e-05 0)
(1.04315 0.00304004 0)
(1.04201 0.00657237 0)
(1.04503 0.0088426 0)
(1.05182 0.0104493 0)
(1.06224 0.0110929 0)
(1.07545 0.012011 0)
(1.08465 0.012429 0)
(1.06387 0.0115741 0)
(0.93394 0.00819003 0)
(0.61725 0.00127203 0)
(0.206246 5.06623e-05 0)
(0.217304 -2.97261e-06 0)
(0.628234 0.000488591 0)
(0.939099 -0.00247665 0)
(1.07111 -0.00443766 0)
(1.09382 -0.00447702 0)
(1.08443 -0.00324668 0)
(1.07107 -0.00175186 0)
(1.06047 2.40115e-05 0)
(1.05235 0.00228183 0)
(1.04719 0.00474842 0)
(1.04562 0.00744429 0)
(1.04798 0.00902464 0)
(1.05399 0.00993638 0)
(1.06327 0.0108219 0)
(1.07553 0.0103772 0)
(1.08386 0.0100326 0)
(1.05853 0.00882758 0)
(0.921846 0.00556288 0)
(0.608103 0.000877598 0)
(0.204132 0.000177466 0)
(0.218529 1.12746e-06 0)
(0.627529 0.000895599 0)
(0.934423 -0.000522434 0)
(1.06919 -0.00199003 0)
(1.09463 -0.00203515 0)
(1.08623 -0.00131522 0)
(1.07342 -0.000284305 0)
(1.0632 0.00154385 0)
(1.05552 0.00382472 0)
(1.05046 0.00637382 0)
(1.04841 0.00881824 0)
(1.04994 0.0102975 0)
(1.05501 0.0110147 0)
(1.06303 0.0111345 0)
(1.07477 0.0102343 0)
(1.08172 0.00957742 0)
(1.05271 0.00792869 0)
(0.91156 0.00458944 0)
(0.600924 0.00105228 0)
(0.201707 0.000255752 0)
(0.220276 0.000234998 0)
(0.628212 0.00119286 0)
(0.930955 0.000857843 0)
(1.06753 -0.000176199 0)
(1.09465 -0.000315943 0)
(1.0867 0.000202735 0)
(1.07423 0.00125392 0)
(1.06411 0.00318717 0)
(1.05637 0.00551743 0)
(1.05113 0.00834862 0)
(1.04869 0.0107688 0)
(1.04975 0.012309 0)
(1.05446 0.0125381 0)
(1.06212 0.0118848 0)
(1.07315 0.0107444 0)
(1.07832 0.00938417 0)
(1.04671 0.00703507 0)
(0.903123 0.00378497 0)
(0.595395 0.001057 0)
(0.199401 0.000253436 0)
(0.223439 0.000414536 0)
(0.631007 0.00159244 0)
(0.930451 0.00235948 0)
(1.06628 0.00180228 0)
(1.09452 0.00159387 0)
(1.08759 0.00191719 0)
(1.07576 0.00287404 0)
(1.06591 0.00483702 0)
(1.05808 0.00737118 0)
(1.05235 0.0105043 0)
(1.04922 0.0129692 0)
(1.04949 0.0145213 0)
(1.05329 0.0146307 0)
(1.06012 0.0137417 0)
(1.06999 0.0122414 0)
(1.07352 0.01004 0)
(1.03968 0.00704984 0)
(0.894731 0.00360139 0)
(0.589654 0.00115773 0)
(0.196843 0.000270366 0)
(0.226859 0.000423328 0)
(0.63509 0.00195846 0)
(0.931634 0.0035613 0)
(1.06536 0.00322433 0)
(1.09469 0.00303788 0)
(1.08925 0.00342625 0)
(1.07856 0.0049074 0)
(1.06933 0.0073074 0)
(1.06152 0.010243 0)
(1.05516 0.0136365 0)
(1.05102 0.016068 0)
(1.05011 0.0174402 0)
(1.0526 0.0172799 0)
(1.05819 0.0161437 0)
(1.06622 0.0139242 0)
(1.06767 0.0109752 0)
(1.03169 0.00730988 0)
(0.886547 0.00381015 0)
(0.584248 0.00147537 0)
(0.19414 0.000334622 0)
(0.232084 0.000507141 0)
(0.643433 0.00248798 0)
(0.935068 0.00463006 0)
(1.0655 0.00510096 0)
(1.09496 0.00509599 0)
(1.09112 0.0055269 0)
(1.08177 0.00729207 0)
(1.07323 0.010059 0)
(1.06548 0.013548 0)
(1.05854 0.017242 0)
(1.05333 0.0197392 0)
(1.05123 0.0207816 0)
(1.0522 0.0202562 0)
(1.05627 0.0186663 0)
(1.06191 0.0161277 0)
(1.06121 0.0126595 0)
(1.02348 0.00869517 0)
(0.878348 0.0048489 0)
(0.577466 0.00204031 0)
(0.190335 0.000441754 0)
(0.236902 0.000627497 0)
(0.649771 0.00287645 0)
(0.939018 0.00556017 0)
(1.0669 0.00672905 0)
(1.09602 0.00736067 0)
(1.09338 0.00853904 0)
(1.08515 0.0109142 0)
(1.07687 0.0142665 0)
(1.0688 0.0182324 0)
(1.06088 0.0221429 0)
(1.05433 0.0246264 0)
(1.05082 0.0251621 0)
(1.0502 0.0241172 0)
(1.05252 0.0217942 0)
(1.0559 0.0185144 0)
(1.05292 0.0142105 0)
(1.01334 0.0096303 0)
(0.86819 0.00560764 0)
(0.569055 0.00251182 0)
(0.185578 0.00053958 0)
(0.244936 0.000854844 0)
(0.662553 0.00395313 0)
(0.947197 0.0077735 0)
(1.07008 0.0099306 0)
(1.09805 0.0112182 0)
(1.09651 0.012954 0)
(1.08913 0.0158979 0)
(1.08099 0.0196904 0)
(1.07226 0.0239562 0)
(1.06304 0.0278419 0)
(1.05489 0.0299673 0)
(1.04979 0.0296401 0)
(1.04768 0.0276023 0)
(1.04824 0.0244066 0)
(1.04957 0.020402 0)
(1.04462 0.015921 0)
(1.00398 0.0113349 0)
(0.858817 0.00695833 0)
(0.559588 0.00310757 0)
(0.179747 0.000642035 0)
(0.253088 0.0011133 0)
(0.674114 0.00467134 0)
(0.95598 0.00939155 0)
(1.07542 0.0125896 0)
(1.10246 0.0154168 0)
(1.10134 0.0185277 0)
(1.09435 0.0223926 0)
(1.08592 0.0269025 0)
(1.07621 0.0316268 0)
(1.06537 0.0354203 0)
(1.05516 0.0369127 0)
(1.04799 0.0355722 0)
(1.04398 0.0324527 0)
(1.04248 0.0283509 0)
(1.04179 0.0235136 0)
(1.03475 0.0181327 0)
(0.991933 0.0127716 0)
(0.845141 0.00799042 0)
(0.54682 0.00365736 0)
(0.172561 0.000755839 0)
(0.266086 0.00146663 0)
(0.693931 0.006664 0)
(0.970692 0.0130693 0)
(1.08426 0.0177557 0)
(1.10907 0.0214373 0)
(1.10795 0.0255168 0)
(1.10076 0.0304992 0)
(1.09151 0.035874 0)
(1.08029 0.0409786 0)
(1.06723 0.0445612 0)
(1.05455 0.045129 0)
(1.04508 0.0424463 0)
(1.03919 0.0378782 0)
(1.03582 0.0324622 0)
(1.03326 0.0266585 0)
(1.0247 0.0210557 0)
(0.98099 0.0155507 0)
(0.833653 0.0101444 0)
(0.533857 0.00456936 0)
(0.164363 0.000902638 0)
(0.281004 0.00205942 0)
(0.716186 0.00799096 0)
(0.988062 0.0161851 0)
(1.09604 0.0224929 0)
(1.11856 0.0280732 0)
(1.11664 0.0343806 0)
(1.10848 0.0407734 0)
(1.09771 0.047193 0)
(1.08434 0.0527815 0)
(1.06868 0.0560532 0)
(1.05322 0.0553808 0)
(1.04116 0.0511097 0)
(1.03303 0.0450917 0)
(1.02772 0.0385968 0)
(1.0235 0.0318587 0)
(1.01296 0.0250845 0)
(0.965922 0.018425 0)
(0.813793 0.011915 0)
(0.514072 0.00539694 0)
(0.153574 0.00107818 0)
(0.302639 0.00294958 0)
(0.746395 0.0118979 0)
(1.01135 0.0220138 0)
(1.11207 0.0303949 0)
(1.13145 0.0376441 0)
(1.12794 0.0456268 0)
(1.11784 0.0535242 0)
(1.10458 0.0611352 0)
(1.08817 0.06709 0)
(1.06902 0.0697376 0)
(1.05001 0.067676 0)
(1.03509 0.0617295 0)
(1.0249 0.0539876 0)
(1.01778 0.0456337 0)
(1.01192 0.0374818 0)
(0.999878 0.0298113 0)
(0.951253 0.0223634 0)
(0.798113 0.0149038 0)
(0.49601 0.00667252 0)
(0.142149 0.00119723 0)
(0.333204 0.00408231 0)
(0.787771 0.0147279 0)
(1.04216 0.0291287 0)
(1.13344 0.0402789 0)
(1.14841 0.0500082 0)
(1.14195 0.0607378 0)
(1.12862 0.0707105 0)
(1.11187 0.0792659 0)
(1.09171 0.0852369 0)
(1.06867 0.0869369 0)
(1.04617 0.0829636 0)
(1.02828 0.0746289 0)
(1.01547 0.0648816 0)
(1.00633 0.0551102 0)
(0.998733 0.0456265 0)
(0.984316 0.0365898 0)
(0.930707 0.0274967 0)
(0.768386 0.0178609 0)
(0.465107 0.00766945 0)
(0.126325 0.0013713 0)
(0.369699 0.00801613 0)
(0.837628 0.0244183 0)
(1.08079 0.0412154 0)
(1.15992 0.0558594 0)
(1.16959 0.0679588 0)
(1.15846 0.0818313 0)
(1.14088 0.0927184 0)
(1.11956 0.101647 0)
(1.09468 0.106968 0)
(1.0668 0.106889 0)
(1.03972 0.100435 0)
(1.01843 0.0898745 0)
(1.00353 0.0781033 0)
(0.992615 0.0662045 0)
(0.98322 0.0549588 0)
(0.966337 0.0440794 0)
(0.908854 0.0332169 0)
(0.744901 0.0220041 0)
(0.440612 0.00971332 0)
(0.112054 0.00134268 0)
(0.453596 0.0115975 0)
(0.91628 0.0343954 0)
(1.13179 0.0607642 0)
(1.19277 0.0786304 0)
(1.19555 0.0953423 5.54797e-35)
(1.17715 0.11057 -4.18556e-35)
(1.1536 0.121697 0)
(1.12649 0.130151 0)
(1.09623 0.13373 0)
(1.06348 0.131172 0)
(1.03256 0.121842 0)
(1.00828 0.108128 0)
(0.990196 0.0936507 0)
(0.976795 0.0798842 0)
(0.965299 0.0669396 0)
(0.945049 0.0546993 0)
(0.880245 0.041823 0)
(0.701012 0.0273012 0)
(0.390305 0.0103251 0)
(0.0880778 0.00111538 0)
(0.520144 0.0266714 -9.01539e-21)
(1.00601 0.0588434 6.16181e-21)
(1.18756 0.0931717 0)
(1.22874 0.114645 6.48409e-23)
(1.22204 0.134265 -5.25429e-23)
(1.19539 0.148929 4.41595e-35)
(1.16524 0.159115 0)
(1.13197 0.165812 4.45948e-21)
(1.09579 0.166973 -1.61352e-20)
(1.057 0.161406 3.59237e-21)
(1.02018 0.148427 0)
(0.99108 0.131729 -1.20417e-20)
(0.970626 0.115324 -1.51214e-20)
(0.954965 0.0994079 2.66037e-20)
(0.940052 0.0845037 -2.14239e-20)
(0.913752 0.06946 0)
(0.837077 0.052948 -8.26666e-21)
(0.644053 0.0347029 0)
(0.341864 0.0156797 -4.4646e-20)
(0.0704645 0.00195938 5.28482e-20)
(0.548487 0.0547066 2.01072e-22)
(1.05823 0.102588 -4.94166e-20)
(1.23127 0.144998 1.24447e-20)
(1.26166 0.163498 2.00158e-20)
(1.24594 0.182433 6.35124e-22)
(1.21152 0.194986 -2.4877e-22)
(1.17478 0.20336 0)
(1.13511 0.207904 0)
(1.09253 0.20668 2.51992e-20)
(1.04758 0.198331 0)
(1.00598 0.182774 4.11724e-20)
(0.973164 0.164297 1.29191e-20)
(0.946757 0.145534 3.44674e-22)
(0.925629 0.128324 -2.99182e-20)
(0.9069 0.112414 0)
(0.876991 0.0975139 0)
(0.79845 0.0779805 -1.3985e-19)
(0.613407 0.0562181 3.51022e-19)
(0.329608 0.0266519 -2.08635e-19)
(0.0700183 0.00683236 -2.47647e-19)
(0.551484 0.0797254 8.28342e-20)
(1.08704 0.1607 -2.44603e-20)
(1.26371 0.207573 -6.66052e-21)
(1.28792 0.223161 -3.81392e-20)
(1.26458 0.238865 1.3709e-20)
(1.22383 0.247335 5.92698e-21)
(1.18109 0.252408 2.15408e-21)
(1.13531 0.253883 0)
(1.08667 0.24971 -5.20435e-20)
(1.03574 0.238464 5.93909e-20)
(0.987593 0.220389 -1.12689e-19)
(0.948141 0.19884 5.51632e-20)
(0.919645 0.179521 -4.11463e-20)
(0.897219 0.16192 8.98975e-20)
(0.875309 0.14592 0)
(0.843707 0.13037 -3.55218e-20)
(0.768611 0.111631 0)
(0.598583 0.0812266 2.02086e-19)
(0.33312 0.0452874 -4.79624e-19)
(0.0823481 0.0114291 3.01028e-19)
(0.539588 0.111745 -3.89249e-19)
(1.10132 0.219692 1.55711e-19)
(1.28341 0.27483 2.52911e-20)
(1.30552 0.287957 0)
(1.27704 0.299957 2.13939e-20)
(1.23158 0.303703 -2.35353e-20)
(1.18368 0.304857 -2.18453e-21)
(1.13244 0.302608 0)
(1.07846 0.294765 3.66845e-20)
(1.02225 0.279841 -4.06823e-20)
(0.969589 0.257818 9.91819e-20)
(0.927885 0.235508 0)
(0.894478 0.215201 -8.65985e-20)
(0.867234 0.197572 4.75773e-20)
(0.844134 0.181481 1.30238e-19)
(0.813685 0.166336 -1.14602e-19)
(0.74424 0.145604 1.89908e-19)
(0.58971 0.110939 -4.21985e-19)
(0.344687 0.0652365 2.67906e-19)
(0.0944821 0.0186808 -3.36087e-19)
(0.522437 0.13592 2.39051e-19)
(1.10328 0.274749 -1.76134e-19)
(1.29304 0.342358 7.91518e-20)
(1.3148 0.353568 -1.09706e-19)
(1.2828 0.36227 7.47049e-20)
(1.23409 0.361666 -1.29018e-20)
(1.18225 0.358875 3.67706e-21)
(1.12684 0.352623 -2.16567e-20)
(1.06856 0.34084 -3.63323e-20)
(1.00765 0.322186 -8.75091e-20)
(0.95078 0.298247 -2.142e-19)
(0.904786 0.273436 -7.27353e-20)
(0.870294 0.251556 2.70726e-21)
(0.843819 0.233216 -1.72453e-19)
(0.819608 0.217132 -6.33767e-21)
(0.788885 0.200412 1.6858e-19)
(0.724699 0.17878 -5.25189e-20)
(0.583265 0.140455 -3.06939e-20)
(0.35281 0.0859655 0)
(0.102483 0.0257742 7.21515e-19)
(0.502999 0.157406 0)
(1.0946 0.325638 5.43258e-20)
(1.2947 0.40667 3.79868e-20)
(1.31776 0.4176 -1.2217e-20)
(1.28326 0.424075 -9.00866e-20)
(1.2322 0.419499 2.10605e-20)
(1.17738 0.412962 -1.43347e-21)
(1.11872 0.402756 3.98742e-20)
(1.05669 0.387178 -2.21453e-20)
(0.991691 0.364815 3.77302e-20)
(0.93056 0.33685 1.1564e-19)
(0.881645 0.308778 1.61345e-19)
(0.844825 0.285816 -1.01173e-19)
(0.815838 0.266386 1.87209e-19)
(0.793425 0.249827 -1.50581e-19)
(0.766847 0.234391 0)
(0.709609 0.212222 -4.0272e-19)
(0.578075 0.170239 5.41345e-19)
(0.356788 0.105485 4.09897e-20)
(0.106606 0.0323118 -7.65305e-19)
(0.487268 0.178112 -5.51729e-21)
(1.0847 0.374776 -3.70038e-19)
(1.29138 0.467892 -2.86147e-19)
(1.3156 0.478895 2.39483e-19)
(1.27897 0.483872 -5.40953e-20)
(1.2264 0.475934 3.03884e-20)
(1.16942 0.46608 -1.59426e-20)
(1.10815 0.452271 -1.00393e-21)
(1.04293 0.433084 -7.59357e-20)
(0.974539 0.407293 7.72641e-22)
(0.91139 0.375943 -1.26272e-19)
(0.862842 0.347091 -1.72022e-19)
(0.827195 0.322406 1.14227e-19)
(0.800253 0.3019 -6.73619e-20)
(0.77491 0.284326 1.64126e-19)
(0.745536 0.265993 0)
(0.689596 0.241624 -2.49871e-19)
(0.565494 0.197052 3.69643e-19)
(0.353313 0.122771 7.08072e-19)
(0.106411 0.0371928 -8.31362e-19)
(0.472137 0.196009 -7.0226e-19)
(1.07047 0.41994 3.54972e-19)
(1.28433 0.525798 2.78307e-19)
(1.30983 0.537452 -2.59741e-19)
(1.27151 0.541295 1.12113e-20)
(1.21784 0.530288 7.98335e-20)
(1.15915 0.517532 1.98459e-21)
(1.09586 0.500469 -1.47234e-20)
(1.02838 0.477908 -4.78066e-20)
(0.957836 0.448257 8.44187e-20)
(0.892498 0.413117 1.18374e-19)
(0.839774 0.379415 2.69443e-19)
(0.799986 0.351541 0)
(0.768978 0.328487 5.53588e-21)
(0.748247 0.310386 -4.57286e-19)
(0.72547 0.295466 1.04982e-19)
(0.676214 0.270525 5.3726e-19)
(0.55605 0.220914 -1.57694e-19)
(0.34397 0.137362 3.35729e-19)
(0.103302 0.0404545 -2.79692e-20)
(0.462607 0.214932 6.23262e-21)
(1.05818 0.463944 3.28064e-19)
(1.27479 0.581073 2.10968e-19)
(1.30095 0.593171 -4.61672e-19)
(1.26118 0.595716 2.97083e-19)
(1.20693 0.582049 -9.73576e-20)
(1.14702 0.56687 -5.60338e-21)
(1.08217 0.546912 2.78768e-20)
(1.01265 0.521312 8.23259e-20)
(0.939347 0.488395 -1.10494e-19)
(0.871079 0.450315 0)
(0.819053 0.414415 -1.06874e-19)
(0.783188 0.385944 1.227e-19)
(0.75733 0.363294 1.66349e-19)
(0.730835 0.34381 -9.53514e-20)
(0.702834 0.321783 -2.41725e-19)
(0.652171 0.294658 -7.3533e-20)
(0.537502 0.239362 -1.21049e-21)
(0.332153 0.147613 0)
(0.098168 0.0432222 0)
(0.453728 0.230344 -3.4623e-19)
(1.04433 0.50447 0)
(1.26333 0.632891 2.41231e-19)
(1.2904 0.646041 -1.10692e-19)
(1.2495 0.647354 -3.09305e-19)
(1.19473 0.631123 8.52159e-20)
(1.13372 0.613832 -1.1964e-20)
(1.0676 0.591381 -1.00151e-20)
(0.996406 0.563083 4.94345e-20)
(0.921266 0.527023 -4.68679e-20)
(0.851092 0.484624 6.63811e-20)
(0.796462 0.44497 3.33501e-19)
(0.754753 0.412254 1.34438e-20)
(0.72218 0.384879 -1.69553e-19)
(0.702463 0.361697 3.28974e-19)
(0.682413 0.346018 4.48092e-21)
(0.63775 0.315231 7.86721e-20)
(0.523121 0.257373 -3.82627e-19)
(0.319025 0.155695 3.8763e-19)
(0.0921278 0.04494 -4.63282e-19)
(0.447217 0.249665 2.7297e-23)
(1.03222 0.544007 0)
(1.25109 0.682085 0)
(1.2784 0.696233 1.03744e-19)
(1.23651 0.696166 1.20719e-19)
(1.18143 0.677532 -7.18108e-20)
(1.11953 0.658353 5.04566e-20)
(1.05229 0.633736 0)
(0.9794 0.603048 -8.27227e-20)
(0.901961 0.564366 1.61804e-19)
(0.829356 0.519677 2.04426e-19)
(0.772717 0.47752 -1.26092e-19)
(0.734092 0.441918 -1.58817e-19)
(0.709807 0.414105 3.75952e-19)
(0.68541 0.392112 -1.1634e-19)
(0.658651 0.366045 -1.41497e-19)
(0.610684 0.334475 -8.6712e-20)
(0.501019 0.269397 -4.15254e-19)
(0.304364 0.161564 5.8363e-20)
(0.0853907 0.0455802 5.03667e-19)
(0.443489 0.268556 -1.38242e-19)
(1.02032 0.58062 -2.18694e-19)
(1.2381 0.727769 2.36771e-20)
(1.26583 0.743584 7.76283e-23)
(1.22327 0.742477 4.06323e-20)
(1.16782 0.721531 -1.89739e-19)
(1.105 0.700554 0)
(1.03669 0.673948 1.03441e-20)
(0.962414 0.641246 -8.15653e-21)
(0.882936 0.600131 2.53753e-19)
(0.807529 0.551736 -5.17785e-20)
(0.749124 0.504863 5.73433e-20)
(0.708332 0.466811 0)
(0.67408 0.434603 -2.05443e-19)
(0.654546 0.406796 2.56817e-19)
(0.636328 0.385788 0)
(0.593893 0.348521 -1.89984e-19)
(0.4826 0.281365 5.55501e-19)
(0.288534 0.165469 6.61283e-20)
(0.0782353 0.0451721 -6.24265e-19)
(0.441511 0.285549 -3.06538e-19)
(1.01017 0.615985 3.93288e-19)
(1.22509 0.770891 0)
(1.25268 0.7881 2.57701e-19)
(1.20948 0.786043 0)
(1.15383 0.763166 1.78892e-19)
(1.09026 0.740551 0)
(1.02105 0.712135 0)
(0.945251 0.677737 -2.97095e-20)
(0.863595 0.634621 -2.48233e-19)
(0.786174 0.583999 -3.80679e-19)
(0.726768 0.535211 7.31509e-20)
(0.683733 0.492176 2.74637e-19)
(0.659987 0.458156 2.31685e-19)
(0.636271 0.430287 -8.24175e-19)
(0.610722 0.40034 -3.4142e-19)
(0.564835 0.363997 1.98403e-19)
(0.457425 0.287967 0)
(0.271273 0.167134 5.72758e-19)
(0.0704424 0.0437715 -6.77593e-19)
(0.44002 0.301262 3.37838e-19)
(0.999759 0.648391 -4.32077e-19)
(1.21196 0.810712 0)
(1.2395 0.829758 -1.02325e-20)
(1.19586 0.827114 -1.0612e-19)
(1.14 0.80253 0)
(1.07579 0.778449 -1.61349e-20)
(1.00564 0.748388 1.82275e-20)
(0.92848 0.712418 -3.41123e-20)
(0.84487 0.667575 2.33538e-20)
(0.764285 0.614664 0)
(0.701392 0.561544 2.91304e-19)
(0.658313 0.515592 3.88085e-21)
(0.622603 0.475869 1.25929e-19)
(0.604374 0.441758 1.5202e-19)
(0.587371 0.417069 0)
(0.545869 0.370061 -3.35538e-19)
(0.437088 0.2939 6.57707e-19)
(0.253478 0.166588 -7.00132e-19)
(0.0628245 0.0413684 1.47148e-18)
(0.438751 0.316198 0)
(0.990615 0.68006 0)
(1.19921 0.848334 -2.3776e-19)
(1.2262 0.868734 0)
(1.18208 0.865471 0)
(1.12619 0.839563 2.54496e-19)
(1.06153 0.814293 -2.00562e-20)
(0.990726 0.782832 1.69391e-20)
(0.912442 0.74572 -7.99838e-22)
(0.827245 0.700048 0)
(0.744583 0.645656 -6.14939e-20)
(0.678829 0.589679 -2.4184e-19)
(0.631166 0.539837 -3.04809e-19)
(0.606118 0.497942 -1.27084e-19)
(0.583539 0.463879 1.67527e-19)
(0.559175 0.4239 -3.98107e-19)
(0.514842 0.382291 7.2651e-19)
(0.409525 0.295112 6.83996e-21)
(0.234874 0.163871 -6.77542e-19)
(0.0552606 0.0383267 -1.0055e-19)
(0.437349 0.330776 0)
(0.981247 0.709263 -3.36709e-19)
(1.18659 0.883119 2.65135e-19)
(1.21316 0.905105 0)
(1.1687 0.901409 0)
(1.1128 0.874371 -5.619e-19)
(1.04783 0.848102 0)
(0.976515 0.815478 0)
(0.897253 0.777336 -5.27091e-20)
(0.810259 0.729982 4.77081e-20)
(0.724247 0.672667 -4.85771e-19)
(0.65451 0.615026 0)
(0.605622 0.56346 -3.3161e-19)
(0.565714 0.514167 1.15495e-20)
(0.546473 0.468977 -5.35797e-19)
(0.533045 0.435869 2.15875e-19)
(0.494451 0.378771 3.72215e-21)
(0.390116 0.293204 -7.76403e-19)
(0.217977 0.159578 3.68337e-19)
(0.0496037 0.0352617 1.07577e-19)
(0.436032 0.344887 0)
(0.973087 0.737907 -3.96388e-19)
(1.17449 0.916195 2.82215e-19)
(1.20029 0.93919 5.9466e-19)
(1.15547 0.93486 1.21486e-19)
(1.09967 0.906884 -8.495e-20)
(1.03454 0.879873 5.32724e-20)
(0.962827 0.846355 -1.12224e-19)
(0.882525 0.80741 5.63837e-20)
(0.792897 0.759832 2.82769e-19)
(0.702651 0.704116 4.02882e-19)
(0.62903 0.645589 7.81914e-20)
(0.575278 0.586152 4.81841e-19)
(0.546831 0.534439 3.14342e-19)
(0.523399 0.488981 3.87077e-19)
(0.500653 0.435188 -2.42265e-19)
(0.460778 0.383965 -2.86884e-19)
(0.361688 0.287214 3.37742e-19)
(0.199469 0.150264 -1.99477e-19)
(0.0455111 0.034138 3.51612e-19)
(0.434628 0.358523 5.21424e-19)
(0.9647 0.764046 6.2964e-19)
(1.16261 0.946756 1.54884e-19)
(1.18786 0.971014 1.60669e-20)
(1.14279 0.966168 -4.20967e-19)
(1.08709 0.937324 1.62722e-19)
(1.02184 0.909647 -6.07451e-20)
(0.949801 0.875353 -2.13218e-20)
(0.868496 0.835882 -4.34692e-20)
(0.778053 0.787743 -3.17408e-19)
(0.68856 0.729457 2.36467e-20)
(0.611706 0.667644 0)
(0.552407 0.61116 0)
(0.502921 0.552629 -1.59507e-19)
(0.47939 0.491626 -6.37716e-19)
(0.466684 0.443061 5.25896e-19)
(0.437682 0.361932 3.21808e-19)
(0.352984 0.266375 0)
(0.203289 0.129183 6.36733e-19)
(0.040224 0.0151576 -3.80884e-19)
(0.433383 0.371394 -2.78603e-19)
(0.957336 0.78958 2.40757e-19)
(1.15128 0.975848 -3.45191e-19)
(1.17577 1.00087 -3.72871e-19)
(1.13044 0.995323 -1.65653e-19)
(1.07488 0.965676 3.92834e-20)
(1.00951 0.937443 0)
(0.93716 0.902607 1.60589e-19)
(0.855321 0.862784 9.14681e-21)
(0.762986 0.814427 0)
(0.666299 0.758264 0)
(0.582442 0.697706 5.52129e-20)
(0.519341 0.633434 8.54234e-20)
(0.481948 0.572765 -1.72211e-19)
(0.451016 0.515202 4.61275e-19)
(0.424543 0.434096 -5.79508e-19)
(0.391622 0.355437 -6.91776e-19)
(0.331525 0.242579 6.13836e-19)
(0.229894 0.14534 -2.29651e-19)
(0.123993 0.0938473 1.31598e-19)
(0.431875 0.383483 3.21138e-19)
(0.949645 0.812606 0)
(1.14018 1.00259 0)
(1.16415 1.02868 -1.2574e-19)
(1.11868 1.02262 1.01776e-19)
(1.06326 0.992225 -2.0615e-20)
(0.997855 0.963486 -2.31312e-19)
(0.925407 0.92821 -2.41545e-19)
(0.842866 0.888104 2.62346e-20)
(0.748902 0.840204 -2.59927e-20)
(0.652832 0.783173 6.36947e-20)
(0.568643 0.721222 -4.51165e-19)
(0.499853 0.662714 -5.0133e-19)
(0.435027 0.597337 -9.18367e-20)
(0.394687 0.518521 0)
(0.372216 0.446959 -1.28075e-20)
(0.349017 0.306278 3.81693e-19)
(0.307359 0.146508 -6.43052e-19)
(0.269281 -0.0150721 4.76205e-19)
(0.0818682 -0.0852017 3.79546e-19)
(0.430488 0.394917 -6.99808e-19)
(0.942769 0.835159 -3.0197e-19)
(1.12959 1.02817 6.33036e-21)
(1.15284 1.05494 1.59479e-19)
(1.1072 1.04832 0)
(1.05194 1.01732 4.80451e-19)
(0.986514 0.988249 2.8869e-19)
(0.913863 0.952676 -4.64767e-20)
(0.830792 0.912706 9.34535e-22)
(0.736013 0.864828 -2.43007e-20)
(0.635786 0.809259 2.25707e-20)
(0.544511 0.751877 3.99078e-19)
(0.463902 0.689056 4.90033e-19)
(0.413142 0.620879 8.84972e-20)
(0.364372 0.555382 4.91905e-19)
(0.306866 0.442333 0)
(0.210848 0.305466 0)
(0.0508451 0.290809 4.77071e-19)
(-0.064451 0.630483 -3.3497e-20)
(-1.29681e-05 1.4963 -6.14697e-19)
(0.428668 0.405748 3.80842e-19)
(0.935585 0.855535 9.06768e-19)
(1.11913 1.05181 -1.36571e-18)
(1.14188 1.0797 8.24772e-19)
(1.09613 1.07286 -9.70434e-20)
(1.041 1.04149 6.25203e-19)
(0.975543 1.01226 0)
(0.902793 0.976762 2.47524e-19)
(0.819326 0.937178 0)
(0.722737 0.890577 2.15407e-19)
(0.620116 0.837184 -3.65926e-20)
(0.524612 0.778851 4.10295e-20)
(0.448907 0.721692 5.42475e-19)
(0.361272 0.662196 -2.01774e-19)
(0.277333 0.575658 -2.58082e-19)
(0.209265 0.507132 0)
(0.109973 0.59335 0)
(0.0410241 1.24041 0)
(0.0799907 2.42218 -2.68213e-19)
(0.111309 2.89073 -1.66535e-19)
(0.426936 0.416171 0)
(0.929165 0.875529 0)
(1.10922 1.07454 4.88603e-19)
(1.13127 1.10316 -6.87647e-19)
(1.08539 1.09606 4.7344e-19)
(1.03044 1.06449 -5.73177e-19)
(0.965044 1.03535 -3.34421e-20)
(0.892299 1.00002 2.60382e-20)
(0.808323 0.960976 3.65646e-21)
(0.711086 0.91528 -2.44411e-19)
(0.607211 0.862233 5.47354e-20)
(0.510839 0.811661 3.73515e-19)
(0.411088 0.759647 -5.34079e-19)
(0.34094 0.690643 -6.29405e-19)
(0.275188 0.640795 2.20586e-19)
(0.209941 0.757995 0)
(0.147828 1.48373 3.19141e-19)
(0.14651 2.66543 3.56845e-19)
(0.15157 3.07851 -3.99377e-19)
(0.142346 3.21814 4.40909e-19)
(0.42484 0.425728 0)
(0.922448 0.893366 7.36127e-19)
(1.09943 1.09539 -1.26662e-19)
(1.12106 1.12516 8.64649e-19)
(1.07509 1.1181 -4.96948e-19)
(1.02033 1.08653 0)
(0.954962 1.05755 0)
(0.882063 1.02263 0)
(0.797839 0.984671 -9.35578e-20)
(0.699519 0.940734 5.01217e-22)
(0.592001 0.89318 0)
(0.485199 0.842272 -3.63823e-19)
(0.40597 0.792497 0)
(0.295591 0.748629 4.47434e-19)
(0.219246 0.826538 -2.90712e-19)
(0.173799 1.43788 -2.44701e-19)
(0.182594 2.65608 -6.03096e-19)
(0.201419 3.12522 -3.00031e-19)
(0.191081 3.27268 -3.41049e-19)
(0.175802 3.31404 2.96393e-19)
(0.422933 0.434667 -2.48525e-19)
(0.916456 0.91093 1.49504e-20)
(1.09025 1.11554 -1.36434e-19)
(1.11127 1.14607 -6.92194e-19)
(1.06518 1.13896 0)
(1.01058 1.10747 0)
(0.945285 1.0789 0)
(0.872593 1.04461 -1.71184e-20)
(0.788239 1.00741 1.08328e-19)
(0.689206 0.965295 0)
(0.581451 0.917796 0)
(0.48438 0.87479 0)
(0.37066 0.838387 0)
(0.309779 0.832622 2.91961e-19)
(0.287578 1.1812 7.65798e-19)
(0.280171 2.32446 2.39821e-19)
(0.290818 3.07943 4.33654e-19)
(0.282381 3.29275 -2.72975e-19)
(0.231258 3.36181 1.00594e-19)
(0.196701 3.37456 0)
(0.420681 0.443078 2.51817e-19)
(0.909926 0.926826 -1.58704e-18)
(1.0809 1.13442 -4.50071e-19)
(1.1016 1.16616 -1.10042e-19)
(1.05544 1.15927 1.26854e-19)
(1.00108 1.12801 -8.97135e-19)
(0.935894 1.09981 6.10141e-20)
(0.863144 1.06608 4.29826e-19)
(0.778596 1.03041 0)
(0.679242 0.990657 -1.37882e-20)
(0.57055 0.948888 1.25429e-20)
(0.457006 0.908194 0)
(0.377712 0.877285 0)
(0.329511 1.00188 -3.61926e-19)
(0.302389 1.82326 -3.60297e-21)
(0.29702 2.92363 -1.24944e-19)
(0.314917 3.29686 2.00745e-19)
(0.288234 3.40121 6.50183e-20)
(0.219559 3.42773 9.90534e-20)
(0.193079 3.4363 -5.15688e-20)
(0.418354 0.451496 4.85074e-19)
(0.903539 0.944123 1.51768e-18)
(1.0714 1.15446 5.53539e-19)
(1.09157 1.18688 0)
(1.04538 1.17994 0)
(0.991243 1.14876 6.87285e-19)
(0.926189 1.121 -4.27527e-19)
(0.853827 1.0881 -3.94908e-19)
(0.76977 1.05346 -1.5955e-20)
(0.670642 1.01557 7.86073e-21)
(0.560425 0.976406 -2.4342e-19)
(0.458782 0.940552 0)
(0.381865 0.957516 0)
(0.352128 1.33815 -1.9773e-19)
(0.362997 2.42748 -2.59774e-19)
(0.40635 3.19807 0)
(0.433706 3.38651 7.40634e-20)
(0.363102 3.45315 2.14409e-19)
(0.286745 3.49822 -4.66852e-19)
(0.261158 3.52426 2.72488e-19)
(0.415109 0.460257 -9.18979e-19)
(0.8957 0.960881 -7.21957e-19)
(1.06066 1.17457 0)
(1.08068 1.2082 0)
(1.03457 1.20144 0)
(0.980834 1.17034 0)
(0.916179 1.14283 4.56829e-19)
(0.844222 1.1103 -5.06135e-19)
(0.760304 1.07682 0)
(0.660818 1.04195 -1.20894e-21)
(0.553288 1.00644 3.94476e-19)
(0.445371 0.980065 2.13687e-20)
(0.391601 1.06224 3.78902e-20)
(0.409501 1.70858 2.87949e-19)
(0.437646 2.87015 -7.79725e-20)
(0.473065 3.33123 0)
(0.453867 3.46506 -7.24857e-20)
(0.362471 3.55422 1.02013e-19)
(0.275777 3.62591 3.51348e-19)
(0.198932 3.60676 -3.08171e-19)
(0.411789 0.469255 4.35553e-19)
(0.887795 0.980087 -7.09308e-19)
(1.04942 1.19678 0)
(1.06902 1.23079 -1.76865e-19)
(1.02302 1.22373 6.7212e-19)
(0.969691 1.19244 0)
(0.905386 1.16509 0)
(0.833988 1.1332 9.45653e-19)
(0.751037 1.10117 1.69797e-20)
(0.653901 1.06785 -1.11722e-19)
(0.544059 1.03729 -1.62406e-19)
(0.457162 1.02987 1.34109e-19)
(0.42721 1.23023 0)
(0.456626 2.12056 -1.33031e-19)
(0.503436 3.13261 1.15039e-19)
(0.563233 3.43999 -4.4375e-20)
(0.558335 3.54618 0)
(0.486624 3.64578 -1.99112e-19)
(0.408945 3.69168 -7.69608e-19)
(0.324052 3.66275 -1.95167e-19)
(0.40703 0.478221 -8.44574e-19)
(0.877896 0.998222 1.00921e-18)
(1.03656 1.2187 7.5215e-19)
(1.05625 1.25385 -1.95007e-19)