/*--------------------------------*- C++ -*----------------------------------*\
  =========                 |
  \\      /  F ield         | OpenFOAM: The Open Source CFD Toolbox
   \\    /   O peration     | Website:  https://openfoam.org
    \\  /    A nd           | Version:  9
     \\/     M anipulation  |
\*---------------------------------------------------------------------------*/
FoamFile
{
    format      ascii;
    class       volScalarField;
    location    "12";
    object      p;
}
// * * * * * * * * * * * * * * * * * * * * * * * * * * * * * * * * * * * * * //

dimensions      [0 2 -2 0 0 0 0];

internalField   nonuniform List<scalar> 
2200
(
0.432792
0.411333
0.395535
0.37994
0.365532
0.353364
0.343307
0.335484
0.329973
0.327102
0.327347
0.330656
0.336478
0.344534
0.354758
0.367047
0.381536
0.397178
0.413005
0.434479
0.365113
0.3619
0.359132
0.355233
0.350094
0.343849
0.337469
0.331812
0.327491
0.325107
0.325341
0.328207
0.332868
0.338772
0.345324
0.35168
0.356898
0.360856
0.363664
0.366889
0.324522
0.324928
0.327388
0.329202
0.330094
0.329591
0.327957
0.325505
0.323054
0.321429
0.321739
0.32387
0.326686
0.329405
0.331226
0.331864
0.33107
0.329321
0.326903
0.326516
0.301441
0.303034
0.306066
0.308969
0.311908
0.314419
0.316138
0.316778
0.316688
0.316337
0.316705
0.317603
0.318105
0.317772
0.316285
0.313936
0.311116
0.308293
0.305313
0.303734
0.287614
0.289435
0.292574
0.295837
0.298955
0.302027
0.30478
0.306988
0.308562
0.30948
0.309854
0.309612
0.308594
0.306753
0.304253
0.301358
0.298351
0.295173
0.292098
0.290285
0.282549
0.283873
0.286358
0.289387
0.292416
0.295197
0.297509
0.299637
0.30149
0.302863
0.303321
0.3028
0.301618
0.299961
0.297934
0.295355
0.292468
0.289524
0.287088
0.285779
0.282971
0.283681
0.285195
0.287616
0.290226
0.292535
0.294459
0.29623
0.297754
0.298942
0.299496
0.299284
0.29851
0.297325
0.295809
0.293791
0.291381
0.289082
0.28761
0.286914
0.284611
0.284878
0.285593
0.28701
0.288699
0.290404
0.292072
0.293667
0.295039
0.296156
0.296821
0.296857
0.296394
0.295525
0.294404
0.293066
0.291617
0.290358
0.289705
0.289419
0.284057
0.284123
0.284321
0.284844
0.285592
0.286538
0.28777
0.289191
0.290616
0.291923
0.292848
0.293115
0.292874
0.292267
0.291624
0.291072
0.290577
0.290225
0.290101
0.290055
0.281153
0.28116
0.28122
0.28143
0.281804
0.282302
0.283107
0.284218
0.285535
0.286961
0.288182
0.28886
0.289001
0.288913
0.288767
0.28871
0.288641
0.28862
0.288652
0.288642
0.27772
0.277683
0.277811
0.278081
0.278494
0.279046
0.279799
0.280755
0.281981
0.283448
0.28485
0.285908
0.286532
0.286898
0.287068
0.287142
0.287132
0.287108
0.287112
0.287117
0.274272
0.274294
0.274434
0.27475
0.275226
0.275876
0.27675
0.27785
0.27926
0.280936
0.282627
0.283986
0.284946
0.285503
0.285859
0.28603
0.286078
0.286081
0.286084
0.286085
0.270392
0.270414
0.270529
0.27078
0.271225
0.271872
0.272826
0.27411
0.275794
0.277881
0.280079
0.281829
0.283109
0.283933
0.284463
0.284796
0.284995
0.285113
0.285173
0.285173
0.265741
0.265738
0.265895
0.266146
0.266576
0.26726
0.268287
0.269749
0.271752
0.274335
0.277164
0.279495
0.281123
0.282297
0.283098
0.283634
0.283984
0.284204
0.284314
0.284319
0.260421
0.260418
0.260595
0.260932
0.261471
0.262298
0.263529
0.265293
0.267733
0.270932
0.27449
0.277487
0.279646
0.281209
0.282254
0.282955
0.283406
0.283678
0.28381
0.283816
0.254416
0.254418
0.254639
0.255087
0.2558
0.256866
0.258425
0.260639
0.26369
0.267698
0.272162
0.275962
0.278745
0.28069
0.282006
0.282885
0.283449
0.283786
0.283945
0.283946
0.247694
0.247705
0.247978
0.248512
0.249383
0.250717
0.252682
0.255484
0.259339
0.264395
0.270011
0.274781
0.278263
0.280692
0.282349
0.283448
0.284151
0.284567
0.284762
0.284763
0.239733
0.23975
0.240118
0.240826
0.241957
0.243659
0.246149
0.249694
0.254571
0.26095
0.267997
0.273957
0.278293
0.281329
0.283404
0.284786
0.285681
0.28622
0.286474
0.286474
0.23048
0.230495
0.23094
0.231806
0.233235
0.235426
0.238632
0.243181
0.24939
0.257447
0.266268
0.273687
0.279071
0.282846
0.285421
0.287131
0.288226
0.288872
0.289172
0.289168
0.219157
0.219209
0.219846
0.221042
0.222934
0.225784
0.229927
0.235781
0.243711
0.25388
0.264874
0.274056
0.280703
0.285357
0.288531
0.290642
0.292009
0.292833
0.293221
0.29322
0.205542
0.205572
0.206361
0.207902
0.210414
0.214231
0.219706
0.227341
0.237504
0.250312
0.263946
0.27524
0.283402
0.289134
0.293058
0.295677
0.29736
0.29835
0.298802
0.298783
0.18831
0.188464
0.189655
0.191854
0.195292
0.200392
0.207695
0.217706
0.230745
0.246804
0.263577
0.27735
0.287295
0.294297
0.299108
0.302325
0.304413
0.305675
0.306262
0.306255
0.166782
0.166902
0.168489
0.171602
0.176485
0.183638
0.193567
0.20676
0.223444
0.243432
0.263884
0.280525
0.292547
0.301075
0.307015
0.311064
0.313707
0.315276
0.315986
0.31593
0.13805
0.138649
0.141286
0.14602
0.153294
0.163463
0.177131
0.194587
0.215801
0.240442
0.265102
0.284978
0.299352
0.309647
0.316909
0.321923
0.325286
0.327345
0.328311
0.328241
0.1002
0.101059
0.105422
0.113344
0.124659
0.13959
0.158448
0.18129
0.207973
0.237968
0.267278
0.290674
0.307631
0.319911
0.32879
0.335144
0.339544
0.342348
0.34371
0.343487
0.0497774
0.0505049
0.0587264
0.0721493
0.0902587
0.112094
0.137739
0.16725
0.200341
0.236295
0.270607
0.297738
0.317491
0.331998
0.342687
0.350592
0.356339
0.360032
0.361458
0.361093
-0.0203489
-0.0157939
0.00225287
0.0254138
0.0523617
0.0823581
0.115891
0.152975
0.193135
0.235735
0.275739
0.307325
0.33065
0.348221
0.361632
0.371949
0.380005
0.386108
0.388606
0.388638
-0.104195
-0.0879747
-0.05653
-0.0225921
0.0136728
0.0522135
0.0940863
0.138892
0.186308
0.235966
0.282298
0.319094
0.34672
0.368065
0.385015
0.398719
0.40969
0.418198
0.425084
0.426097
-0.168848
-0.151167
-0.11098
-0.0691944
-0.0242989
0.0230486
0.0731508
0.125424
0.179973
0.236429
0.2887
0.330154
0.361327
0.385464
0.404527
0.419973
0.432551
0.441757
0.447775
0.448622
-0.216938
-0.201
-0.156741
-0.110305
-0.0586239
-0.00382288
0.0533946
0.112589
0.173887
0.236645
0.294235
0.339466
0.373067
0.398718
0.418598
0.434175
0.446876
0.456112
0.461998
0.46294
-0.256366
-0.240509
-0.194315
-0.14512
-0.088195
-0.027866
0.0350826
0.100363
0.167627
0.235932
0.298039
0.346184
0.381402
0.407846
0.428077
0.443629
0.456272
0.465287
0.471578
0.472258
-0.290192
-0.27401
-0.22565
-0.174256
-0.113486
-0.0493108
0.0181684
0.088561
0.16093
0.234196
0.300419
0.351196
0.38782
0.414944
0.435543
0.451238
0.46381
0.472891
0.47885
0.479802
-0.319777
-0.303656
-0.252818
-0.19906
-0.13536
-0.06855
0.0025345
0.0771606
0.153975
0.231839
0.301989
0.355317
0.393454
0.42143
0.442451
0.458353
0.470853
0.479973
0.485693
0.486613
-0.346306
-0.330417
-0.277679
-0.221346
-0.15508
-0.0860381
-0.0119205
0.0662511
0.146993
0.229149
0.30319
0.359294
0.399049
0.42786
0.449277
0.465386
0.477816
0.486925
0.492534
0.493385
-0.37079
-0.354862
-0.30136
-0.2426
-0.173905
-0.102505
-0.0255447
0.0557208
0.140018
0.226254
0.304224
0.36308
0.404467
0.434242
0.456102
0.472348
0.484782
0.493814
0.499368
0.500192
-0.393792
-0.377386
-0.323857
-0.263221
-0.192528
-0.118686
-0.0389593
0.0451458
0.132723
0.222719
0.304388
0.366193
0.409597
0.440504
0.462971
0.479615
0.492086
0.501121
0.506585
0.507328
-0.415164
-0.398703
-0.344853
-0.282981
-0.210906
-0.134896
-0.0526497
0.0340956
0.124754
0.218384
0.304079
0.369286
0.414911
0.447206
0.470346
0.487172
0.499698
0.508617
0.514046
0.514855
-0.435283
-0.418902
-0.364552
-0.301818
-0.228766
-0.151038
-0.0666727
0.0224885
0.116098
0.213322
0.303014
0.371536
0.419753
0.453669
0.477839
0.495265
0.50802
0.516925
0.522286
0.522974
-0.45491
-0.438154
-0.383434
-0.319962
-0.246027
-0.166927
-0.0808319
0.0104564
0.106734
0.2072
0.300569
0.373018
0.424581
0.46093
0.486256
0.504177
0.516924
0.525673
0.530955
0.531634
-0.474384
-0.456845
-0.40187
-0.337646
-0.262792
-0.182513
-0.0949806
-0.00188821
0.096708
0.200188
0.29766
0.374134
0.428894
0.467682
0.494762
0.513422
0.526533
0.535417
0.54037
0.540854
-0.493556
-0.47524
-0.419971
-0.35497
-0.279208
-0.197867
-0.109097
-0.0144595
0.086187
0.192458
0.293508
0.373853
0.432601
0.474813
0.504184
0.52406
0.53722
0.545356
0.550049
0.550399
-0.512191
-0.493348
-0.437676
-0.371918
-0.295333
-0.213051
-0.123199
-0.0272325
0.0751381
0.183696
0.287804
0.372392
0.43544
0.481595
0.5141
0.535544
0.548823
0.556801
0.560642
0.560505
-0.530155
-0.510979
-0.454867
-0.388429
-0.311146
-0.228063
-0.137288
-0.0402001
0.0635782
0.174087
0.281363
0.369693
0.436741
0.487312
0.523899
0.548562
0.562923
0.568971
0.570527
0.569861
-0.547414
-0.528003
-0.471445
-0.404421
-0.326564
-0.242827
-0.151294
-0.0532935
0.0516877
0.16387
0.273575
0.365262
0.436905
0.492198
0.533837
0.563066
0.579766
0.58415
0.581261
0.578238
-0.56395
-0.544319
-0.487353
-0.419824
-0.341499
-0.257247
-0.165125
-0.0664017
0.0395463
0.153021
0.264476
0.359163
0.434611
0.495079
0.542806
0.578657
0.601199
0.604776
0.596495
0.600193
-0.579754
-0.559953
-0.502557
-0.434584
-0.355878
-0.27123
-0.178664
-0.0793888
0.0272506
0.141658
0.254512
0.351292
0.430147
0.495308
0.548795
0.592776
0.626407
0.630422
0.59043
0.535194
-0.594719
-0.574926
-0.517111
-0.448782
-0.369804
-0.28489
-0.192056
-0.0924682
0.0146069
0.129607
0.243373
0.341422
0.422635
0.491677
0.550997
0.603425
0.652116
0.689614
0.722323
0.77528
-0.608877
-0.589231
-0.531102
-0.462568
-0.383456
-0.298455
-0.205586
-0.105975
0.00117036
0.116293
0.23019
0.328446
0.411293
0.483175
0.543141
0.592801
0.630962
0.659763
0.652232
0.655481
-0.622291
-0.602825
-0.544494
-0.475905
-0.39677
-0.311845
-0.21913
-0.119741
-0.0128923
0.101818
0.215026
0.312571
0.393554
0.464699
0.522178
0.563271
0.571384
0.542488
0.494657
0.489419
-0.635004
-0.615777
-0.557304
-0.488807
-0.409751
-0.325058
-0.232676
-0.133757
-0.027512
0.0863422
0.198212
0.294141
0.371889
0.435982
0.487288
0.502092
0.470201
0.403764
0.33259
0.326721
-0.647011
-0.628132
-0.569561
-0.501295
-0.422414
-0.338104
-0.246208
-0.147962
-0.0426391
0.0698499
0.179498
0.272793
0.345145
0.396207
0.423626
0.408122
0.359985
0.254682
0.163207
0.14863
-0.658704
-0.640283
-0.581637
-0.513706
-0.435087
-0.351261
-0.259973
-0.162574
-0.0584831
0.0521896
0.158795
0.247809
0.31276
0.349734
0.339733
0.293813
0.183881
0.0526089
-0.0626801
-0.0849677
-0.670871
-0.652909
-0.594155
-0.526591
-0.448285
-0.364973
-0.274369
-0.177962
-0.0752493
0.0334465
0.136338
0.220365
0.276882
0.290606
0.241559
0.142961
-0.0328522
-0.199066
-0.334702
-0.360116
-0.68396
-0.666351
-0.607357
-0.540136
-0.462159
-0.379341
-0.289462
-0.194085
-0.0928839
0.0134195
0.112183
0.189769
0.235993
0.219941
0.136018
-0.0340879
-0.266539
-0.504841
-0.701167
-0.75021
-0.697986
-0.680615
-0.621225
-0.554347
-0.476649
-0.394306
-0.305193
-0.210931
-0.11143
-0.00780864
0.0863385
0.156463
0.187322
0.133847
0.00997489
-0.21988
-0.501047
-0.841696
-1.20365
-1.34215
-0.712962
-0.695755
-0.635786
-0.569298
-0.491764
-0.409895
-0.321605
-0.228539
-0.130801
-0.030063
0.0589515
0.121251
0.133079
0.0366617
-0.146218
-0.415239
-0.714387
-1.1349
-1.79976
-2.41232
-0.728854
-0.711713
-0.65103
-0.585038
-0.50745
-0.426053
-0.338602
-0.246701
-0.150723
-0.0530923
0.030941
0.0838024
0.0757081
-0.0586368
-0.304135
-0.622139
-0.904611
-1.23039
-1.92814
-3.71149
-0.745646
-0.728407
-0.666999
-0.601656
-0.523746
-0.44292
-0.356353
-0.265731
-0.171602
-0.0770283
0.00217129
0.0450955
0.0199944
-0.140556
-0.438279
-0.786194
-1.01772
-1.12783
-1.19336
-1.66403
-0.763225
-0.745749
-0.683889
-0.619315
-0.540867
-0.460864
-0.37532
-0.286105
-0.194021
-0.102631
-0.0285105
0.00304152
-0.0466861
-0.203447
-0.51681
-0.841002
-1.04095
-1.09324
-1.05166
-1.10586
-0.781424
-0.763537
-0.701787
-0.637856
-0.558755
-0.47992
-0.395459
-0.307807
-0.218046
-0.129895
-0.0601216
-0.0351591
-0.113688
-0.262877
-0.571155
-0.855904
-1.03112
-1.0909
-1.10721
-1.13476
-0.799914
-0.781752
-0.720699
-0.656932
-0.577361
-0.499973
-0.416691
-0.330853
-0.243688
-0.158511
-0.0930955
-0.0689487
-0.165125
-0.328745
-0.621947
-0.868921
-1.02294
-1.04581
-1.07042
-1.06262
-0.818424
-0.799974
-0.740171
-0.67603
-0.59655
-0.520815
-0.438671
-0.354915
-0.270293
-0.187794
-0.126337
-0.101443
-0.218671
-0.406037
-0.679251
-0.881027
-1.01443
-1.01389
-1.02699
-1.02189
-0.836653
-0.818068
-0.759384
-0.694607
-0.616046
-0.54203
-0.460963
-0.379995
-0.297413
-0.216926
-0.156864
-0.12657
-0.270205
-0.485066
-0.748811
-0.901789
-0.968922
-0.990048
-0.985336
-0.992535
-0.853999
-0.835445
-0.777493
-0.712109
-0.635647
-0.562956
-0.483478
-0.406078
-0.325473
-0.245258
-0.181666
-0.136379
-0.292738
-0.565576
-0.83352
-0.928069
-0.89624
-0.949131
-0.966148
-0.9759
-0.869783
-0.851278
-0.793925
-0.728354
-0.654713
-0.581902
-0.505783
-0.432405
-0.354351
-0.273591
-0.20434
-0.147168
-0.298193
-0.612683
-0.907768
-1.06038
-1.05346
-1.06216
-1.06999
-1.07061
-0.883247
-0.865028
-0.808085
-0.742834
-0.671087
-0.599237
-0.526613
-0.458222
-0.38508
-0.306804
-0.23276
-0.178787
-0.312434
-0.65169
-1.01533
-1.35618
-1.47813
-1.43767
-1.39843
-1.36393
-0.892879
-0.874992
-0.818613
-0.754022
-0.683521
-0.613764
-0.544993
-0.482532
-0.422328
-0.35221
-0.269956
-0.210198
-0.322654
-0.691423
-1.05695
-1.50169
-1.74155
-1.66873
-1.5795
-1.51943
-0.897833
-0.880198
-0.82454
-0.760642
-0.691361
-0.624056
-0.559938
-0.504042
-0.457792
-0.416308
-0.329199
-0.291753
-0.358396
-0.598678
-0.848343
-1.1361
-1.28657
-1.2459
-1.12838
-1.06134
-0.896466
-0.879192
-0.82442
-0.761557
-0.693743
-0.629157
-0.570855
-0.525599
-0.498708
-0.501494
-0.469794
-0.435234
-0.374745
-0.37378
-0.323489
-0.314116
-0.319383
-0.275164
-0.233432
-0.188823
-0.887497
-0.870703
-0.817029
-0.755493
-0.689117
-0.627783
-0.576049
-0.544939
-0.554596
-0.612872
-0.68681
-0.600476
-0.355802
-0.115535
0.184305
0.439911
0.561178
0.622136
0.64919
0.665719
-0.869014
-0.853367
-0.801479
-0.741271
-0.676371
-0.618795
-0.573303
-0.558101
-0.609515
-0.755232
-0.95365
-0.775549
-0.348063
0.0953939
0.556866
0.955644
1.1585
1.21234
1.23413
1.2436
-0.840459
-0.825975
-0.775122
-0.716894
-0.655
-0.60058
-0.559277
-0.555415
-0.637711
-0.850777
-1.21509
-1.0148
-0.347733
0.280622
0.807559
1.17356
1.37216
1.42616
1.44781
1.45401
-0.799121
-0.786588
-0.737717
-0.682789
-0.623652
-0.570302
-0.529214
-0.525233
-0.603172
-0.792988
-1.20049
-0.971858
-0.237033
0.35355
0.837482
1.14283
1.3016
1.35915
1.38579
1.39438
-0.745333
-0.735247
-0.690207
-0.638326
-0.579615
-0.527648
-0.482635
-0.464947
-0.504575
-0.62885
-0.855624
-0.554626
0.0105092
0.452665
0.797225
1.0073
1.11961
1.17882
1.21271
1.22445
-0.682959
-0.675738
-0.633033
-0.583057
-0.526202
-0.472866
-0.421216
-0.383166
-0.373521
-0.400991
-0.419738
-0.110027
0.245746
0.537994
0.748646
0.876188
0.956269
1.008
1.04173
1.05401
-0.616259
-0.608663
-0.567001
-0.519422
-0.465519
-0.410443
-0.352876
-0.298017
-0.247771
-0.198207
-0.0967582
0.14992
0.368653
0.550875
0.66903
0.748751
0.805269
0.845918
0.874539
0.885664
-0.524802
-0.518115
-0.485619
-0.445494
-0.396271
-0.344014
-0.287082
-0.2258
-0.157265
-0.0675741
0.0369747
0.213446
0.373601
0.492135
0.570068
0.625029
0.664947
0.693864
0.71401
0.721327
-0.404709
-0.401707
-0.383641
-0.357615
-0.317277
-0.275858
-0.226778
-0.169498
-0.101723
-0.0126568
0.0902841
0.231272
0.343547
0.425601
0.481756
0.52142
0.549925
0.56774
0.580471
0.582805
-0.286771
-0.285768
-0.277723
-0.26175
-0.237628
-0.207615
-0.169469
-0.12178
-0.0618454
0.017358
0.110732
0.219933
0.299991
0.35803
0.397704
0.424766
0.443005
0.453824
0.459261
0.460718
-0.183942
-0.183415
-0.179702
-0.172067
-0.159119
-0.140805
-0.114338
-0.0778899
-0.0290487
0.0369173
0.114444
0.196273
0.255165
0.296963
0.324931
0.34328
0.355059
0.362064
0.366024
0.367715
-0.103059
-0.103772
-0.102311
-0.0986243
-0.0921809
-0.0818873
-0.0647709
-0.0385522
-0.00132031
0.0503343
0.111705
0.172236
0.215759
0.246187
0.266266
0.279244
0.287625
0.292735
0.295618
0.296376
-0.0450281
-0.0461319
-0.0467662
-0.0457175
-0.0422129
-0.0356355
-0.0242784
-0.00615277
0.020982
0.0601565
0.107299
0.152066
0.184324
0.206739
0.221481
0.230811
0.236534
0.239513
0.240676
0.240548
-0.00595837
-0.00684074
-0.00857356
-0.00944294
-0.00795422
-0.00361068
0.00474339
0.0179546
0.037923
0.0673958
0.103024
0.136233
0.160182
0.176754
0.187492
0.193831
0.197118
0.198185
0.198177
0.197766
0.0183673
0.0177126
0.0159908
0.0143365
0.014359
0.0167604
0.0228716
0.0332613
0.0489238
0.0714942
0.0984827
0.123237
0.141084
0.153287
0.160892
0.164953
0.166587
0.166606
0.166148
0.16572
0.0322979
0.0318051
0.0305732
0.0292208
0.0287287
0.029695
0.0337191
0.0415026
0.0539328
0.0717145
0.0926749
0.111463
0.124889
0.133813
0.139091
0.141652
0.142526
0.142351
0.141951
0.141578
0.0404032
0.0400106
0.0392909
0.0385417
0.0382477
0.038713
0.041241
0.0465239
0.0558148
0.0696156
0.0860169
0.100435
0.110529
0.117002
0.120725
0.122485
0.123117
0.123061
0.122824
0.122533
0.0460648
0.0457753
0.0453586
0.044944
0.0448895
0.0454212
0.047203
0.0507127
0.0571985
0.0673277
0.079722
0.0905569
0.0980085
0.102711
0.105444
0.106768
0.107248
0.10722
0.107074
0.106854
0.0500893
0.0498755
0.0495494
0.0491086
0.0489749
0.0494614
0.0508607
0.0534759
0.0580421
0.0652109
0.0741587
0.0820422
0.0874643
0.0909182
0.0929415
0.0939054
0.0941846
0.0940784
0.0939455
0.0937728
0.0518863
0.0517106
0.0513789
0.0508254
0.0505067
0.0507189
0.0516845
0.0537414
0.0571789
0.0624487
0.0689139
0.0746177
0.0785808
0.0811186
0.0825561
0.0831935
0.0833018
0.0831314
0.0829963
0.0828553
0.0514573
0.0513119
0.051008
0.0504593
0.0500871
0.0500767
0.050609
0.0520893
0.0546757
0.0587196
0.0635802
0.0678212
0.0707445
0.0725818
0.0735638
0.0739691
0.0739935
0.0738186
0.0736992
0.0735852
0.0495388
0.0494295
0.0491979
0.0487559
0.0484561
0.0483855
0.0486601
0.0496495
0.0514769
0.0545118
0.0581878
0.0613801
0.0635329
0.0648554
0.0655301
0.0657977
0.0657931
0.0656438
0.0655485
0.0654605
0.0467946
0.0467192
0.0465532
0.0462213
0.0460058
0.045946
0.046116
0.0468017
0.0480541
0.0502425
0.0529347
0.05528
0.0568386
0.0577874
0.0582593
0.0584403
0.0584224
0.0582993
0.0582231
0.0581551
0.0434637
0.0434108
0.043284
0.0430298
0.0428627
0.0428068
0.0429174
0.0434183
0.0442953
0.0458606
0.0477865
0.0494758
0.0505927
0.0512706
0.0515976
0.0517122
0.0516809
0.0515744
0.0515097
0.0514569
0.0396473
0.0396069
0.0395034
0.0393079
0.0391712
0.039114
0.0391751
0.0395357
0.0401633
0.0413017
0.0426864
0.0439032
0.0447008
0.0451789
0.0453974
0.0454609
0.04542
0.045327
0.0452706
0.0452293
0.035485
0.0354547
0.0353714
0.0352238
0.0351121
0.0350573
0.0350836
0.0353325
0.0357758
0.0366057
0.0376097
0.0384864
0.0390501
0.0393809
0.0395243
0.0395564
0.0395146
0.0394372
0.03939
0.039357
0.0310779
0.0310546
0.0309902
0.0308828
0.0307956
0.0307488
0.0307558
0.0309222
0.0312275
0.0318187
0.0325416
0.0331697
0.0335672
0.0337962
0.0338891
0.0339008
0.03386
0.0337954
0.0337562
0.0337304
0.0265174
0.0264999
0.0264499
0.0263704
0.0263022
0.0262641
0.0262633
0.0263748
0.0265854
0.0270002
0.0275082
0.0279493
0.0282239
0.0283764
0.0284315
0.0284288
0.0283896
0.0283347
0.0283021
0.0282824
0.0218456
0.0218323
0.0217939
0.0217347
0.0216803
0.0216474
0.0216416
0.0217142
0.021857
0.0221436
0.0224938
0.0227944
0.0229778
0.0230772
0.023109
0.0230996
0.0230652
0.0230208
0.0229945
0.0229788
0.0170912
0.0170807
0.0170492
0.0170023
0.016958
0.0169287
0.0169171
0.0169584
0.0170501
0.0172417
0.017481
0.0176844
0.0178051
0.0178665
0.0178801
0.0178653
0.0178338
0.017796
0.017774
0.0177618
0.0122668
0.01226
0.0122377
0.0122033
0.0121697
0.012146
0.012135
0.0121577
0.0122114
0.0123293
0.01248
0.012608
0.012681
0.0127147
0.0127169
0.0127006
0.0126739
0.0126439
0.0126274
0.0126192
0.00739627
0.00739067
0.00737444
0.00735068
0.00732773
0.00731135
0.00730202
0.00731107
0.00733818
0.00740486
0.0074901
0.00756066
0.00759726
0.00761127
0.00760916
0.00759674
0.0075773
0.00755517
0.00754257
0.00753572
0.00248887
0.00248581
0.00247555
0.00246122
0.00244928
0.00244159
0.00243523
0.0024384
0.00244795
0.00246887
0.00249509
0.00251716
0.00253041
0.00253521
0.00253228
0.00252594
0.00251556
0.00250205
0.00249475
0.00249088
-1.67439
-0.713058
-0.433936
-0.122248
0.0917897
0.278212
0.436987
0.598374
0.769545
0.849089
-0.592029
-0.129289
-0.0850136
0.124026
0.275286
0.410614
0.529454
0.633491
0.672118
0.624555
-0.147002
0.097432
0.157405
0.303411
0.410093
0.50593
0.585572
0.644778
0.653476
0.663177
0.12376
0.289968
0.331767
0.448497
0.51676
0.584879
0.637412
0.674157
0.686177
0.708486
0.329607
0.445746
0.474569
0.559884
0.606151
0.654917
0.691516
0.718196
0.729995
0.760229
0.486737
0.566683
0.597104
0.650454
0.689014
0.722954
0.749947
0.771572
0.787067
0.814312
0.616755
0.67308
0.700468
0.733086
0.763671
0.789452
0.810905
0.830637
0.846013
0.872159
0.72722
0.767941
0.790486
0.812938
0.835584
0.85622
0.87442
0.893186
0.908671
0.932225
0.826123
0.85622
0.874042
0.890042
0.907193
0.924115
0.940481
0.958434
0.972123
0.994353
0.916739
0.938093
0.953651
0.967396
0.981526
0.995904
1.00977
1.02454
1.03617
1.05586
1.00452
1.0206
1.03468
1.04687
1.0591
1.07074
1.08176
1.09344
1.10115
1.11805
1.09028
1.10332
1.11723
1.12902
1.13975
1.14965
1.15847
1.16662
1.17028
1.18158
1.17954
1.19041
1.20424
1.21378
1.22139
1.22866
1.23583
1.24243
1.24342
1.25069
1.27851
1.28342
1.29144
1.29592
1.29916
1.30356
1.30952
1.31723
1.32104
1.33091
1.39191
1.37819
1.37071
1.36486
1.36209
1.36349
1.37004
1.38257
1.39741
1.42705
1.51241
1.45674
1.42584
1.40888
1.4008
1.40083
1.40956
1.42892
1.4608
1.52997
)
;

boundaryField
{
    wall-4
    {
        type            zeroGradient;
    }
    pressure-outlet-7
    {
        type            fixedValue;
        value           uniform 0;
    }
    velocity-inlet-6
    {
        type            zeroGradient;
    }
    velocity-inlet-5
    {
        type            zeroGradient;
    }
    frontAndBackPlanes
    {
        type            empty;
    }
}


// ************************************************************************* //
