/*--------------------------------*- C++ -*----------------------------------*\
  =========                 |
  \\      /  F ield         | OpenFOAM: The Open Source CFD Toolbox
   \\    /   O peration     | Website:  https://openfoam.org
    \\  /    A nd           | Version:  9
     \\/     M anipulation  |
\*---------------------------------------------------------------------------*/
FoamFile
{
    format      ascii;
    class       volScalarField;
    location    "1";
    object      p;
}
// * * * * * * * * * * * * * * * * * * * * * * * * * * * * * * * * * * * * * //

dimensions      [0 2 -2 0 0 0 0];

internalField   nonuniform List<scalar> 
8800
(
1.80846
1.76459
1.73326
1.70961
1.69114
1.67649
1.66482
1.65576
1.64934
1.64621
1.64745
1.65253
1.66042
1.67083
1.68397
1.70042
1.72124
1.74832
1.78465
1.83823
1.61309
1.61373
1.6133
1.61066
1.60567
1.59875
1.5909
1.58337
1.57705
1.57291
1.57202
1.57498
1.58056
1.58766
1.5955
1.60303
1.60909
1.613
1.61447
1.61396
1.61193
1.61443
1.61481
1.6139
1.61093
1.60677
1.60179
1.59673
1.59236
1.59009
1.59107
1.59465
1.59966
1.60493
1.6097
1.6134
1.6152
1.61559
1.61454
1.61271
1.59701
1.59697
1.59671
1.59599
1.59468
1.5926
1.58986
1.58679
1.5841
1.58265
1.58341
1.58599
1.5891
1.59217
1.59468
1.59642
1.59747
1.59793
1.59808
1.59808
1.58312
1.58303
1.58281
1.58237
1.58158
1.58039
1.57878
1.57691
1.57514
1.57419
1.57479
1.5765
1.5787
1.58063
1.58216
1.5832
1.58384
1.58416
1.58427
1.58427
1.57053
1.57052
1.5704
1.57014
1.5697
1.56903
1.5681
1.56701
1.566
1.5655
1.56601
1.56727
1.56864
1.56986
1.57078
1.5714
1.57177
1.57196
1.57203
1.57202
1.55857
1.55858
1.55854
1.55842
1.5582
1.55784
1.55734
1.55675
1.55622
1.55605
1.55652
1.55742
1.55837
1.55918
1.55978
1.56018
1.56041
1.56053
1.56057
1.56057
1.54718
1.54717
1.54715
1.54709
1.54697
1.5468
1.54657
1.54631
1.54612
1.5462
1.5467
1.54742
1.54812
1.54869
1.5491
1.54937
1.54953
1.54961
1.54964
1.54964
1.53596
1.53595
1.53594
1.53592
1.53588
1.53583
1.53577
1.53574
1.5358
1.53609
1.53666
1.53732
1.5379
1.53835
1.53866
1.53887
1.53899
1.53905
1.53907
1.53906
1.52479
1.52478
1.52479
1.52479
1.52481
1.52485
1.52492
1.52506
1.52534
1.52582
1.5265
1.52718
1.52773
1.52813
1.52841
1.52859
1.52869
1.52874
1.52875
1.52875
1.51359
1.51359
1.5136
1.51363
1.51369
1.5138
1.51399
1.51428
1.51475
1.51545
1.51629
1.51705
1.51763
1.51805
1.51832
1.5185
1.51859
1.51864
1.51866
1.51865
1.50229
1.50228
1.50231
1.50236
1.50246
1.50264
1.50294
1.50339
1.50406
1.50501
1.50607
1.50698
1.50765
1.50812
1.50842
1.50861
1.50871
1.50877
1.50878
1.50877
1.49081
1.4908
1.49083
1.49091
1.49106
1.49132
1.49173
1.49236
1.49327
1.49451
1.49587
1.49699
1.4978
1.49836
1.49872
1.49894
1.49907
1.49913
1.49915
1.49913
1.47907
1.47906
1.47911
1.47921
1.47942
1.47977
1.48032
1.48116
1.48236
1.48397
1.48571
1.48712
1.48814
1.48883
1.48927
1.48954
1.48969
1.48976
1.48978
1.48977
1.46698
1.46697
1.46704
1.46718
1.46745
1.46791
1.46864
1.46974
1.47131
1.4734
1.47563
1.47742
1.4787
1.47957
1.48012
1.48046
1.48065
1.48074
1.48077
1.48075
1.45444
1.45443
1.45451
1.4547
1.45506
1.45566
1.45662
1.45806
1.4601
1.4628
1.46565
1.46794
1.46956
1.47066
1.47136
1.47179
1.47202
1.47213
1.47217
1.47214
1.44127
1.44126
1.44137
1.44163
1.4421
1.4429
1.44415
1.44603
1.44868
1.45216
1.45582
1.45873
1.46079
1.46218
1.46307
1.46361
1.46391
1.46405
1.46409
1.46406
1.4273
1.42729
1.42743
1.42777
1.4284
1.42945
1.43111
1.43356
1.437
1.44149
1.44617
1.44988
1.4525
1.45426
1.45538
1.45606
1.45644
1.45662
1.45668
1.45663
1.41223
1.41223
1.41243
1.41288
1.41372
1.41512
1.41731
1.42053
1.425
1.4308
1.43677
1.44149
1.44481
1.44704
1.44846
1.44932
1.44979
1.45002
1.45009
1.45004
1.39571
1.39571
1.39599
1.3966
1.39774
1.39962
1.40253
1.40678
1.41261
1.42008
1.4277
1.43367
1.43786
1.44067
1.44247
1.44355
1.44416
1.44445
1.44453
1.44447
1.37717
1.37719
1.37759
1.37845
1.38001
1.38258
1.3865
1.39214
1.39976
1.40936
1.41903
1.42656
1.43184
1.43538
1.43765
1.43902
1.43979
1.44016
1.44027
1.44018
1.35582
1.35588
1.35647
1.35771
1.35992
1.36349
1.36885
1.37641
1.38639
1.3987
1.41089
1.42031
1.42693
1.43139
1.43426
1.43602
1.437
1.43747
1.43761
1.4375
1.33039
1.33054
1.33146
1.33333
1.33658
1.34171
1.34919
1.3594
1.37249
1.38818
1.4034
1.41509
1.42333
1.42894
1.4326
1.43487
1.43615
1.43677
1.43698
1.43684
1.2987
1.29909
1.30066
1.3037
1.30878
1.31643
1.3271
1.34103
1.35814
1.37792
1.39668
1.41099
1.42117
1.42823
1.43297
1.43597
1.43773
1.43861
1.43892
1.43876
1.25654
1.25763
1.2608
1.2664
1.27497
1.28691
1.30241
1.32142
1.34356
1.36813
1.39083
1.40806
1.42046
1.42933
1.43553
1.4397
1.44233
1.44378
1.44436
1.44421
1.19482
1.19888
1.20703
1.21877
1.23412
1.25308
1.27551
1.30106
1.32916
1.35901
1.38586
1.40612
1.42095
1.43191
1.44004
1.44601
1.45032
1.45325
1.4549
1.45502
1.09249
1.11798
1.13929
1.16277
1.18862
1.21701
1.24786
1.28081
1.31528
1.35054
1.38151
1.4048
1.42217
1.43552
1.44605
1.45454
1.46156
1.46747
1.47237
1.47657
0.990714
1.04043
1.07403
1.10852
1.14436
1.18177
1.22066
1.26072
1.30135
1.34188
1.37689
1.40319
1.42305
1.43874
1.45157
1.4624
1.47179
1.48009
1.48756
1.49653
0.926467
0.977747
1.01821
1.06041
1.10421
1.14938
1.19553
1.24212
1.28838
1.33341
1.37138
1.39941
1.42046
1.43707
1.45062
1.46191
1.47151
1.47976
1.48708
1.49516
0.872821
0.928555
0.972803
1.01983
1.06928
1.12056
1.17288
1.22525
1.27646
1.32519
1.36505
1.39361
1.4146
1.43093
1.44413
1.45505
1.46424
1.47212
1.47905
1.48633
0.827937
0.886215
0.933642
0.984612
1.03868
1.09506
1.15267
1.21012
1.26569
1.31739
1.35813
1.38609
1.40599
1.42121
1.43343
1.44355
1.4521
1.45944
1.46594
1.47263
0.78788
0.84869
0.898771
0.953096
1.01116
1.07202
1.13438
1.19647
1.25598
1.31012
1.35092
1.3773
1.39516
1.4085
1.4192
1.42815
1.43583
1.44253
1.44844
1.45457
0.750789
0.813902
0.866569
0.923997
0.985714
1.05071
1.11749
1.18397
1.24724
1.30355
1.34382
1.36768
1.38252
1.39313
1.40166
1.409
1.41555
1.42142
1.42686
1.43238
0.715437
0.780917
0.836001
0.896392
0.961552
1.03046
1.10151
1.17229
1.23936
1.29786
1.33723
1.35771
1.36843
1.37525
1.38078
1.38595
1.39097
1.39585
1.40062
1.40555
0.681297
0.748896
0.806338
0.869573
0.938061
1.01078
1.086
1.16111
1.23216
1.29316
1.33159
1.34792
1.35324
1.35492
1.3563
1.35845
1.36141
1.36498
1.36888
1.3731
0.647204
0.717294
0.777093
0.843091
0.914821
0.991222
1.07058
1.15011
1.22545
1.2895
1.32736
1.33898
1.33748
1.33225
1.32784
1.32573
1.32581
1.32757
1.33038
1.33378
0.613581
0.6858
0.747918
0.816627
0.89151
0.971523
1.05494
1.13897
1.21896
1.28685
1.32498
1.33173
1.32188
1.30745
1.29498
1.28674
1.28269
1.28185
1.28317
1.28612
0.579654
0.654327
0.718683
0.790026
0.867948
0.951465
1.03888
1.12744
1.21241
1.28504
1.32477
1.32713
1.30763
1.28117
1.25735
1.24022
1.23004
1.22544
1.22472
1.22666
0.545766
0.622711
0.689323
0.763221
0.844055
0.930934
1.02221
1.11525
1.20544
1.28377
1.3269
1.32625
1.29636
1.25463
1.21495
1.18465
1.16519
1.15489
1.15118
1.15182
0.511636
0.591114
0.659884
0.736241
0.819873
0.909909
1.00488
1.10227
1.19776
1.28258
1.33121
1.33005
1.29028
1.2301
1.16848
1.11848
1.08461
1.06538
1.0571
1.05639
0.477708
0.559533
0.630431
0.709161
0.795431
0.888455
0.986869
1.08837
1.18912
1.28097
1.33719
1.33911
1.29195
1.21117
1.12002
1.04046
0.983728
0.950168
0.934669
0.931103
0.443783
0.528171
0.601102
0.682089
0.770858
0.86667
0.96822
1.07354
1.17927
1.27835
1.34399
1.3533
1.30382
1.20304
1.07389
0.949944
0.856402
0.799434
0.771947
0.766043
0.41061
0.497215
0.572066
0.65519
0.746288
0.844648
0.949083
1.05786
1.16814
1.27427
1.35044
1.37146
1.32734
1.21205
1.03763
0.846782
0.691215
0.596877
0.554427
0.545053
0.37817
0.466795
0.543501
0.628639
0.721888
0.822539
0.929548
1.04135
1.15572
1.26832
1.35529
1.3914
1.36176
1.24435
1.02272
0.729154
0.459876
0.304898
0.24899
0.242792
0.346154
0.437045
0.515565
0.602588
0.697806
0.800546
0.909801
1.02425
1.14204
1.26031
1.35735
1.41006
1.40304
1.30241
1.04451
0.583082
0.0377508
-0.222085
-0.213399
-0.163455
0.315518
0.408041
0.488352
0.577215
0.674217
0.77887
0.890097
1.00667
1.12733
1.25024
1.35587
1.42426
1.44369
1.37907
1.1272
0.352406
-1.10352
-1.60813
-0.927813
-0.515294
0.285052
0.379815
0.461967
0.552465
0.651065
0.757402
0.870401
0.988745
1.11171
1.23812
1.35031
1.43154
1.47541
1.453
1.2467
0.379623
-1.81875
-3.02546
-1.59579
-0.406166
0.254954
0.352339
0.436347
0.528124
0.62815
0.735868
0.850049
0.969714
1.09429
1.22305
1.33965
1.42962
1.49065
1.5037
1.38752
0.821996
-0.407143
-0.991921
-0.958152
-0.546878
0.225436
0.326339
0.411773
0.504593
0.605761
0.714691
0.829638
0.950306
1.07591
1.20574
1.32405
1.41707
1.48338
1.50582
1.42353
1.09858
0.574435
0.157009
0.145899
0.079913
0.194156
0.303282
0.389049
0.482864
0.584697
0.694016
0.809524
0.930891
1.05618
1.18574
1.30323
1.39423
1.45496
1.46965
1.39442
1.16352
0.851076
0.560853
0.429441
0.340364
0.0762548
0.282105
0.367291
0.460909
0.56332
0.67315
0.789095
0.910588
1.0353
1.16305
1.27748
1.36218
1.40928
1.40515
1.32495
1.12932
0.889049
0.676962
0.537006
0.432484
0.226312
0.253445
0.335495
0.427327
0.52997
0.64177
0.757468
0.87856
1.00223
1.12764
1.23427
1.30127
1.32145
1.28212
1.16715
0.975135
0.764554
0.596111
0.45274
0.403681
0.138993
0.228499
0.308324
0.403379
0.507877
0.620324
0.736827
0.858872
0.983584
1.10799
1.20962
1.26657
1.27031
1.20874
1.07443
0.875895
0.644873
0.476618
0.311051
0.279343
0.0913936
0.193726
0.281177
0.379229
0.484712
0.59676
0.713169
0.833084
0.953599
1.0714
1.16352
1.20865
1.19751
1.1181
0.963305
0.742108
0.475677
0.265842
0.0569699
0.0645163
0.0489818
0.157586
0.249669
0.348992
0.455361
0.56759
0.684499
0.804755
0.925463
1.04167
1.12877
1.16435
1.14118
1.04923
0.88081
0.638214
0.305491
0.00128237
-0.344733
-0.341798
0.00993356
0.123069
0.217689
0.319751
0.428048
0.541883
0.660215
0.780494
0.900026
1.01232
1.09211
1.11815
1.08424
0.982224
0.803129
0.550969
0.148147
-0.297276
-0.922953
-1.19769
-0.0250874
0.0894878
0.186575
0.289726
0.399099
0.51361
0.632461
0.753075
0.871787
0.981527
1.05662
1.07645
1.03701
0.933057
0.757098
0.500893
0.0958953
-0.496384
-1.04146
-1.81331
-0.0629834
0.0521062
0.150324
0.255472
0.36674
0.483316
0.60377
0.725203
0.843546
0.951242
1.02254
1.03878
0.999148
0.902529
0.747156
0.522151
0.221026
-0.251855
-0.760189
-0.916896
-0.0988051
0.0161812
0.115095
0.221378
0.334106
0.452144
0.573572
0.695534
0.813541
0.919881
0.989167
1.00551
0.971689
0.892808
0.775717
0.630265
0.464377
0.276478
0.0969351
0.0630979
-0.134979
-0.021672
0.0776651
0.185171
0.299539
0.419189
0.541864
0.664549
0.782687
0.888737
0.957751
0.977878
0.955436
0.901572
0.829522
0.755752
0.69516
0.657636
0.659572
0.687373
-0.175508
-0.0613678
0.0385033
0.147316
0.263301
0.384552
0.508617
0.632328
0.751144
0.858058
0.928888
0.956303
0.948943
0.921376
0.887566
0.860286
0.848721
0.855303
0.877083
0.900414
-0.22168
-0.104199
-0.00264033
0.107892
0.225648
0.348677
0.474344
0.599434
0.719507
0.828363
0.903179
0.940735
0.949846
0.945958
0.941028
0.942585
0.95338
0.972223
0.995473
1.01358
-0.269207
-0.149023
-0.0454418
0.0670809
0.186814
0.311779
0.439285
0.566161
0.688269
0.800067
0.881716
0.928289
0.954496
0.970756
0.986074
1.00448
1.02655
1.05068
1.07483
1.091
-0.319976
-0.195927
-0.0896534
0.0252277
0.147275
0.274357
0.403962
0.533017
0.657837
0.773783
0.864169
0.922282
0.961583
0.993083
1.02204
1.05064
1.07884
1.10561
1.13003
1.14536
-0.37096
-0.243275
-0.134334
-0.0169147
0.107522
0.2369
0.368862
0.500428
0.62849
0.749314
0.847866
0.917356
0.968562
1.01134
1.0494
1.08418
1.11578
1.1439
1.16836
1.18358
-0.419963
-0.28965
-0.178322
-0.0584736
0.0683476
0.200131
0.334502
0.468834
0.60042
0.726721
0.833018
0.912412
0.973529
1.02461
1.06875
1.10734
1.14086
1.16968
1.194
1.20873
-0.466261
-0.334053
-0.220545
-0.0984145
0.0306716
0.164775
0.301554
0.438653
0.573835
0.705714
0.819407
0.907228
0.975992
1.0328
1.08085
1.12164
1.15623
1.18525
1.20913
1.22342
-0.509741
-0.375371
-0.259809
-0.135523
-0.00440125
0.131734
0.270682
0.410239
0.548775
0.685763
0.806229
0.900607
0.974902
1.03565
1.08612
1.12826
1.16325
1.19228
1.21584
1.22981
-0.546314
-0.411021
-0.293878
-0.168179
-0.0355241
0.102063
0.242563
0.384039
0.525225
0.666333
0.792033
0.891241
0.969437
1.03276
1.08475
1.12755
1.16283
1.19171
1.21493
1.22885
-0.5758
-0.439296
-0.321199
-0.194555
-0.0611797
0.0770107
0.218074
0.360356
0.503058
0.646811
0.776017
0.878341
0.958899
1.02379
1.07663
1.1198
1.15509
1.1838
1.20661
1.22051
-0.593204
-0.456907
-0.338856
-0.212416
-0.0795561
0.057863
0.198009
0.33958
0.482148
0.62656
0.757156
0.860901
0.942517
1.0081
1.0613
1.10462
1.13991
1.16855
1.19116
1.20507
-0.595337
-0.460554
-0.343466
-0.218786
-0.0882609
0.0462796
0.183421
0.322126
0.462272
0.604915
0.73453
0.837808
0.919187
0.984617
1.03773
1.08102
1.11629
1.14501
1.16708
1.18144
-0.576125
-0.444287
-0.33047
-0.210028
-0.0846162
0.0442123
0.175432
0.308404
0.443262
0.581237
0.707115
0.807749
0.887345
0.951631
1.00408
1.04707
1.08225
1.11108
1.13306
1.14785
-0.527315
-0.400915
-0.294028
-0.181669
-0.0654431
0.0536825
0.175158
0.29884
0.425058
0.554952
0.673945
0.769308
0.845008
0.906532
0.957219
0.999194
1.03397
1.06277
1.08491
1.10025
-0.434992
-0.321575
-0.227436
-0.129475
-0.0283763
0.0758024
0.183097
0.293599
0.407582
0.525798
0.634362
0.721194
0.789991
0.845986
0.892415
0.931343
0.96409
0.99168
1.01397
1.03012
-0.270254
-0.19445
-0.12587
-0.0521595
0.0263194
0.10984
0.198388
0.291883
0.390139
0.493121
0.587657
0.662451
0.720672
0.767112
0.804826
0.835757
0.861042
0.881353
0.897625
0.908597
-0.0433895
-0.0233931
0.00665347
0.0461737
0.0951706
0.153342
0.220209
0.295091
0.377198
0.465649
0.547778
0.612416
0.661743
0.699748
0.729173
0.752062
0.770035
0.784087
0.79413
0.799765
0.0992075
0.104651
0.115635
0.133853
0.160931
0.197877
0.245026
0.302133
0.368424
0.442666
0.513044
0.568402
0.609854
0.640711
0.663321
0.679384
0.690159
0.69681
0.70047
0.702265
0.170694
0.173752
0.180149
0.191101
0.208063
0.232548
0.26584
0.30866
0.360967
0.421802
0.480662
0.527009
0.561175
0.585849
0.603183
0.614934
0.622552
0.627193
0.629718
0.630891
0.214673
0.216686
0.220785
0.227924
0.23932
0.256352
0.280395
0.312586
0.353433
0.402463
0.450812
0.488977
0.516805
0.536535
0.5501
0.559101
0.564812
0.568228
0.57008
0.570971
0.241424
0.242847
0.245713
0.25071
0.258769
0.271032
0.288765
0.313141
0.34494
0.384069
0.423276
0.454341
0.476871
0.492672
0.503398
0.510432
0.514857
0.517493
0.518924
0.519618
0.2567
0.25774
0.259823
0.263458
0.269357
0.278426
0.291723
0.31034
0.33511
0.366147
0.397662
0.422749
0.44089
0.453543
0.462084
0.467654
0.471146
0.47322
0.474347
0.474894
0.263862
0.264641
0.266194
0.268908
0.273322
0.280148
0.290255
0.304576
0.323886
0.348426
0.37361
0.393746
0.408308
0.41844
0.425251
0.429681
0.432449
0.434091
0.434986
0.435419
0.265086
0.265677
0.266854
0.26891
0.272265
0.277476
0.285232
0.296308
0.311397
0.330763
0.350802
0.366898
0.378544
0.386639
0.39208
0.395612
0.397819
0.399129
0.39984
0.400183
0.261868
0.262321
0.263223
0.264799
0.267374
0.271384
0.277379
0.285987
0.297792
0.313065
0.328974
0.341799
0.351095
0.357555
0.361889
0.364707
0.366469
0.367513
0.368079
0.368351
0.255284
0.255634
0.25633
0.257548
0.25954
0.262647
0.267302
0.274016
0.283268
0.295303
0.307906
0.318098
0.325496
0.330646
0.334106
0.336349
0.337744
0.33857
0.33902
0.339236
0.246113
0.246385
0.246925
0.247871
0.249419
0.251836
0.255469
0.260717
0.267978
0.277464
0.287438
0.29553
0.301411
0.305502
0.308245
0.310027
0.311142
0.311803
0.312159
0.31233
0.234955
0.235166
0.235586
0.236323
0.23753
0.239417
0.242255
0.246368
0.252071
0.259545
0.267428
0.273836
0.2785
0.281751
0.283938
0.285357
0.286239
0.286763
0.287049
0.287183
0.222243
0.222408
0.222737
0.223313
0.224256
0.225732
0.227956
0.231183
0.235664
0.241552
0.247778
0.252851
0.256549
0.259125
0.260857
0.261982
0.262685
0.263099
0.263322
0.263428
0.208331
0.20846
0.208716
0.209165
0.209903
0.211059
0.212803
0.215334
0.218857
0.223496
0.228409
0.23242
0.235347
0.237387
0.238756
0.239643
0.240196
0.240523
0.240701
0.240785
0.193468
0.193568
0.193769
0.194122
0.194702
0.19561
0.196976
0.198963
0.201734
0.205384
0.209256
0.212419
0.214728
0.21634
0.217423
0.218128
0.218567
0.218826
0.218966
0.219032
0.177874
0.177953
0.178111
0.178387
0.178839
0.179549
0.180623
0.182185
0.184361
0.18723
0.190282
0.192776
0.194594
0.195863
0.196718
0.197275
0.197622
0.197828
0.197939
0.197991
0.161699
0.16176
0.161884
0.162101
0.162458
0.163015
0.163853
0.165074
0.16678
0.169033
0.171429
0.17339
0.174827
0.175834
0.176509
0.176943
0.177213
0.177373
0.177459
0.177499
0.145078
0.145126
0.145221
0.145389
0.145666
0.146102
0.146759
0.147715
0.14905
0.150815
0.152692
0.15423
0.155355
0.156136
0.156661
0.157004
0.157217
0.157341
0.157409
0.157443
0.1281
0.128138
0.128215
0.128346
0.128559
0.128896
0.129409
0.130154
0.131194
0.132569
0.13403
0.135227
0.136101
0.136713
0.137127
0.137396
0.137565
0.137666
0.13772
0.137745
0.110852
0.11088
0.110936
0.111039
0.111208
0.111468
0.111861
0.112435
0.113237
0.114298
0.11543
0.116359
0.11704
0.117517
0.117838
0.118044
0.118173
0.11825
0.118292
0.118311
0.0933903
0.0934138
0.0934591
0.0935354
0.0936603
0.0938591
0.0941607
0.0945994
0.0952108
0.0960188
0.0968799
0.0975858
0.0981032
0.0984626
0.0987043
0.0988641
0.0989624
0.0990169
0.0990472
0.099064
0.075765
0.0757807
0.0758143
0.0758732
0.0759711
0.076122
0.0763472
0.0766733
0.0771294
0.0777308
0.0783714
0.0788986
0.0792858
0.0795567
0.0797371
0.0798525
0.0799264
0.0799718
0.0799957
0.0800066
0.0580313
0.058044
0.0580695
0.0581104
0.0581825
0.0582909
0.0584505
0.0586825
0.0590044
0.0594273
0.0598804
0.0602588
0.0605435
0.0607471
0.0608864
0.0609734
0.0610206
0.0610454
0.061053
0.0610637
0.0402519
0.0402592
0.0402669
0.0402828
0.0403191
0.0403822
0.0404848
0.0406381
0.0408525
0.0411245
0.0414148
0.0416585
0.0418379
0.0419934
0.0421029
0.0421637
0.0422035
0.0422464
0.0422456
0.0422549
0.0223966
0.0224013
0.0223709
0.0223379
0.0223164
0.0223506
0.022412
0.0225
0.0226039
0.0227414
0.0228856
0.0230076
0.0231145
0.0232085
0.0232922
0.023382
0.0234131
0.0234905
0.0235975
0.0236512
0.00490856
0.00492386
0.00486408
0.00464877
0.00441642
0.0043643
0.00435477
0.00438803
0.00443501
0.00448094
0.00452433
0.00454723
0.00454013
0.00450075
0.0044646
0.00448139
0.00458893
0.00500523
0.00573137
0.00573317
-0.172964
0.0237305
0.167069
0.270501
0.303748
0.254194
0.132446
-0.0620249
-0.149962
-0.0957281
0.0782554
0.166641
0.203368
0.232137
0.216947
0.165516
0.0951682
0.0351147
0.0135672
0.0296247
0.185463
0.215944
0.219524
0.217111
0.198411
0.172022
0.143892
0.131068
0.139048
0.176302
0.239714
0.25
0.246144
0.242284
0.23392
0.225638
0.221883
0.231003
0.255111
0.294715
0.284695
0.29257
0.292382
0.295024
0.297557
0.302569
0.312197
0.333
0.362306
0.394965
0.34033
0.350793
0.355401
0.364333
0.375193
0.388433
0.40519
0.429935
0.457283
0.484398
0.410224
0.423374
0.432229
0.445044
0.460776
0.477955
0.496887
0.520315
0.544621
0.56902
0.492121
0.506715
0.517685
0.532078
0.548986
0.566717
0.58495
0.606452
0.62825
0.650063
0.580714
0.595139
0.607103
0.621111
0.637805
0.654753
0.671486
0.689845
0.708752
0.727482
0.67421
0.687407
0.698954
0.712985
0.728194
0.742798
0.756639
0.770896
0.784561
0.797567
0.765321
0.776246
0.787145
0.800741
0.814293
0.827396
0.838452
0.847498
0.854961
0.859975
0.854961
0.87147
0.88679
0.903682
0.918083
0.93053
0.940433
0.944766
0.946611
0.945864
0.95679
0.977403
0.995422
1.00887
1.01842
1.02678
1.03322
1.03734
1.0386
1.04137
1.04996
1.07126
1.09061
1.10831
1.12355
1.13425
1.14124
1.14643
1.15171
1.15759
1.30986
1.31886
1.30948
1.29678
1.28846
1.29255
1.30987
1.33811
1.36306
1.39211
1.60049
1.46682
1.39322
1.3532
1.33796
1.34229
1.36749
1.42042
1.52071
1.73172
1.67491
1.67698
1.67363
1.66307
1.65048
1.63831
1.62756
1.61852
1.61146
1.60695
1.60602
1.60915
1.61519
1.62337
1.63336
1.64493
1.65755
1.66953
1.67738
1.67511
1.60717
1.60957
1.61115
1.60995
1.60622
1.60077
1.59432
1.58773
1.58195
1.5779
1.57709
1.57992
1.58512
1.59163
1.59834
1.60444
1.60916
1.61162
1.61149
1.60875
1.60611
1.60658
1.6068
1.60627
1.60506
1.6029
1.59964
1.59578
1.59198
1.5892
1.58862
1.59075
1.59441
1.59844
1.60217
1.60494
1.60667
1.60767
1.60769
1.60732
1.58959
1.58957
1.58943
1.58902
1.5882
1.5869
1.58503
1.58273
1.58035
1.57855
1.57825
1.57976
1.58219
1.58478
1.587
1.58867
1.58977
1.59038
1.59065
1.59071
1.57677
1.57676
1.57664
1.57639
1.57594
1.5752
1.57414
1.57278
1.57132
1.57021
1.5701
1.57126
1.57293
1.57454
1.5759
1.57689
1.57752
1.57787
1.57802
1.57805
1.56446
1.56447
1.56444
1.56433
1.56409
1.56368
1.56309
1.56232
1.5615
1.56091
1.56098
1.56179
1.56293
1.56403
1.56489
1.5655
1.56589
1.5661
1.5662
1.56622
1.55284
1.55285
1.55283
1.55277
1.55265
1.55245
1.55214
1.55175
1.55135
1.55112
1.55134
1.55203
1.55286
1.55361
1.55419
1.55459
1.55484
1.55498
1.55504
1.55506
1.54156
1.54156
1.54154
1.54151
1.54146
1.54137
1.54125
1.5411
1.54099
1.54103
1.54139
1.54203
1.5427
1.54327
1.5437
1.54399
1.54417
1.54426
1.54431
1.54432
1.53037
1.53037
1.53036
1.53036
1.53035
1.53035
1.53035
1.53038
1.53048
1.53075
1.53126
1.53193
1.53255
1.53303
1.53339
1.53362
1.53376
1.53384
1.53388
1.53388
1.5192
1.51919
1.5192
1.51921
1.51924
1.51929
1.51939
1.51956
1.51985
1.52032
1.52101
1.52177
1.52241
1.52289
1.52323
1.52344
1.52357
1.52364
1.52367
1.52368
1.50796
1.50795
1.50796
1.50799
1.50805
1.50816
1.50835
1.50865
1.50911
1.50979
1.5107
1.51162
1.51234
1.51287
1.51322
1.51345
1.51358
1.51365
1.51369
1.51369
1.49657
1.49656
1.49658
1.49662
1.49672
1.49688
1.49716
1.4976
1.49825
1.49918
1.50036
1.5015
1.50237
1.50299
1.5034
1.50366
1.50381
1.50389
1.50393
1.50393
1.48498
1.48496
1.48498
1.48504
1.48517
1.48541
1.48579
1.48638
1.48726
1.48849
1.49002
1.49145
1.49253
1.49329
1.49379
1.4941
1.49428
1.49438
1.49442
1.49442
1.47308
1.47306
1.47309
1.47317
1.47335
1.47366
1.47417
1.47495
1.47611
1.47772
1.47968
1.48151
1.48287
1.48381
1.48443
1.48482
1.48505
1.48517
1.48522
1.48523
1.46078
1.46075
1.46079
1.46091
1.46114
1.46155
1.46222
1.46325
1.46476
1.46685
1.46938
1.47172
1.47344
1.47463
1.47541
1.4759
1.47619
1.47634
1.4764
1.47641
1.44794
1.44792
1.44797
1.44812
1.44842
1.44896
1.44984
1.4512
1.45316
1.45586
1.45912
1.4621
1.46429
1.46581
1.4668
1.46742
1.46778
1.46797
1.46805
1.46805
1.4344
1.43437
1.43444
1.43464
1.43504
1.43576
1.43691
1.43869
1.44125
1.44474
1.44893
1.45274
1.45553
1.45744
1.4587
1.45948
1.45994
1.46018
1.46028
1.46029
1.41992
1.41988
1.41998
1.42025
1.42079
1.42173
1.42326
1.42559
1.42893
1.43345
1.43883
1.4437
1.44723
1.44967
1.45126
1.45225
1.45282
1.45313
1.45325
1.45326
1.40418
1.40413
1.40427
1.40463
1.40536
1.40663
1.40867
1.41174
1.41612
1.42198
1.42887
1.43506
1.43954
1.44261
1.44463
1.44588
1.44661
1.44699
1.44715
1.44716
1.38673
1.38667
1.38687
1.38737
1.38837
1.3901
1.39284
1.39693
1.40268
1.41028
1.41909
1.42694
1.43259
1.43646
1.439
1.44059
1.44151
1.44199
1.44219
1.44221
1.36691
1.36685
1.36713
1.36786
1.36926
1.37165
1.37539
1.3809
1.3885
1.39834
1.40957
1.41945
1.42655
1.43142
1.43463
1.43664
1.43781
1.43843
1.43868
1.4387
1.34372
1.34366
1.3441
1.34518
1.34722
1.35063
1.35586
1.36336
1.37347
1.3862
1.40041
1.41275
1.4216
1.42771
1.43176
1.43432
1.43583
1.43663
1.43696
1.43699
1.31553
1.3155
1.31624
1.31795
1.32108
1.32614
1.33366
1.34405
1.35752
1.37392
1.39171
1.40696
1.41789
1.42552
1.43067
1.43398
1.43597
1.43704
1.43751
1.43756
1.27935
1.27949
1.28092
1.28394
1.28915
1.29711
1.30826
1.32284
1.34079
1.36169
1.38365
1.40218
1.41551
1.42498
1.43155
1.43594
1.4387
1.44026
1.44097
1.4411
1.22873
1.22979
1.23345
1.23981
1.24942
1.26262
1.27951
1.29996
1.32361
1.34981
1.37638
1.39843
1.41438
1.42596
1.43435
1.44031
1.44438
1.44697
1.44839
1.44885
1.15006
1.15487
1.16722
1.18223
1.20074
1.22271
1.2479
1.27595
1.30635
1.33841
1.36976
1.39537
1.41398
1.42785
1.43836
1.44638
1.4525
1.45719
1.46088
1.4631
1.05259
1.06697
1.09255
1.12034
1.15025
1.18221
1.21619
1.25199
1.28916
1.32706
1.36325
1.39255
1.41409
1.43063
1.44375
1.45436
1.46309
1.47028
1.47641
1.47937
0.964414
0.990084
1.02603
1.06392
1.10341
1.14429
1.18643
1.22955
1.27313
1.31643
1.3568
1.38897
1.41255
1.43081
1.44551
1.45765
1.46776
1.47614
1.4831
1.48689
0.90622
0.933762
0.97356
1.0167
1.06247
1.11017
1.15914
1.20875
1.2581
1.30614
1.34979
1.38367
1.40802
1.42666
1.44155
1.45372
1.46376
1.472
1.47876
1.48261
0.856426
0.886434
0.929571
0.976777
1.02731
1.08032
1.13497
1.19016
1.2446
1.29669
1.34268
1.37709
1.40105
1.419
1.43318
1.44473
1.45425
1.46208
1.46852
1.47235
0.813493
0.845303
0.891146
0.941699
0.996196
1.05374
1.11329
1.17347
1.23246
1.28805
1.33561
1.36954
1.39206
1.40845
1.42125
1.43171
1.44041
1.44767
1.4537
1.45747
0.774278
0.807971
0.856317
0.909864
0.967868
1.02948
1.09349
1.15824
1.22148
1.28026
1.32886
1.36142
1.38154
1.39548
1.40622
1.41509
1.42266
1.42913
1.43463
1.43828
0.73753
0.772952
0.823697
0.88003
0.941328
1.00673
1.07494
1.14407
1.21145
1.27335
1.32271
1.35319
1.36991
1.38039
1.38822
1.3949
1.40091
1.40636
1.41121
1.41463
0.702194
0.73937
0.792364
0.851384
0.915832
0.984862
1.05711
1.13055
1.20212
1.2673
1.31747
1.34534
1.35759
1.36339
1.36723
1.37088
1.37478
1.37884
1.38282
1.38592
0.667833
0.706535
0.761698
0.82332
0.890818
0.963348
1.03959
1.11732
1.19322
1.26206
1.31342
1.33843
1.34516
1.34476
1.3431
1.34252
1.34346
1.3456
1.34842
1.35095
0.633514
0.67385
0.731289
0.795477
0.865926
0.941884
1.02198
1.10404
1.18448
1.25747
1.31078
1.3331
1.33332
1.32488
1.3157
1.30915
1.30587
1.30529
1.3065
1.30827
0.599546
0.641361
0.700912
0.767572
0.840908
0.920196
1.00411
1.09043
1.17558
1.25333
1.30965
1.33004
1.32308
1.3045
1.28503
1.26996
1.26052
1.25598
1.2549
1.2556
0.565375
0.608724
0.670444
0.73954
0.815666
0.898145
0.985711
1.07626
1.16625
1.24929
1.30997
1.3299
1.31574
1.28484
1.25147
1.22411
1.20554
1.19503
1.19055
1.18973
0.531405
0.576103
0.639905
0.711353
0.790145
0.875696
0.966773
1.0614
1.15622
1.24501
1.31147
1.33316
1.3129
1.26789
1.2161
1.17097
1.13852
1.11881
1.1091
1.10602
0.497033
0.543476
0.609372
0.683068
0.764433
0.85288
0.947241
1.04573
1.14528
1.2401
1.31366
1.33996
1.31617
1.25654
1.18122
1.11049
1.05664
1.02234
1.00436
0.997662
0.46293
0.510984
0.578878
0.654802
0.738589
0.82973
0.927228
1.02931
1.1333
1.23413
1.31586
1.3499
1.32693
1.25454
1.15102
1.04387
0.956686
0.898763
0.867358
0.855028
0.428957
0.478857
0.548688
0.626704
0.712769
0.806416
0.906735
1.01213
1.12022
1.22684
1.31728
1.36193
1.34558
1.26599
1.1321
0.974423
0.834468
0.737661
0.684725
0.665066
0.396061
0.447225
0.518915
0.598892
0.687132
0.783141
0.885973
0.994306
1.1061
1.21799
1.3171
1.37447
1.37107
1.29412
1.13356
0.908203
0.680405
0.51729
0.434742
0.406578
0.363586
0.416326
0.48971
0.571564
0.661823
0.759969
0.865114
0.976009
1.091
1.20759
1.31464
1.38553
1.4004
1.33926
1.16592
0.854581
0.464306
0.166991
0.0547166
0.0458978
0.331992
0.386095
0.461186
0.544856
0.636993
0.737067
0.844264
0.95743
1.07514
1.19555
1.30957
1.3932
1.42888
1.39607
1.237
0.826161
0.0492088
-0.646985
-0.669536
-0.419929
0.301311
0.356696
0.433543
0.518984
0.612854
0.714632
0.823591
0.938646
1.05859
1.18214
1.30163
1.39593
1.45116
1.45218
1.3372
0.865146
-0.676151
-2.79311
-1.99548
-0.816779
0.270832
0.327689
0.406646
0.493806
0.589274
0.692476
0.80297
0.919462
1.04101
1.16678
1.29024
1.39252
1.46332
1.49393
1.43055
1.0695
-0.182772
-1.78603
-1.99037
-1.10922
0.241041
0.299441
0.380798
0.469311
0.565878
0.670266
0.78207
0.899518
1.02204
1.14911
1.27499
1.38176
1.46096
1.50838
1.48481
1.25807
0.628635
-0.142896
-0.274884
-0.25516
0.210916
0.272611
0.3565
0.44564
0.542673
0.64803
0.761061
0.879222
1.00221
1.12969
1.25603
1.3631
1.44195
1.4889
1.47011
1.31049
0.950007
0.565136
0.343985
0.316332
0.17479
0.250758
0.333273
0.4228
0.519983
0.626314
0.739147
0.857965
0.981666
1.10924
1.23451
1.33766
1.40851
1.44296
1.41456
1.28025
1.01021
0.759677
0.566876
0.453752
0.219417
0.269461
0.353257
0.446549
0.548849
0.659056
0.778693
0.900352
1.02495
1.15212
1.26491
1.34598
1.38747
1.37111
1.2832
1.10181
0.885008
0.701887
0.558071
0.461651
0.202954
0.223657
0.298627
0.387174
0.486754
0.59481
0.708889
0.829463
0.953432
1.07944
1.19883
1.29206
1.34434
1.34611
1.28094
1.1412
0.923976
0.742088
0.583849
0.451965
0.173221
0.205429
0.282312
0.368963
0.468266
0.57377
0.686222
0.804898
0.926815
1.05023
1.16525
1.25228
1.29298
1.2796
1.19447
1.03891
0.813032
0.631225
0.468779
0.320677
0.131209
0.17264
0.252152
0.341335
0.441755
0.549582
0.665434
0.786271
0.908666
1.03053
1.1412
1.21589
1.23949
1.20147
1.09205
0.914232
0.67576
0.464521
0.291967
0.110237
0.0923095
0.134548
0.220606
0.314549
0.41667
0.525803
0.64115
0.760435
0.880402
0.999107
1.1053
1.17201
1.18466
1.13525
1.01151
0.814812
0.540324
0.261631
0.0210402
-0.254321
0.0538679
0.0961786
0.185354
0.282225
0.385984
0.496549
0.613129
0.733535
0.854411
0.97228
1.07381
1.13268
1.1343
1.07196
0.935635
0.725298
0.414654
0.0364991
-0.356908
-0.981559
0.0195794
0.06197
0.154915
0.254296
0.359761
0.471509
0.588035
0.707842
0.827674
0.943399
1.0409
1.09241
1.08551
1.01557
0.875025
0.655857
0.340249
-0.16558
-0.722267
-1.84111
-0.0180629
0.0243262
0.118913
0.219993
0.327311
0.440644
0.558258
0.679065
0.799515
0.914507
1.00883
1.05565
1.04449
0.973911
0.839878
0.632749
0.343422
-0.134248
-0.725152
-1.00796
-0.0547567
-0.0122302
0.082998
0.185306
0.29439
0.409383
0.528455
0.650025
0.770518
0.884536
0.976275
1.02033
1.00898
0.945416
0.831289
0.668796
0.454426
0.182527
-0.182562
-0.460428
-0.0910071
-0.0488999
0.0460746
0.149314
0.259808
0.376383
0.496824
0.61935
0.740212
0.853807
0.944235
0.988464
0.981722
0.932787
0.850551
0.748498
0.642573
0.544051
0.468849
0.454987
-0.128602
-0.0871603
0.00746827
0.111496
0.22349
0.341622
0.463704
0.587362
0.708807
0.822545
0.913263
0.960623
0.962451
0.93299
0.884966
0.833405
0.792464
0.772435
0.777765
0.804729
-0.171322
-0.129166
-0.033331
0.072082
0.185633
0.30544
0.429208
0.554216
0.676792
0.791453
0.884428
0.936758
0.950448
0.942113
0.923961
0.908495
0.903648
0.912141
0.931977
0.957114
-0.217438
-0.173967
-0.0762427
0.031003
0.146413
0.2681
0.393694
0.52036
0.644485
0.760915
0.858112
0.916513
0.945306
0.955799
0.961307
0.969543
0.983819
1.0039
1.02765
1.05195
-0.267025
-0.221254
-0.120976
-0.0114213
0.10609