/*--------------------------------*- C++ -*----------------------------------*\
  =========                 |
  \\      /  F ield         | OpenFOAM: The Open Source CFD Toolbox
   \\    /   O peration     | Website:  https://openfoam.org
    \\  /    A nd           | Version:  9
     \\/     M anipulation  |
\*---------------------------------------------------------------------------*/
FoamFile
{
    format      ascii;
    class       surfaceScalarField;
    location    "1";
    object      phi;
}
// * * * * * * * * * * * * * * * * * * * * * * * * * * * * * * * * * * * * * //

dimensions      [0 3 -1 0 0 0 0];

internalField   nonuniform List<scalar> 
17370
(
-0.074463
0.073317
0.290157
-0.0596763
0.0483967
0.358055
-0.0382292
0.0311156
0.423282
-0.0249198
0.0205872
0.503584
-0.0167024
0.0139429
0.602162
-0.0113827
0.0094889
0.720951
-0.00766574
0.00629841
0.864274
-0.00492631
0.00385531
1.03652
-0.00270706
0.0017911
1.24342
-0.000756374
-0.000200348
1.49215
0.001154
-0.00218026
1.49222
0.00308982
-0.0041804
1.24378
0.00521043
-0.00655642
1.03698
0.00789022
-0.00967689
0.864693
0.0115272
-0.0140766
0.721607
0.0168209
-0.020688
0.603082
0.025006
-0.0311874
0.505621
0.0382901
-0.0484465
0.426324
0.0597154
-0.0733442
0.360404
0.0744783
0.214533
-0.176584
0.160347
0.0162371
-0.359225
0.357763
-0.0212215
0.0226837
-0.43013
0.429784
-0.0233394
0.0236858
-0.510648
0.511291
-0.0235186
0.0228757
-0.607573
0.609127
-0.0217627
0.0202085
-0.725004
0.727049
-0.0184498
0.0164053
-0.867434
0.869455
-0.0144844
0.0124637
-1.03908
1.04103
-0.0106187
0.00866599
-1.24564
1.24745
-0.00693279
0.00512321
-1.49372
1.4957
-0.00330058
0.00131791
-1.49366
1.49552
0.000584333
-0.00245265
-1.24489
1.24663
0.0043673
-0.00610421
-1.03814
1.03984
0.00796193
-0.00965459
-0.866375
0.868218
0.0116343
-0.0134777
-0.723736
0.725594
0.015468
-0.0173258
-0.60591
0.607553
0.0192304
-0.0208742
-0.508159
0.509181
0.0223198
-0.023341
-0.427713
0.427806
0.0238942
-0.023987
-0.360318
0.359597
0.0235669
-0.0228459
-0.279887
0.274841
0.0213162
-0.0162704
-0.153737
0.153414
0.000322864
-0.00503221
0.00710554
-0.35744
0.355367
-0.00890651
0.0101487
-0.427033
0.42579
-0.0110318
0.011599
-0.509582
0.509015
-0.0117564
0.0115689
-0.60884
0.609027
-0.0109316
0.0104173
-0.727135
0.727649
-0.00952719
0.00854672
-0.86988
0.87086
-0.00734943
0.00620101
-1.0416
1.04275
-0.00492017
0.0032253
-1.24865
1.25035
-0.00120344
-0.000657189
-1.49757
1.49943
0.00243892
-0.00423884
-1.49767
1.49947
0.00583226
-0.00748735
-1.2492
1.25086
0.00902531
-0.00999992
-1.04276
1.04373
0.0108459
-0.0116866
-0.870972
0.871813
0.0122378
-0.0126061
-0.728351
0.72872
0.012618
-0.0123132
-0.609688
0.609383
0.0116767
-0.0107107
-0.510756
0.50979
0.00938991
-0.00759056
-0.42792
0.426121
0.00533468
-0.00259647
-0.354432
0.351694
0.000378027
-0.153633
0.153255
-0.153335
0.152964
0.000371392
-0.00202909
0.00289244
-0.353845
0.352982
-0.00382523
0.00463834
-0.424498
0.423685
-0.00545157
0.00607826
-0.508263
0.507636
-0.00663803
0.00700688
-0.608859
0.60849
-0.00722784
0.00698747
-0.728061
0.728301
-0.00651518
0.00590702
-0.871658
0.872266
-0.00504405
0.00404195
-1.04382
1.04482
-0.00268799
0.00169027
-1.25174
1.25274
-0.000461764
-0.000859272
-1.50119
1.50251
0.00222265
-0.00358794
-1.50124
1.5026
0.00465884
-0.00567963
-1.25219
1.25321
0.00629086
-0.0070681
-1.04467
1.04544
0.00754338
-0.0078042
-0.872346
0.872607
0.00781806
-0.00759847
-0.728734
0.728514
0.0072044
-0.00658522
-0.608758
0.608139
0.00587547
-0.00495547
-0.508492
0.507572
0.00403381
-0.00296995
-0.424384
0.42332
0.00202719
-0.00106939
-0.350072
0.349114
0.000360972
-0.153171
0.15281
-0.15278
0.152733
4.69702e-05
-0.000327277
0.000766058
-0.352371
0.351932
-0.00133866
0.00185582
-0.423048
0.42253
-0.00238324
0.00281688
-0.507105
0.506672
-0.00322301
0.00351571
-0.608143
0.60785
-0.00371908
0.00372316
-0.728384
0.72838
-0.00356725
0.00327518
-0.872696
0.872988
-0.00277605
0.00216582
-1.04563
1.04624
-0.0013469
0.000623559
-1.25359
1.25431
0.000228572
-0.00110059
-1.50355
1.50442
0.00195198
-0.00268535
-1.50351
1.50424
0.00316179
-0.00402496
-1.25445
1.25531
0.0046068
-0.00484065
-1.04581
1.04605
0.00489896
-0.00483759
-0.872651
0.87259
0.00466527
-0.00436533
-0.728225
0.727925
0.00400582
-0.0035438
-0.607597
0.607135
0.00308018
-0.00254832
-0.506885
0.506353
0.00205617
-0.00152575
-0.422595
0.422065
0.00106251
-0.000596161
-0.348466
0.348
0.000237058
-0.152479
0.152242
-0.152615
0.152419
0.000196034
-0.000728412
0.000867802
-0.351644
0.351505
-0.00100922
0.00115573
-0.422235
0.422088
-0.00132841
0.00148362
-0.506387
0.506231
-0.00163805
0.00175303
-0.607644
0.607529
-0.00183257
0.00183816
-0.728357
0.728351
-0.00175812
0.00159373
-0.873197
0.873361
-0.00130341
0.000936031
-1.0467
1.04707
-0.00042826
-8.85954e-05
-1.25492
1.25544
0.000724441
-0.00136682
-1.50517
1.50582
0.00200283
-0.00261738
-1.50494
1.50555
0.00308963
-0.00307285
-1.25554
1.25552
0.00301617
-0.00317066
-1.04632
1.04647
0.00320482
-0.00312061
-0.872528
0.872443
0.00295867
-0.00271312
-0.727651
0.727406
0.00244749
-0.00212863
-0.606752
0.606433
0.00182515
-0.00149119
-0.505935
0.505601
0.00119275
-0.000879223
-0.421664
0.42135
0.00060957
-0.0003395
-0.347649
0.347379
0.000132271
-0.152075
0.151943
-0.152273
0.152202
7.13368e-05
-0.000314537
0.000385899
-0.351407
0.351335
-0.000451706
0.000510851
-0.422012
0.421953
-0.000573885
0.00062515
-0.506149
0.506097
-0.000670449
0.0006948
-0.60747
0.607446
-0.000694288
0.000658682
-0.728367
0.728402
-0.000572916
0.000439868
-0.873503
0.873636
-0.000229618
-2.58538e-05
-1.04737
1.04763
0.000376348
-0.000747418
-1.25588
1.25625
0.00120162
-0.0016422
-1.50635
1.50679
0.00204685
-0.00239392
-1.50602
1.50637
0.00260927
-0.00261855
-1.25552
1.25553
0.00257729
-0.00254935
-1.04652
1.04649
0.00246169
-0.00231213
-0.872319
0.872169
0.00213734
-0.00191908
-0.727176
0.726958
0.00170401
-0.00146134
-0.606158
0.605915
0.00124012
-0.00100362
-0.505324
0.505088
0.000797962
-0.000586157
-0.421096
0.420884
0.000406637
-0.000227237
-0.347164
0.346985
8.87605e-05
-0.151837
0.151748
-0.152174
0.152168
5.55115e-06
-3.27899e-05
4.20336e-05
-0.351295
0.351285
-4.73936e-05
4.77828e-05
-0.421922
0.421921
-4.17596e-05
2.89139e-05
-0.506078
0.506091
-3.94545e-06
-3.22766e-05
-0.607453
0.607489
9.16628e-05
-0.000168828
-0.728457
0.728534
0.000283602
-0.000422104
-0.873766
0.873904
0.000614044
-0.000827515
-1.04786
1.04807
0.00110194
-0.00138215
-1.25657
1.25685
0.00170868
-0.00200544
-1.50715
1.50745
0.00225106
-0.00242436
-1.50662
1.50679
0.00249756
-0.00247445
-1.25553
1.2555
0.00239684
-0.00227903
-1.04641
1.04629
0.00214003
-0.00196024
-0.872003
0.871823
0.00178046
-0.00157248
-0.726747
0.726539
0.00138027
-0.00117189
-0.605695
0.605486
0.000988161
-0.000796624
-0.50488
0.504688
0.000632178
-0.000463934
-0.420699
0.420531
0.000322355
-0.000180998
-0.346829
0.346688
7.09546e-05
-0.15167
0.151599
-0.152177
0.152199
-2.20904e-05
9.85995e-05
-0.000142171
-0.351305
0.351349
0.000195536
-0.000250466
-0.42195
0.422005
0.000318813
-0.000390166
-0.506134
0.506205
0.000479781
-0.000574288
-0.607555
0.607649
0.000693642
-0.000819666
-0.728635
0.728761
0.000978284
-0.00114429
-0.874054
0.87422
0.00134992
-0.00155848
-1.04828
1.04849
0.00180538
-0.00203895
-1.2571
1.25733
0.00228955
-0.0024913
-1.50769
1.5079
0.00262969
-0.00268979
-1.5069
1.50696
0.00267086
-0.0025816
-1.25545
1.25536
0.0024562
-0.00228627
-1.04614
1.04597
0.0021093
-0.00190203
-0.871631
0.871424
0.00170704
-0.00149271
-0.726331
0.726117
0.00130144
-0.00109905
-0.605284
0.605082
0.000923773
-0.000742275
-0.504505
0.504323
0.000587823
-0.000430787
-0.420372
0.420215
0.000298788
-0.00016721
-0.346554
0.346422
6.4428e-05
-0.151533
0.151468
-0.152232
0.152275
-4.27978e-05
0.000197707
-0.000284535
-0.351414
0.351501
0.000388968
-0.000493416
-0.422085
0.42219
0.000618816
-0.000744447
-0.506304
0.506429
0.000895509
-0.00104652
-0.607772
0.607923
0.00122723
-0.00140682
-0.728913
0.729093
0.00162032
-0.00182912
-0.874405
0.874614
0.00207156
-0.00230079
-1.0487
1.04893
0.00255371
-0.00277447
-1.25756
1.25778
0.00298757
-0.00313224
-1.50806
1.50821
0.0031978
-0.00317566
-1.50698
1.50696
0.00308605
-0.00292851
-1.25524
1.25508
0.00274797
-0.00252309
-1.04578
1.04555
0.00230389
-0.00205776
-0.871199
0.870952
0.00183271
-0.00159278
-0.725892
0.725652
0.0013814
-0.00116196
-0.604874
0.604654
0.000973126
-0.00078059
-0.504139
0.503946
0.000617742
-0.000452958
-0.420056
0.419891
0.000314109
-0.000175244
-0.346289
0.34615
6.70561e-05
-0.151403
0.151336
-0.152328
0.152393
-6.41133e-05
0.000293932
-0.000422419
-0.351609
0.351737
0.000576036
-0.000729126
-0.422318
0.422471
0.000912099
-0.0010933
-0.506582
0.506764
0.00130844
-0.00152041
-0.608103
0.608315
0.00176975
-0.00201233
-0.729303
0.729545
0.00229239
-0.00255905
-0.87485
0.875117
0.00285736
-0.00312895
-1.04918
1.04945
0.00341338
-0.00364682
-1.258
1.25824
0.00385069
-0.00396247
-1.50833
1.50845
0.00397524
-0.00388459
-1.5069
1.50681
0.00372849
-0.00350054
-1.25489
1.25466
0.00325728
-0.00296831
-1.0453
1.04501
0.00269536
-0.00239431
-0.870681
0.87038
0.00212537
-0.00184049
-0.725391
0.725106
0.00159313
-0.00133736
-0.604419
0.604163
0.00111895
-0.000896744
-0.503741
0.503519
0.000709066
-0.000519453
-0.419716
0.419526
0.000360329
-0.000201262
-0.346003
0.345844
7.68678e-05
-0.151263
0.151186
-0.152467
0.152554
-8.64968e-05
0.000398779
-0.000573906
-0.351888
0.352063
0.000783325
-0.000991325
-0.422651
0.422859
0.00123836
-0.00148255
-0.506975
0.50722
0.00177077
-0.00205307
-0.608561
0.608843
0.0023821
-0.00269919
-0.729823
0.73014
0.0030621
-0.00340199
-0.875418
0.875758
0.00377694
-0.00410993
-1.04975
1.05008
0.0044495
-0.00471627
-1.25848
1.25875
0.00493381
-0.00503057
-1.50855
1.50865
0.00500218
-0.00484697
-1.50669
1.50653
0.00462187
-0.00431252
-1.25439
1.25408
0.00399372
-0.00362382
-1.04468
1.04431
0.00327901
-0.00290512
-0.870046
0.869672
0.00257281
-0.00222427
-0.724792
0.724444
0.00192241
-0.00161251
-0.603883
0.603573
0.00134903
-0.00108096
-0.503275
0.503007
0.00085464
-0.000626668
-0.41932
0.419092
0.00043598
-0.000245047
-0.345671
0.34548
9.42912e-05
-0.151102
0.151007
-0.152654
0.152768
-0.000114241
0.000525053
-0.000755043
-0.352264
0.352494
0.00102973
-0.00130257
-0.423097
0.42337
0.00162673
-0.00194645
-0.5075
0.507819
0.00232333
-0.00269133
-0.609166
0.609534
0.00311922
-0.00352969
-0.730502
0.730912
0.00399596
-0.00443034
-0.876142
0.876577
0.00490419
-0.00532113
-1.05046
1.05087
0.00573902
-0.00605965
-1.25904
1.25936
0.00630801
-0.00640117
-1.50874
1.50883
0.00633489
-0.00611077
-1.50634
1.50612
0.00580677
-0.00540095
-1.25373
1.25332
0.00499049
-0.00451812
-1.04389
1.04342
0.00408217
-0.00361051
-0.869252
0.86878
0.00319366
-0.00275774
-0.724055
0.723619
0.00238173
-0.00199614
-0.603227
0.602842
0.00166861
-0.00133592
-0.502709
0.502376
0.00105594
-0.000774101
-0.418838
0.418557
0.000538115
-0.00030181
-0.345267
0.345031
0.000115694
-0.150905
0.150789
-0.152898
0.153046
-0.000148187
0.000680895
-0.000979081
-0.352756
0.353055
0.00133521
-0.00168869
-0.423681
0.424035
0.0021087
-0.00252255
-0.508183
0.508597
0.00300956
-0.00348438
-0.609953
0.610427
0.00403511
-0.00456212
-0.731377
0.731904
0.00515971
-0.0057138
-0.877067
0.877621
0.00631581
-0.00684151
-1.05134
1.05187
0.0073642
-0.00775903
-1.25972
1.26011
0.00805604
-0.00815273
-1.50893
1.50902
0.00804824
-0.00774364
-1.50586
1.50555
0.00734403
-0.00681789
-1.25286
1.25233
0.00629021
-0.00568769
-1.04289
1.04229
0.00513378
-0.00453777
-0.86825
0.867654
0.00401247
-0.00346394
-0.72313
0.722581
0.00299122
-0.00250601
-0.60241
0.601924
0.0020934
-0.00167524
-0.502004
0.501586
0.00132354
-0.000969065
-0.418241
0.417886
0.000672211
-0.00037557
-0.344767
0.34447
0.000143163
-0.15066
0.150517
-0.153215
0.153406
-0.00019138
0.000878411
-0.00126298
-0.353394
0.353778
0.00172197
-0.00217732
-0.424436
0.424891
0.00271783
-0.0032501
-0.509066
0.509599
0.00387664
-0.004487
-0.610966
0.611576
0.00519426
-0.00587042
-0.732501
0.733178
0.00663496
-0.00734249
-0.878247
0.878955
0.00810798
-0.00877379
-1.05246
1.05312
0.00943085
-0.00992285
-1.26055
1.26104
0.0102848
-0.010391
-1.50912
1.50923
0.0102396
-0.009837
-1.5052
1.5048
0.00931724
-0.00864019
-1.25174
1.25106
0.00796494
-0.00719581
-1.0416
1.04084
0.00649144
-0.00573389
-0.866983
0.866225
0.00506766
-0.00437273
-0.721964
0.721269
0.00377546
-0.00316358
-0.60138
0.600768
0.0026452
-0.00211902
-0.501117
0.500591
0.00167566
-0.00122846
-0.417489
0.417042
0.000853268
-0.000477606
-0.344137
0.343762
0.000181907
-0.150354
0.150172
-0.153623
0.15387
-0.000247189
0.00113192
-0.00162696
-0.354214
0.354709
0.00221771
-0.00280372
-0.425408
0.425994
0.00349882
-0.00418317
-0.510203
0.510887
0.00498747
-0.00577081
-0.612268
0.613051
0.00667779
-0.00754352
-0.733942
0.734808
0.00852129
-0.00942374
-0.879754
0.880656
0.0103981
-0.0112421
-1.05387
1.05472
0.0120706
-0.0126857
-1.26159
1.26221
0.0131304
-0.0132475
-1.50934
1.50946
0.0130376
-0.0125087
-1.50434
1.50381
0.0118368
-0.0109671
-1.25029
1.24942
0.0101025
-0.00912279
-1.03997
1.03899
0.00822557
-0.00726456
-0.865372
0.864411
0.00641879
-0.00553831
-0.720488
0.719608
0.00478
-0.00400443
-0.60008
0.599305
0.00334599
-0.00267841
-0.499999
0.499331
0.00211609
-0.00155059
-0.416539
0.415974
0.00107745
-0.000603722
-0.343338
0.342865
0.000230678
-0.149967
0.149737
-0.154151
0.154469
-0.000318481
0.00145726
-0.00209469
-0.355271
0.355908
0.00285558
-0.00361018
-0.426659
0.427413
0.0045052
-0.00538571
-0.511663
0.512543
0.00642021
-0.00742608
-0.613939
0.614944
0.00858887
-0.00969717
-0.735788
0.736896
0.0109466
-0.0120977
-0.881676
0.882827
0.0133369
-0.0144063
-1.05567
1.05674
0.0154506
-0.0162187
-1.2629
1.26367
0.0167638
-0.0168902
-1.50958
1.50971
0.0166013
-0.0159097
-1.5032
1.50251
0.0150424
-0.0139261
-1.24844
1.24732
0.0128222
-0.0115716
-1.03788
1.03663
0.0104303
-0.00920665
-0.863326
0.862102
0.00813251
-0.0070143
-0.718615
0.717496
0.00605357
-0.00507042
-0.59843
0.597447
0.00423669
-0.0033916
-0.49858
0.497735
0.0026807
-0.0019647
-0.415338
0.414622
0.00136459
-0.000763779
-0.342331
0.34173
0.000291438
-0.149479
0.149187
-0.154832
0.155245
-0.000412876
0.00188401
-0.00270628
-0.356632
0.357454
0.00368719
-0.00465945
-0.42827
0.429242
0.00581196
-0.00694527
-0.513542
0.514675
0.00827586
-0.00956905
-0.616085
0.617378
0.0110625
-0.0124837
-0.738151
0.739572
0.0140817
-0.0155499
-0.884127
0.885595
0.0171239
-0.018476
-1.05794
1.05929
0.0197875
-0.0207424
-1.26452
1.26548
0.021404
-0.0215318
-1.50984
1.50996
0.0211332
-0.0202267
-1.50172
1.50082
0.0191051
-0.0176731
-1.24606
1.24462
0.0162616
-0.0146692
-1.03522
1.03363
0.0132181
-0.011665
-0.860724
0.859171
0.0103028
-0.00888502
-0.716237
0.71482
0.00766735
-0.00642095
-0.59634
0.595094
0.00536421
-0.00429331
-0.496783
0.495712
0.00339283
-0.00248585
-0.413815
0.412908
0.00172593
-0.000965668
-0.341055
0.340295
0.0003684
-0.14886
0.148491
-0.155715
0.156251
-0.000536715
0.00244131
-0.00350563
-0.35839
0.359454
0.00477487
-0.00603278
-0.430347
0.431605
0.00752314
-0.00898729
-0.515963
0.517427
0.0107039
-0.012369
-0.618845
0.62051
0.0142881
-0.0161097
-0.741181
0.743002
0.0181526
-0.0200221
-0.887252
0.889121
0.0220179
-0.0237214
-1.06081
1.06251
0.0253599
-0.0265364
-1.26654
1.26772
0.0273265
-0.0274377
-1.51009
1.5102
0.0268843
-0.0256938
-1.49978
1.49859
0.0242452
-0.0224081
-1.243
1.24117
0.0206064
-0.0185786
-1.03183
1.0298
0.0167339
-0.0147635
-0.857421
0.855451
0.0130354
-0.0112397
-0.713224
0.711428
0.00969729
-0.00812028
-0.593692
0.592115
0.00678347
-0.00542916
-0.494508
0.493154
0.00428969
-0.00314279
-0.411888
0.410741
0.00218209
-0.00122098
-0.33944
0.338479
0.000465634
-0.148077
0.147611
-0.156865
0.157567
-0.0007017
0.00318117
-0.0045656
-0.360667
0.362051
0.00621591
-0.00784972
-0.433038
0.434671
0.00978325
-0.0116803
-0.519093
0.52099
0.0139017
-0.0160522
-0.622402
0.624552
0.0185241
-0.0208629
-0.745066
0.747405
0.0234739
-0.0258512
-0.89123
0.893607
0.0283715
-0.0305053
-1.06442
1.06656
0.0325331
-0.0339631
-1.26902
1.27045
0.0348822
-0.034941
-1.51029
1.51035
0.0341662
-0.0325981
-1.49722
1.49565
0.0307247
-0.0283722
-1.23909
1.23673
0.0260754
-0.0234994
-1.02752
1.02494
0.0211605
-0.0186637
-0.853232
0.850735
0.0164771
-0.0142052
-0.709408
0.707136
0.0122547
-0.0102611
-0.590341
0.588348
0.00857115
-0.00685891
-0.491631
0.489918
0.00541912
-0.00396976
-0.409451
0.408002
0.00275645
-0.00154225
-0.337398
0.336184
0.000588165
-0.147089
0.146501
-0.158373
0.159301
-0.000928413
0.00418172
-0.00599489
-0.363634
0.365447
0.0081541
-0.0102901
-0.436538
0.438674
0.0128149
-0.0152875
-0.523154
0.525626
0.0181743
-0.02096
-0.626998
0.629784
0.0241493
-0.0271515
-0.750054
0.753056
0.030484
-0.0334952
-0.896285
0.899296
0.036659
-0.0393054
-1.06894
1.07158
0.0417808
-0.0434804
-1.27201
1.27371
0.0445039
-0.0444462
-1.51036
1.5103
0.0433533
-0.0412823
-1.49385
1.49178
0.0388625
-0.0358541
-1.23407
1.23106
0.0329361
-0.0296726
-1.02204
1.01877
0.0267157
-0.0235628
-0.847929
0.844776
0.0208028
-0.0179347
-0.704583
0.701715
0.0154733
-0.012956
-0.586107
0.583589
0.0108231
-0.00866181
-0.487994
0.485833
0.00684382
-0.00501379
-0.406372
0.404542
0.00348061
-0.00194667
-0.334819
0.333285
0.000741683
-0.145842
0.1451
-0.160373
0.161616
-0.00124343
0.00556095
-0.00796238
-0.367531
0.369932
0.0108179
-0.0136371
-0.441124
0.443944
0.0169603
-0.0202046
-0.528455
0.531699
0.0239784
-0.0276024
-0.63296
0.636584
0.0317255
-0.0355784
-0.756459
0.760312
0.0398154
-0.043603
-0.902677
0.906464
0.0475283
-0.0507589
-1.07451
1.07774
0.0537108
-0.055663
-1.27554
1.27749
0.0567187
-0.0564329
-1.51015
1.50986
0.0548811
-0.0521449
-1.4894
1.48666
0.049027
-0.0451996
-1.22767
1.22384
0.0415099
-0.037398
-1.01511
1.011
0.0336778
-0.0297133
-0.841238
0.837274
0.0262416
-0.0226336
-0.698497
0.694889
0.0195331
-0.0163613
-0.580763
0.577592
0.0136702
-0.0109417
-0.483405
0.480676
0.00864492
-0.00633195
-0.402484
0.400171
0.00439485
-0.0024568
-0.331561
0.329623
0.000935388
-0.144269
0.143334
-0.163068
0.164774
-0.00170576
0.00753801
-0.0107685
-0.37271
0.37594
0.0145996
-0.0183707
-0.447197
0.450968
0.0227989
-0.0270995
-0.53543
0.539731
0.0320684
-0.0368012
-0.640723
0.645456
0.0421339
-0.0470585
-0.764671
0.769596
0.0524003
-0.0570982
-0.910693
0.915391
0.061874
-0.0657102
-1.08128
1.08512
0.0690988
-0.0712119
-1.27954
1.28166
0.0721472
-0.0714519
-1.5094
1.5087
0.0692435
-0.0656358
-1.48352
1.47991
0.0616414
-0.0568066
-1.21953
1.2147
0.0521795
-0.0470414
-1.00639
1.00126
0.0423968
-0.0374439
-0.832837
0.827884
0.0331003
-0.0285759
-0.690845
0.686321
0.0246814
-0.0206881
-0.574031
0.570038
0.0172957
-0.0138509
-0.477611
0.474166
0.0109485
-0.00802248
-0.397571
0.394645
0.00556938
-0.00311387
-0.327443
0.324988
0.00118574
-0.142282
0.141096
-0.166798
0.169233
-0.00243532
0.010556
-0.0150161
-0.379719
0.384179
0.0202777
-0.0254262
-0.455364
0.460512
0.0314248
-0.0371952
-0.544707
0.550477
0.0437841
-0.0499719
-0.650871
0.657059
0.056828
-0.0630421
-0.775142
0.781356
0.0696386
-0.075303
-0.920575
0.926239
0.0808999
-0.0852414
-1.08923
1.09357
0.0888853
-0.0909419
-1.28378
1.28584
0.0914737
-0.0900856
-1.50771
1.50632
0.0869504
-0.0822161
-1.47578
1.47104
0.0771454
-0.0711099
-1.20929
1.20325
0.0653843
-0.05905
-0.99554
0.989206
0.0533264
-0.0472129
-0.822371
0.816258
0.041833
-0.0362069
-0.681269
0.675643
0.0313402
-0.0263263
-0.565562
0.560548
0.0220463
-0.0176826
-0.470291
0.465928
0.0139933
-0.0102644
-0.391346
0.387617
0.00713196
-0.0039919
-0.322216
0.319076
0.00152237
-0.139756
0.138234
-0.172193
0.176045
-0.00385191
0.0159301
-0.0223499
-0.389506
0.395925
0.0298141
-0.037011
-0.466618
0.473815
0.0452561
-0.0530328
-0.557205
0.564982
0.0617147
-0.0696685
-0.664111
0.672065
0.0782468
-0.0858014
-0.788256
0.795811
0.0935737
-0.100026
-0.932342
0.938794
0.106146
-0.110654
-1.09806
1.10257
0.114127
-0.115711
-1.28772
1.28931
0.115377
-0.112887
-1.50444
1.50195
0.108471
-0.102314
-1.46563
1.45948
0.0959592
-0.088548
-1.19655
1.18914
0.0815969
-0.0739487
-0.982223
0.974575
0.0670482
-0.0596616
-0.809513
0.802127
0.0531321
-0.0462555
-0.6694
0.662523
0.040257
-0.0340178
-0.554938
0.548699
0.0286389
-0.0230994
-0.461004
0.455465
0.0183697
-0.0135444
-0.383385
0.37856
0.00945739
-0.00532742
-0.315505
0.311375
0.00203913
-0.13649
0.134451
-0.180754
0.188986
-0.0082324
0.0292029
-0.0386421
-0.404017
0.413456
0.0491908
-0.0590423
-0.482634
0.492486
0.0699747
-0.0799677
-0.574058
0.584051
0.0907419
-0.100264
-0.68094
0.690462
0.11017
-0.118575
-0.803905
0.81231
0.126872
-0.133445
-0.945424
0.951997
0.139329
-0.143292
-1.10691
1.11087
0.145841
-0.146287
-1.29042
1.29086
0.144423
-0.140284
-1.49871
1.49457
0.134151
-0.126244
-1.45249
1.44458
0.118402
-0.109486
-1.18099
1.17207
0.101251
-0.0922782
-0.966257
0.957285
0.0842254
-0.0756259
-0.794106
0.785507
0.0680152
-0.059966
-0.655009
0.64696
0.0528932
-0.0454704
-0.54178
0.534357
0.038994
-0.0322117
-0.449184
0.442402
0.0263018
-0.0201145
-0.372966
0.366778
0.0146676
-0.00874818
-0.306571
0.300652
0.00335142
-0.132076
0.128725
-0.198843
0.201587
-0.00274366
0.0201058
-0.0292435
-0.426935
0.436072
0.039999
-0.0504395
-0.504915
0.515356
0.0621842
-0.0735504
-0.595225
0.606592
0.0856711
-0.0964384
-0.700351
0.711118
0.108354
-0.118918
-0.820575
0.83114
0.129883
-0.139271
-0.958123
0.96751
0.148574
-0.155987
-1.11414
1.12155
0.162528
-0.16673
-1.2904
1.29461
0.168834
-0.167925
-1.48935
1.48844
0.163924
-0.157255
-1.43565
1.42898
0.149527
-0.139799
-1.16236
1.15263
0.130314
-0.119008
-0.947679
0.936373
0.108574
-0.0970078
-0.776357
0.76479
0.086526
-0.0752093
-0.638365
0.627049
0.0648973
-0.0542073
-0.526261
0.515571
0.0451723
-0.0355716
-0.434678
0.425077
0.0275153
-0.0194493
-0.359328
0.351262
0.0126034
-0.00585435
-0.293742
0.286993
0.00108941
-0.124563
0.123474
-0.213999
0.20887
0.00512861
0.00275973
-0.00983121
-0.448867
0.455939
0.0192257
-0.0281449
-0.527007
0.535926
0.0387447
-0.0484548
-0.617667
0.627377
0.0592987
-0.069174
-0.722035
0.73191
0.0797574
-0.089359
-0.841466
0.851067
0.0993805
-0.107734
-0.976897
0.98525
0.116272
-0.122789
-1.12913
1.13565
0.128547
-0.132
-1.29889
1.30234
0.133195
-0.131648
-1.48713
1.48558
0.127148
-0.120183
-1.42189
1.41493
0.112211
-0.102515
-1.14276
1.13307
0.0933149
-0.0829517
-0.925231
0.914868
0.0733971
-0.0628977
-0.753328
0.742829
0.0535844
-0.043985
-0.615539
0.605939
0.0358123
-0.0273954
-0.504434
0.496017
0.0204154
-0.0137529
-0.413871
0.407208
0.00872116
-0.00415285
-0.339918
0.33535
0.000976629
0.00138425
-0.276282
0.273921
-0.00217997
-0.116651
0.118831
-0.219336
0.215018
0.00431803
0.000825525
-0.00594722
-0.465376
0.470498
0.0128603
-0.0200151
-0.545036
0.552191
0.0284086
-0.0364611
-0.636762
0.644814
0.0455641
-0.0540212
-0.74134
0.749797
0.0634053
-0.0718573
-0.860167
0.868619
0.080562
-0.0882303
-0.993651
1.00132
0.0959412
-0.102
-1.14206
1.14812
0.107019
-0.10991
-1.30552
1.30842
0.110898
-0.109147
-1.48374
1.48199
0.104648
-0.097919
-1.40775
1.40103
0.0904596
-0.0817182
-1.12367
1.11493
0.0732469
-0.0640713
-0.9047
0.895524
0.055775
-0.0468417
-0.733195
0.724262
0.0392407
-0.0314265
-0.596852
0.589038
0.0249367
-0.0182012
-0.487565
0.480829
0.0128894
-0.00792944
-0.399278
0.394318
0.00426529
-0.00121939
-0.327485
0.324439
-0.00073042
0.00211897
-0.266125
0.264736
-0.002371
-0.112937
0.115308
-0.224083
0.220057
0.00402643
-0.000123564
-0.00412885
-0.478168
0.48242
0.00984768
-0.0160539
-0.559424
0.56563
0.0234534
-0.030372
-0.652574
0.659492
0.038412
-0.0459357
-0.758158
0.765681
0.0542823
-0.0618688
-0.876837
0.884423
0.0701221
-0.0770775
-1.00884
1.01579
0.084332
-0.0896926
-1.15411
1.15947
0.0945179
-0.0973439
-1.31143
1.31426
0.0982505
-0.0963928
-1.48017
1.47831
0.0922837
-0.086119
-1.3941
1.38793
0.0792587
-0.0709777
-1.10628
1.098
0.0633155
-0.0551098
-0.886411
0.878205
0.0476375
-0.0399708
-0.715773
0.708106
0.0331445
-0.0263367
-0.581279
0.574471
0.0206314
-0.0149907
-0.474111
0.46847
0.0105153
-0.0062066
-0.387927
0.383618
0.00297358
-0.000562338
-0.318003
0.315592
-0.0012221
0.00231591
-0.258429
0.257335
-0.00221442
-0.110074
0.112289
-0.228719
0.225203
0.00351694
-0.000189342
-0.00356215
-0.489189
0.492941
0.00920148
-0.0147789
-0.572172
0.577749
0.0212963
-0.0278507
-0.666505
0.673059
0.0350619
-0.0420951
-0.773041
0.780074
0.0498244
-0.0569164
-0.891901
0.898993
0.0646075
-0.0713477
-1.02291
1.02965
0.07818
-0.0836633
-1.16502
1.17051
0.0884623
-0.0913638
-1.31707
1.31998
0.092457
-0.0908694
-1.47656
1.47497
0.0870969
-0.0811439
-1.38132
1.37537
0.0746725
-0.0669916
-1.08979
1.08211
0.0597907
-0.0519524
-0.869841
0.862002
0.0450197
-0.0377822
-0.700307
0.693069
0.0315432
-0.0251915
-0.56762
0.561268
0.0199333
-0.0147166
-0.462446
0.457229
0.010386
-0.00630264
-0.378161
0.374078
0.00341777
-0.000867859
-0.310056
0.307506
-0.000977999
0.00190284
-0.251775
0.25085
-0.00202378
-0.107573
0.109597
-0.233148
0.230016
0.00313271
0.000172392
-0.00411335
-0.499145
0.503086
0.00912352
-0.014503
-0.583412
0.588792
0.0210303
-0.0271256
-0.679333
0.685428
0.0339572
-0.0406423
-0.78685
0.793535
0.0481168
-0.0550346
-0.906083
0.913001
0.0627125
-0.069292
-1.03644
1.04302
0.0761661
-0.0817695
-1.17604
1.18165
0.0867411
-0.0898796
-1.32294
1.32608
0.0912847
-0.0903507
-1.47349
1.47255
0.0868481
-0.0812924
-1.36905
1.3635
0.0750036
-0.0674725
-1.07417
1.06664
0.0605764
-0.0527401
-0.853931
0.846095
0.0458553
-0.0387998
-0.685621
0.678566
0.0326691
-0.026421
-0.554834
0.548586
0.0211913
-0.0158548
-0.451584
0.446248
0.0117152
-0.00763041
-0.369011
0.364926
0.00440303
-0.00172249
-0.302396
0.299716
-0.000137708
0.00141364
-0.245668
0.244392
-0.00170545
-0.105158
0.106864
-0.237386
0.234891
0.00249518
0.00104866
-0.00490337
-0.508651
0.512506
0.0100579
-0.0150629
-0.594468
0.599473
0.0214616
-0.0274291
-0.691588
0.697555
0.0344015
-0.0408227
-0.800313
0.806734
0.04814
-0.0549591
-0.92022
0.927039
0.0628429
-0.0695165
-1.04996
1.05664
0.0764748
-0.0824402
-1.1874
1.19337
0.0881553
-0.0917116
-1.32953
1.33308
0.0937358
-0.0931886
-1.47142
1.47087
0.090308
-0.0847592
-1.35766
1.35211
0.0786795
-0.0712521
-1.05873
1.0513
0.0641534
-0.0563442
-0.837999
0.83019
0.0492702
-0.0418638
-0.670988
0.663582
0.0357492
-0.0292326
-0.541971
0.535454
0.0237248
-0.0183279
-0.44055
0.435153
0.0138563
-0.00939505
-0.359989
0.355528
0.00601023
-0.00302777
-0.294943
0.29196
0.000916395
0.000723777
-0.239565
0.237924
-0.00141371
-0.102676
0.10409
-0.241801
0.239777
0.00202417
0.00190889
-0.00568501
-0.51779
0.521566
0.0110172
-0.0161268
-0.605228
0.610338
0.0224103
-0.0282691
-0.703655
0.709513
0.0349846
-0.0416397
-0.81351
0.820165
0.0490223
-0.0563743
-0.934003
0.941355
0.064081
-0.0710685
-1.06372
1.07071
0.0787144
-0.085016
-1.19956
1.20586
0.090951
-0.0954932
-1.33687
1.34141
0.0983117
-0.0984872
-1.47052
1.47069
0.0960068
-0.0909572
-1.34657
1.34152
0.0849188
-0.0773243
-1.04322
1.03563
0.0700194
-0.0618398
-0.821825
0.813646
0.054426
-0.0467399
-0.655775
0.648089
0.0399755
-0.0331136
-0.528464
0.521602
0.0273423
-0.021423
-0.429219
0.4233
0.0165241
-0.0118997
-0.350331
0.345707
0.00811287
-0.00462205
-0.287082
0.283591
0.00207789
-3.3975e-05
-0.233219
0.231176
-0.00108815
-0.100224
0.101312
-0.246539
0.244811
0.00172791
0.00297283
-0.0068967
-0.526852
0.530776
0.0121087
-0.017313
-0.615965
0.621169
0.0234571
-0.0294723
-0.715785
0.7218
0.0363525
-0.0429433
-0.826972
0.833563
0.0508209
-0.0578251
-0.948496
0.955501
0.0659654
-0.0732541
-1.07818
1.08547
0.0813603
-0.0884206
-1.2125
1.21956
0.0953056
-0.100323
-1.34608
1.3511
0.104197
-0.105315
-1.47099
1.47211
0.103736
-0.0989785
-1.33618
1.33143
0.0930567
-0.0852543
-1.02766
1.01985
0.0776213
-0.0688772
-0.804719
0.795974
0.0610223
-0.0526124
-0.639667
0.631257
0.0453162
-0.0378211
-0.514137
0.506642
0.0314377
-0.025169
-0.416859
0.41059
0.0197638
-0.0146079
-0.339999
0.334843
0.0102865
-0.0063417
-0.278552
0.274608
0.00340118
-0.000738372
-0.226278
0.223616
-0.000677308
-0.0975807
0.098258
-0.251173
0.249909
0.00126359
0.00381913
-0.00811513
-0.536053
0.540349
0.0131303
-0.0184204
-0.626363
0.631653
0.0244135
-0.0305091
-0.727939
0.734034
0.0374808
-0.0444727
-0.840361
0.847353
0.0521033
-0.0595866
-0.962989
0.970473
0.0681118
-0.0756364
-1.09347
1.101
0.0843716
-0.0919657
-1.22681
1.23441
0.0996543
-0.105898
-1.35687
1.36312
0.111061
-0.113185
-1.47355
1.47567
0.112378
-0.108411
-1.32669
1.32272
0.102782
-0.0947675
-1.01143
1.00342
0.0866475
-0.0774221
-0.78649
0.777264
0.0685834
-0.0595483
-0.622014
0.612978
0.051537
-0.0432307
-0.498606
0.490299
0.0363187
-0.0292909
-0.403398
0.39637
0.0233964
-0.0175021
-0.328854
0.32296
0.0127745
-0.00824851
-0.26926
0.264734
0.0046506
-0.00145697
-0.218704
0.21551
-0.000360138
-0.0946301
0.0949903
-0.256072
0.255083
0.000988644
0.00449648
-0.00857369
-0.545313
0.549391
0.0141341
-0.019167
-0.637122
0.642155
0.0254006
-0.0315191
-0.740025
0.746143
0.0385561
-0.0453876
-0.854315
0.861146
0.0533978
-0.0608653
-0.978236
0.985704
0.0697042
-0.0780202
-1.10926
1.11758
0.0869273
-0.0953958
-1.24241
1.25087
0.104193
-0.111326
-1.36971
1.37684
0.117855
-0.121658
-1.47836
1.48216
0.122012
-0.119116
-1.31865
1.31575
0.113625
-0.105596
-0.99492
0.986892
0.0971111
-0.0870315
-0.766944
0.756865
0.0774961
-0.0673924
-0.602749
0.592645
0.0584963
-0.0492156
-0.481226
0.471945
0.0414364
-0.0336875
-0.388565
0.380816
0.0270342
-0.0205324
-0.316377
0.309875
0.0152028
-0.010059
-0.25894
0.253796
0.00600677
-0.00228253
-0.21039
0.206665
4.69335e-05
-0.0916002
0.0915533
-0.261082
0.260327
0.000755489
0.00526829
-0.00938574
-0.554527
0.558644
0.0146687
-0.0198952
-0.647616
0.652842
0.0261047
-0.032169
-0.752158
0.758222
0.0394238
-0.0462546
-0.868206
0.875037
0.0543264
-0.0621276
-0.993868
1.00167
0.0711336
-0.0797478
-1.12605
1.13466
0.0893123
-0.0983155
-1.25965
1.26866
0.108012
-0.116698
-1.38473
1.39342
0.124763
-0.129992
-1.48644
1.49167
0.132111
-0.130273
-1.31287
1.31103
0.125621
-0.117829
-0.978345
0.970552
0.108769
-0.0978061
-0.745721
0.734758
0.0872799
-0.0758199
-0.581345
0.569885
0.0658522
-0.0553737
-0.461953
0.451475
0.0466587