/*--------------------------------*- C++ -*----------------------------------*\
  =========                 |
  \\      /  F ield         | OpenFOAM: The Open Source CFD Toolbox
   \\    /   O peration     | Website:  https://openfoam.org
    \\  /    A nd           | Version:  9
     \\/     M anipulation  |
\*---------------------------------------------------------------------------*/
FoamFile
{
    format      ascii;
    class       volVectorField;
    location    "1";
    object      U;
}
// * * * * * * * * * * * * * * * * * * * * * * * * * * * * * * * * * * * * * //

dimensions      [0 1 -1 0 0 0 0];

internalField   nonuniform List<vector> 
8800
(
(0.951837 -0.0697725 0)
(0.980436 -0.0467115 0)
(0.971325 -0.0299241 0)
(0.96634 -0.0196541 0)
(0.963744 -0.0132444 0)
(0.962318 -0.00902753 0)
(0.961492 -0.00603939 0)
(0.960997 -0.00379958 0)
(0.960714 -0.00193534 0)
(0.960558 -0.000237155 0)
(0.960587 0.00144285 0)
(0.960798 0.00314553 0)
(0.961158 0.00508983 0)
(0.961784 0.00759721 0)
(0.962859 0.0110674 0)
(0.964765 0.0162006 0)
(0.968342 0.0242449 0)
(0.975228 0.0373266 0)
(0.982708 0.059303 0)
(0.746284 0.0387627 0)
(0.593935 -0.00849177 0)
(1.05506 -0.0192938 0)
(1.05548 -0.020459 0)
(1.04558 -0.0200987 0)
(1.0375 -0.0181494 0)
(1.03175 -0.0150419 0)
(1.02845 -0.0116275 0)
(1.0262 -0.00831859 0)
(1.02499 -0.00523495 0)
(1.02419 -0.00197678 0)
(1.0241 0.00131543 0)
(1.02445 0.00452017 0)
(1.02529 0.00760835 0)
(1.02687 0.0108479 0)
(1.0297 0.0141611 0)
(1.03429 0.0173291 0)
(1.04109 0.0197652 0)
(1.05014 0.0207856 0)
(1.05973 0.0201807 0)
(0.977113 0.0184114 0)
(0.528428 0.00034241 0)
(1.02235 -0.00538814 0)
(1.01986 -0.00831382 0)
(1.01606 -0.00979913 0)
(1.01223 -0.0101499 0)
(1.0079 -0.00923805 0)
(1.00505 -0.00782098 0)
(1.00289 -0.00584819 0)
(1.00228 -0.00359603 0)
(1.00158 -0.000215218 0)
(1.00161 0.00287366 0)
(1.00263 0.00573824 0)
(1.00386 0.00828941 0)
(1.00631 0.0097557 0)
(1.00954 0.0107771 0)
(1.01331 0.01082 0)
(1.0172 0.00973848 0)
(1.02085 0.00753578 0)
(1.01265 0.0034678 0)
(0.527957 -0.000318181 0)
(0.530028 -9.51943e-05 0)
(1.01933 -0.00214175 0)
(1.01936 -0.00368363 0)
(1.01788 -0.00501632 0)
(1.01597 -0.00592802 0)
(1.01321 -0.00619595 0)
(1.01098 -0.00537722 0)
(1.00899 -0.00395947 0)
(1.00809 -0.00184793 0)
(1.0073 0.000166544 0)
(1.00736 0.00249255 0)
(1.00785 0.00453393 0)
(1.0095 0.00579858 0)
(1.01155 0.00666226 0)
(1.01378 0.00669783 0)
(1.01586 0.00599777 0)
(1.01757 0.00472346 0)
(1.0187 0.00303627 0)
(1.00825 0.00134325 0)
(0.529529 0.000104205 0)
(0.528632 -2.34009e-05 0)
(1.0155 -0.000416014 0)
(1.01587 -0.00140367 0)
(1.01527 -0.00226678 0)
(1.01433 -0.00293112 0)
(1.01298 -0.00324471 0)
(1.01153 -0.00297479 0)
(1.01015 -0.00215142 0)
(1.00925 -0.00082767 0)
(1.00865 0.000571815 0)
(1.00857 0.00207822 0)
(1.01009 0.00300649 0)
(1.00992 0.0041642 0)
(1.01127 0.00422357 0)
(1.01254 0.00392257 0)
(1.01359 0.00328287 0)
(1.01434 0.00244445 0)
(1.01475 0.00155821 0)
(1.00413 0.000715075 0)
(0.527117 9.04635e-05 0)
(0.52765 -8.19322e-05 0)
(1.01372 -0.000705344 0)
(1.01432 -0.000937157 0)
(1.01409 -0.00122099 0)
(1.01363 -0.00147266 0)
(1.01293 -0.00159816 0)
(1.01203 -0.00146146 0)
(1.01105 -0.000974937 0)
(1.0102 -0.000142155 0)
(1.00958 0.000902678 0)
(1.00941 0.00198376 0)
(1.0103 0.00273816 0)
(1.0104 0.00264469 0)
(1.0111 0.00275435 0)
(1.01178 0.00246496 0)
(1.0123 0.00198559 0)
(1.01265 0.00144125 0)
(1.0128 0.000897502 0)
(1.0021 0.000412261 0)
(0.525951 5.09406e-05 0)
(0.526736 -2.05306e-05 0)
(1.01327 -0.000313753 0)
(1.01398 -0.000417333 0)
(1.01377 -0.000521115 0)
(1.01344 -0.000593012 0)
(1.01297 -0.000590873 0)
(1.01236 -0.000445023 0)
(1.01164 -9.23061e-05 0)
(1.01092 0.000486883 0)
(1.01032 0.00123088 0)
(1.01007 0.00191986 0)
(1.01033 0.00228688 0)
(1.0105 0.00221556 0)
(1.01082 0.00207112 0)
(1.01114 0.00176047 0)
(1.01138 0.00137523 0)
(1.01154 0.000972791 0)
(1.01158 0.000601553 0)
(1.00085 0.00027292 0)
(0.525208 3.46044e-05 0)
(0.526515 -8.13362e-07 0)
(1.01301 -3.37391e-05 0)
(1.01382 -4.24342e-05 0)
(1.01368 -3.199e-05 0)
(1.01346 1.04839e-05 0)
(1.01313 0.000111125 0)
(1.01267 0.000303698 0)
(1.01209 0.000622589 0)
(1.01143 0.00107494 0)
(1.0108 0.001609 0)
(1.01041 0.00202813 0)
(1.01032 0.0021652 0)
(1.01034 0.00202666 0)
(1.01044 0.00177842 0)
(1.01055 0.00145437 0)
(1.01064 0.00110596 0)
(1.0107 0.00077449 0)
(1.01069 0.000475101 0)
(0.999951 0.00021745 0)
(0.524668 2.78e-05 0)
(0.526579 9.68688e-06 0)
(1.01312 0.000104154 0)
(1.01395 0.000192937 0)
(1.01385 0.000306546 0)
(1.01368 0.000456325 0)
(1.01341 0.000654524 0)
(1.01302 0.000918323 0)
(1.01249 0.00125896 0)
(1.01184 0.00166465 0)
(1.01114 0.00207178 0)
(1.01056 0.00230646 0)
(1.01023 0.00227653 0)
(1.01006 0.00205609 0)
(1.00999 0.00173979 0)
(1.00997 0.00138766 0)
(1.00996 0.00104113 0)
(1.00996 0.000722523 0)
(1.00991 0.000441343 0)
(0.999171 0.000200561 0)
(0.524204 2.51791e-05 0)
(0.526807 1.76506e-05 0)
(1.0135 0.000209142 0)
(1.01434 0.000382338 0)
(1.01425 0.000590704 0)
(1.01409 0.000841032 0)
(1.01383 0.00114042 0)
(1.01345 0.00149356 0)
(1.01291 0.00189287 0)
(1.01221 0.00230717 0)
(1.01137 0.0026514 0)
(1.01058 0.00276259 0)
(1.01003 0.00260733 0)
(1.00968 0.00228381 0)
(1.00946 0.00188976 0)
(1.00933 0.00148428 0)
(1.00926 0.00110253 0)
(1.00921 0.00075916 0)
(1.00914 0.00046433 0)
(0.998394 0.00021101 0)
(0.523749 2.67576e-05 0)
(0.527176 2.6153e-05 0)
(1.01412 0.000310668 0)
(1.01496 0.000565483 0)
(1.01486 0.000868864 0)
(1.01469 0.00122515 0)
(1.01442 0.00163833 0)
(1.014 0.00210091 0)
(1.01339 0.00259264 0)
(1.01257 0.00305795 0)
(1.01153 0.00338506 0)
(1.01051 0.00340578 0)
(1.00972 0.00313213 0)
(1.00919 0.00269793 0)
(1.00884 0.00220569 0)
(1.00861 0.00171854 0)
(1.00847 0.00126887 0)
(1.00839 0.000873964 0)
(1.0083 0.000532236 0)
(0.997547 0.000242793 0)
(0.523253 3.0402e-05 0)
(0.527694 3.486e-05 0)
(1.01499 0.000420928 0)
(1.01582 0.000769532 0)
(1.01571 0.00117886 0)
(1.01551 0.00165736 0)
(1.01519 0.00220144 0)
(1.0147 0.00280039 0)
(1.01397 0.00341653 0)
(1.01297 0.00397076 0)
(1.01167 0.00431738 0)
(1.01034 0.00426811 0)
(1.00929 0.00387157 0)
(1.00855 0.00330073 0)
(1.00806 0.00267949 0)
(1.00773 0.00207884 0)
(1.00753 0.001532 0)
(1.00741 0.00105382 0)
(1.0073 0.000641443 0)
(0.996544 0.000293289 0)
(0.522664 3.86025e-05 0)
(0.528386 4.65757e-05 0)
(1.01615 0.000555334 0)
(1.01697 0.00101022 0)
(1.01684 0.00154849 0)
(1.0166 0.00217201 0)
(1.0162 0.00288031 0)
(1.01559 0.00365028 0)
(1.01469 0.00442903 0)
(1.01344 0.00511097 0)
(1.0118 0.00550587 0)
(1.01009 0.00539242 0)
(1.00872 0.00485579 0)
(1.00774 0.00411972 0)
(1.00708 0.00333281 0)
(1.00665 0.00257826 0)
(1.00638 0.00189721 0)
(1.00622 0.00130101 0)
(1.00608 0.000794034 0)
(0.995316 0.000361046 0)
(0.521946 4.7125e-05 0)
(0.529289 5.98732e-05 0)
(1.01767 0.000718381 0)
(1.01847 0.00131063 0)
(1.0183 0.00200629 0)
(1.018 0.00281373 0)
(1.0175 0.00372443 0)
(1.01673 0.00471005 0)
(1.0156 0.0056993 0)
(1.01401 0.0065511 0)
(1.01193 0.00702254 0)
(1.00973 0.00684187 0)
(1.00797 0.00613516 0)
(1.00671 0.00518931 0)
(1.00585 0.00419064 0)
(1.00528 0.00323955 0)
(1.00493 0.00238221 0)
(1.00472 0.00163317 0)
(1.00456 0.000994059 0)
(0.993791 0.000451053 0)
(0.521056 5.63446e-05 0)
(0.530457 7.78099e-05 0)
(1.01963 0.000928153 0)
(1.02041 0.00168942 0)
(1.02019 0.00258595 0)
(1.0198 0.00362342 0)
(1.01917 0.0047932 0)
(1.01819 0.0060548 0)
(1.01675 0.00731299 0)
(1.01473 0.00838325 0)
(1.01206 0.00895766 0)
(1.00926 0.00869831 0)
(1.00701 0.0077803 0)
(1.00539 0.00656863 0)
(1.00429 0.00529676 0)
(1.00356 0.00409041 0)
(1.00311 0.00300655 0)
(1.00284 0.00206514 0)
(1.00265 0.00125718 0)
(0.99186 0.000573823 0)
(0.519928 7.26838e-05 0)
(0.531966 0.000100434 0)
(1.02215 0.00119504 0)
(1.0229 0.00217571 0)
(1.02261 0.00332836 0)
(1.02212 0.00466097 0)
(1.0213 0.00616116 0)
(1.02005 0.00777356 0)
(1.0182 0.00937373 0)
(1.01561 0.0107239 0)
(1.01221 0.011428 0)
(1.00864 0.0110682 0)
(1.00576 0.00987904 0)
(1.0037 0.00832848 0)
(1.0023 0.00671107 0)
(1.00137 0.00518115 0)
(1.0008 0.00380645 0)
(1.00045 0.0026106 0)
(1.00022 0.00158961 0)
(0.989421 0.00072362 0)
(0.518509 9.25642e-05 0)
(0.533912 0.000129208 0)
(1.0254 0.00153778 0)
(1.0261 0.00280204 0)
(1.02574 0.00428524 0)
(1.02509 0.00599882 0)
(1.02404 0.00792153 0)
(1.02242 0.00998233 0)
(1.02004 0.0120172 0)
(1.01672 0.0137188 0)
(1.01238 0.0145804 0)
(1.00782 0.0140854 0)
(1.00417 0.0125504 0)
(1.00156 0.0105686 0)
(0.999777 0.00850787 0)
(0.998608 0.00656239 0)
(0.997875 0.00481997 0)
(0.997439 0.0033045 0)
(0.997154 0.00201396 0)
(0.986333 0.000916055 0)
(0.516714 0.000117164 0)
(0.536429 0.000168001 0)
(1.02959 0.00198881 0)
(1.03023 0.0036162 0)
(1.02975 0.00552742 0)
(1.02891 0.00773061 0)
(1.02754 0.0102002 0)
(1.02545 0.0128357 0)
(1.02237 0.0154204 0)
(1.01811 0.0175568 0)
(1.01255 0.0186019 0)
(1.00676 0.0179197 0)
(1.00213 0.0159331 0)
(0.998826 0.0134006 0)
(0.996572 0.0107813 0)
(0.995097 0.00831348 0)
(0.994171 0.00610445 0)
(0.993622 0.00418502 0)
(0.993275 0.00254739 0)
(0.982433 0.00115927 0)
(0.514444 0.000147564 0)
(0.539693 0.000218585 0)
(1.035 0.002575 0)
(1.03557 0.00468366 0)
(1.03493 0.00715341 0)
(1.03382 0.00999657 0)
(1.03204 0.0131683 0)
(1.0293 0.0165363 0)
(1.02532 0.0198128 0)
(1.01982 0.0224811 0)
(1.01271 0.0237274 0)
(1.00536 0.0227812 0)
(0.99951 0.020213 0)
(0.99534 0.0169761 0)
(0.992498 0.013646 0)
(0.990638 0.0105185 0)
(0.989471 0.00772043 0)
(0.98878 0.00529251 0)
(0.988354 0.00322109 0)
(0.977486 0.0014659 0)
(0.511568 0.000187039 0)
(0.543953 0.00028694 0)
(1.04202 0.00335598 0)
(1.04248 0.00609478 0)
(1.04163 0.00929928 0)
(1.04016 0.0129765 0)
(1.0378 0.0170624 0)
(1.03421 0.0213661 0)
(1.02901 0.0255033 0)
(1.02191 0.0288059 0)
(1.01283 0.0302527 0)
(1.00351 0.0289281 0)
(0.99615 0.0256037 0)
(0.990912 0.0214793 0)
(0.987342 0.0172544 0)
(0.985004 0.0132935 0)
(0.983537 0.00975631 0)
(0.982668 0.00668739 0)
(0.982147 0.00406939 0)
(0.971249 0.00185061 0)
(0.507945 0.000235797 0)
(0.549552 0.000380378 0)
(1.05118 0.00440601 0)
(1.05149 0.00799209 0)
(1.05034 0.012176 0)
(1.04837 0.0169533 0)
(1.0452 0.0222215 0)
(1.04043 0.0277127 0)
(1.03362 0.0329041 0)
(1.02443 0.0369341 0)
(1.01283 0.0385405 0)
(1.00109 0.0366731 0)
(0.991853 0.0323718 0)
(0.985293 0.0271251 0)
(0.980819 0.0217837 0)
(0.977884 0.0167849 0)
(0.97604 0.0123181 0)
(0.974945 0.00844218 0)
(0.974297 0.00513898 0)
(0.963357 0.00233751 0)
(0.50337 0.00029674 0)
(0.557004 0.000512267 0)
(1.06326 0.00585632 0)
(1.06333 0.010597 0)
(1.06174 0.0161009 0)
(1.05901 0.0223433 0)
(1.0547 0.0291523 0)
(1.04829 0.0361306 0)
(1.03929 0.0425723 0)
(1.02737 0.0473815 0)
(1.01261 0.0490296 0)
(0.997879 0.0463761 0)
(0.986373 0.0408259 0)
(0.978196 0.034187 0)
(0.972598 0.0274642 0)
(0.968906 0.0211749 0)
(0.966576 0.0155526 0)
(0.965188 0.0106655 0)
(0.96438 0.00649106 0)
(0.95339 0.00294984 0)
(0.497599 0.0003743 0)
(0.567114 0.000706322 0)
(1.07938 0.00792767 0)
(1.07907 0.0142841 0)
(1.07677 0.0216156 0)
(1.0729 0.0298304 0)
(1.06687 0.0386292 0)
(1.0581 0.047424 0)
(1.04611 0.0552635 0)
(1.03065 0.060786 0)
(1.01197 0.0622267 0)
(0.993643 0.0584494 0)
(0.979422 0.0513223 0)
(0.969289 0.0429883 0)
(0.962295 0.034591 0)
(0.957636 0.0267217 0)
(0.954666 0.0196574 0)
(0.952883 0.0134949 0)
(0.951854 0.00822156 0)
(0.940788 0.00373884 0)
(0.4903 0.000475131 0)
(0.58124 0.00102043 0)
(1.10133 0.0110742 0)
(1.10034 0.0197984 0)
(1.09682 0.0297182 0)
(1.09102 0.0406012 0)
(1.0823 0.0519123 0)
(1.07008 0.062776 0)
(1.054 0.0719685 0)
(1.03402 0.0779134 0)
(1.01059 0.0786829 0)
(0.988063 0.0733132 0)
(0.970691 0.0642405 0)
(0.95823 0.0539141 0)
(0.949496 0.0435579 0)
(0.943557 0.0338091 0)
(0.939685 0.0249831 0)
(0.937312 0.0172136 0)
(0.935941 0.0105125 0)
(0.92475 0.00478958 0)
(0.480993 0.000611076 0)
(0.602033 0.00162334 0)
(1.13217 0.0165716 0)
(1.12971 0.0289248 0)
(1.12372 0.0425502 0)
(1.11442 0.0568877 0)
(1.1013 0.071046 0)
(1.08402 0.0838606 0)
(1.06246 0.0939278 0)
(1.03688 0.0995949 0)
(1.00792 0.098933 0)
(0.980697 0.0913561 0)
(0.95981 0.0799549 0)
(0.944678 0.0673987 0)
(0.933815 0.0548995 0)
(0.926155 0.0430576 0)
(0.920926 0.0321747 0)
(0.917559 0.0224105 0)
(0.91555 0.0138262 0)
(0.904076 0.00636967 0)
(0.468871 0.000820642 0)
(0.635058 0.00331281 0)
(1.17733 0.0291629 0)
(1.17068 0.0468124 0)
(1.15903 0.0649118 0)
(1.14316 0.0827291 0)
(1.12303 0.099105 0)
(1.09866 0.112797 0)
(1.0702 0.122475 0)
(1.03809 0.126608 0)
(1.0031 0.12341 0)
(0.970934 0.112865 0)
(0.946388 0.0987597 0)
(0.928388 0.0838649 0)
(0.915079 0.069269 0)
(0.905218 0.0554588 0)
(0.897976 0.0426141 0)
(0.89282 0.0308457 0)
(0.889349 0.020095 0)
(0.876975 0.0102102 0)
(0.453057 0.00135165 0)
(0.684923 0.0196153 2.98059e-19)
(1.24201 0.0640214 2.77536e-19)
(1.22345 0.0838743 -9.52273e-20)
(1.20066 0.103832 0)
(1.17463 0.122588 -2.15285e-33)
(1.14518 0.138781 3.07508e-20)
(1.11225 0.151296 -5.08767e-20)
(1.07593 0.158959 0)
(1.03662 0.160317 9.48401e-34)
(0.995063 0.15368 -5.36749e-20)
(0.957602 0.13967 0)
(0.929091 0.122746 -5.94516e-20)
(0.907843 0.105706 -1.724e-19)
(0.891565 0.0894499 -8.04928e-20)
(0.878806 0.0744677 -2.37054e-20)
(0.868578 0.0608692 -1.396e-20)
(0.86022 0.0491748 0)
(0.853222 0.0392148 9.71509e-21)
(0.838128 0.0311364 1.1449e-20)
(0.431772 0.0124903 2.02533e-19)
(0.720492 0.0602426 2.73378e-19)
(1.29789 0.127576 1.09412e-21)
(1.26947 0.14295 2.78662e-20)
(1.23738 0.159894 0)
(1.20258 0.175926 -1.16704e-19)
(1.1648 0.189625 -1.27381e-19)
(1.12384 0.199717 -5.32203e-20)
(1.07974 0.204843 -1.75047e-19)
(1.0328 0.203376 0)
(0.983675 0.19356 2.28758e-19)
(0.939411 0.176504 2.18833e-19)
(0.905428 0.15732 6.30604e-20)
(0.8797 0.138885 2.22164e-19)
(0.85951 0.122069 3.05302e-19)
(0.843108 0.10718 0)
(0.829363 0.0945813 4.22975e-19)
(0.817534 0.084321 6.06353e-19)
(0.807095 0.0768509 6.72551e-19)
(0.790775 0.0714057 -7.61948e-19)
(0.408106 0.0355653 -1.30338e-20)
(0.735073 0.104033 0)
(1.33368 0.20436 6.43643e-20)
(1.3013 0.214364 0)
(1.26401 0.226043 -1.89155e-19)
(1.22327 0.237424 0)
(1.17911 0.247124 -2.64529e-19)
(1.13152 0.253583 1.11599e-19)
(1.08063 0.255235 -3.65227e-19)
(1.02681 0.250247 -2.5366e-21)
(0.970795 0.236723 1.20067e-19)
(0.920531 0.21635 4.69207e-19)
(0.882055 0.194885 2.31453e-22)
(0.853025 0.175224 -1.58611e-19)
(0.830382 0.158033 -2.79754e-19)
(0.812233 0.143452 3.29099e-19)
(0.797376 0.131524 -5.79528e-19)
(0.784971 0.122169 -7.60976e-20)
(0.774416 0.115447 0)
(0.758398 0.11029 2.48598e-21)
(0.393149 0.0561171 0)
(0.745983 0.146498 1.08569e-18)
(1.35609 0.280641 -5.23686e-19)
(1.32156 0.287035 -3.37469e-19)
(1.28121 0.294839 9.81689e-20)
(1.23655 0.302296 -1.60072e-19)
(1.18769 0.308027 5.60093e-19)
(1.13474 0.310688 2.35431e-19)
(1.07799 0.308547 0)
(1.01799 0.299678 -6.34465e-19)
(0.955687 0.282034 0)
(0.9001 0.257901 -2.47198e-19)
(0.857974 0.233711 -2.89583e-19)
(0.826629 0.212321 -1.6906e-19)
(0.80261 0.194173 -1.99346e-19)
(0.783756 0.179143 0)
(0.768649 0.166988 0)
(0.756318 0.157549 -4.87731e-19)
(0.746002 0.150671 9.55919e-20)
(0.730393 0.145027 -5.61271e-20)
(0.379549 0.0742639 -6.34617e-20)
(0.754021 0.187498 -6.6085e-19)
(1.37055 0.355375 0)
(1.33439 0.359149 8.16285e-19)
(1.29172 0.363987 3.05388e-19)
(1.24404 0.368079 3.47386e-19)
(1.19142 0.370326 0)
(1.13399 0.369399 2.43956e-19)
(1.07213 0.363521 4.09482e-19)
(1.00656 0.350647 3.32805e-19)
(0.938493 0.328605 5.46719e-19)
(0.8781 0.300227 0)
(0.832898 0.272708 -6.14554e-19)
(0.799853 0.248918 -3.5788e-19)
(0.775034 0.229112 -2.07813e-19)
(0.755962 0.212926 1.23609e-18)
(0.740989 0.199957 1.45395e-19)
(0.728988 0.189783 6.87431e-19)
(0.719071 0.182362 -3.25134e-18)
(0.703986 0.175805 1.90687e-18)
(0.366643 0.0903044 -2.25721e-18)
(0.760325 0.227078 -5.92746e-19)
(1.3796 0.427734 1.39868e-19)
(1.34204 0.429683 -1.19197e-19)
(1.29743 0.43214 -4.09847e-19)
(1.24722 0.433505 -3.5213e-19)
(1.1914 0.432771 2.81572e-21)
(1.13005 0.428632 -2.61058e-19)
(1.06359 0.419229 4.30598e-19)
(0.992856 0.402422 -7.09401e-19)
(0.919326 0.375816 0)
(0.854394 0.342736 -2.84987e-19)
(0.806418 0.311231 -8.39562e-22)
(0.772017 0.284376 -3.81888e-19)
(0.746732 0.262232 0)
(0.727734 0.244314 -2.62566e-19)
(0.713143 0.229973 -6.16066e-19)
(0.701632 0.21883 1.63949e-18)
(0.692288 0.21043 -1.61428e-18)
(0.677867 0.202757 2.26949e-18)
(0.353683 0.104316 -2.31415e-18)
(0.765187 0.265436 -6.22316e-21)
(1.38509 0.497646 -1.40476e-19)
(1.34609 0.498254 -4.88369e-19)
(1.29972 0.498773 2.10375e-19)
(1.24725 0.497903 -1.85098e-19)
(1.18852 0.494653 0)
(1.12364 0.487655 -2.67559e-19)
(1.05293 0.475049 -4.55733e-19)
(0.977274 0.454477 -3.74563e-19)
(0.89838 0.423265 0)
(0.828909 0.385079 -2.97823e-19)
(0.77822 0.349008 -3.46118e-19)
(0.742602 0.318414 4.04916e-19)
(0.717084 0.293278 -2.38858e-19)
(0.698366 0.273106 -1.1068e-18)
(0.684326 0.257033 6.51983e-19)
(0.673529 0.244378 1.92871e-19)
(0.66485 0.234903 0)
(0.651197 0.226057 -2.12865e-18)
(0.340433 0.116315 -7.56922e-20)
(0.769334 0.302677 -7.78167e-20)
(1.38796 0.565083 1.44118e-19)
(1.3476 0.564632 2.58002e-19)
(1.29956 0.563568 6.79732e-19)
(1.24498 0.56088 -7.67887e-19)
(1.18362 0.555491 6.65936e-19)
(1.11543 0.546013 5.70591e-19)
(1.0407 0.530568 -7.27723e-19)
(0.960204 0.50654 2.08735e-19)
(0.87589 0.470786 -1.31972e-18)
(0.801646 0.427224 -3.21909e-19)
(0.74806 0.385962 0)
(0.711231 0.350895 4.28731e-19)
(0.685572 0.322185 4.97559e-19)
(0.66732 0.299192 5.84946e-19)
(0.654034 0.280928 -6.85726e-19)
(0.644063 0.266618 -2.0069e-19)
(0.636255 0.25567 2.38936e-19)
(0.623466 0.245515 0)
(0.32702 0.126401 -1.60684e-19)
(0.772965 0.338795 7.76755e-19)
(1.3891 0.630046 -5.86648e-19)
(1.34733 0.628753 -2.70538e-19)
(1.29768 0.626418 4.71869e-19)
(1.2411 0.622165 -3.97659e-19)
(1.17727 0.614901 -7.62301e-21)
(1.10598 0.603366 -6.11521e-19)
(1.02738 0.585451 -2.5985e-19)
(0.942154 0.558349 -6.41417e-19)
(0.852174 0.518331 3.6925e-22)
(0.772688 0.469223 -1.01688e-18)
(0.71579 0.422204 7.86016e-19)
(0.677569 0.38197 -4.52488e-19)
(0.651819 0.348956 5.2505e-19)
(0.634201 0.322579 0)
(0.621884 0.30167 -3.56971e-19)
(0.612959 0.285421 -3.54338e-21)
(0.606189 0.272853 -9.91477e-19)
(0.594503 0.261137 -1.4725e-19)
(0.313109 0.134542 0)
(0.77567 0.373427 0)
(1.38887 0.692581 -6.22459e-19)
(1.34576 0.690503 -5.53649e-19)
(1.29458 0.687107 -4.93324e-19)
(1.23613 0.681524 -4.35615e-19)
(1.16997 0.67278 0)
(1.09578 0.65946 -3.12187e-19)
(1.01348 0.639491 -2.56066e-21)
(0.923517 0.60983 1.36762e-18)
(0.82761 0.565965 -1.85255e-19)
(0.742148 0.511336 -7.25023e-19)
(0.681285 0.457922 4.17281e-19)
(0.641328 0.411653 1.70021e-21)
(0.615498 0.373507 5.52466e-19)
(0.598715 0.343105 3.21536e-19)
(0.587605 0.319211 -7.54541e-19)
(0.579996 0.300567 8.79978e-19)
(0.57449 0.286217 2.56638e-19)
(0.564175 0.272809 1.06645e-18)
(0.298637 0.140721 -2.7672e-18)
(0.778635 0.40762 1.57961e-19)
(1.38765 0.752774 -3.1214e-19)
(1.34324 0.750017 2.68146e-19)
(1.29061 0.745604 5.07706e-19)
(1.2304 0.738885 0)
(1.16208 0.728861 -3.77892e-19)
(1.0852 0.714136 1.00882e-18)
(0.999382 0.692525 5.83024e-19)
(0.904806 0.660784 0)
(0.802611 0.6137 -2.59701e-18)
(0.71033 0.553779 1.93357e-18)
(0.644468 0.493499 0)
(0.602192 0.440197 5.03629e-19)
(0.576179 0.395986 4.48526e-21)
(0.560475 0.360819 -9.9971e-19)
(0.5509 0.333431 3.93369e-19)
(0.544983 0.312099 0)
(0.541017 0.295765 1.33377e-18)
(0.53227 0.280727 0)
(0.284051 0.14522 -1.24939e-18)
(0.781246 0.44061 -1.64029e-19)
(1.38569 0.810411 -3.11048e-19)
(1.34 0.807131 2.89758e-19)
(1.28601 0.801845 0)
(1.22422 0.794094 -4.67674e-19)
(1.1539 0.783007 0)
(1.07456 0.767093 -1.0534e-18)
(0.985513 0.744299 -2.98032e-19)
(0.88635 0.711144 2.53264e-19)
(0.777661 0.661663 -1.28228e-18)
(0.677528 0.597042 2.05438e-19)
(0.605238 0.529627 0)
(0.559646 0.468122 -1.06603e-18)
(0.533294 0.416424 -6.29301e-21)
(0.519101 0.37539 0)
(0.51173 0.343807 -4.54905e-21)
(0.507934 0.31973 1.16533e-18)
(0.505926 0.301253 -1.09244e-18)
(0.499102 0.284537 3.20428e-19)
(0.269568 0.148007 0)
(0.78339 0.472186 0)
(1.38312 0.865797 -3.15589e-19)
(1.33617 0.861915 -2.86679e-19)
(1.28096 0.855785 -4.01212e-21)
(1.21772 0.847085 -2.35626e-19)
(1.1457 0.835015 -8.49632e-19)
(1.06414 0.818218 3.78514e-19)
(0.972133 0.794686 -3.27353e-19)
(0.868635 0.760776 1.09674e-18)
(0.75322 0.709879 -2.05355e-18)
(0.644243 0.641465 -3.88671e-21)
(0.563713 0.566877 -5.02662e-19)
(0.513221 0.495831 1.6918e-18)
(0.486118 0.434721 8.6043e-21)
(0.474032 0.386384 -7.10645e-19)
(0.469874 0.349967 -1.22906e-18)
(0.469254 0.322771 0)
(0.469753 0.302517 0)
(0.465252 0.28446 3.21124e-19)
(0.255937 0.149792 -1.78247e-19)
(0.785749 0.502745 -1.63456e-19)
(1.37993 0.918748 6.55451e-19)
(1.3319 0.914268 3.03705e-19)
(1.27556 0.907325 0)
(1.21104 0.897796 -3.87396e-21)
(1.13756 0.884879 -8.76736e-19)
(1.05404 0.867359 9.81546e-19)
(0.959462 0.843389 1.36159e-18)
(0.852032 0.809333 1.44997e-18)
(0.729947 0.758245 -1.70088e-18)
(0.611114 0.687544 -1.66368e-18)
(0.520058 0.606221 1.34897e-18)
(0.462203 0.524347 0)
(0.433253 0.45103 -3.25772e-19)
(0.424288 0.39273 -7.28142e-19)
(0.425414 0.350207 -8.25739e-19)
(0.429711 0.32025 -9.35389e-19)
(0.433818 0.298935 2.64675e-19)
(0.432141 0.280479 -1.61899e-19)
(0.244457 0.151464 -9.0306e-21)
(0.787457 0.532393 0)
(1.37624 0.969334 0)
(1.32727 0.964131 7.02826e-21)
(1.26991 0.956417 0)
(1.20431 0.946104 7.63584e-19)
(1.12958 0.932395 6.78459e-19)
(1.04451 0.914375 0)
(0.947676 0.890308 1.74768e-19)
(0.836708 0.856709 2.45513e-18)
(0.708268 0.806624 -3.90226e-18)
(0.578911 0.735523 0)
(0.474789 0.648918 -8.76152e-19)
(0.405896 0.555111 8.7187e-21)
(0.372707 0.465619 1.34698e-20)
(0.367885 0.392719 7.62938e-19)
(0.378035 0.341772 -3.77741e-22)
(0.391166 0.309608 -1.83238e-18)
(0.401186 0.289542 5.13496e-19)
(0.403097 0.273362 1.43624e-19)
(0.237611 0.154435 0)
(0.788535 0.560719 4.69585e-19)
(1.37211 1.01749 3.38633e-19)
(1.32228 1.01154 6.23804e-19)
(1.26414 1.00301 -1.15973e-18)
(1.1976 0.991944 1.31476e-18)
(1.12181 0.977547 0)
(1.03551 0.959142 6.43667e-19)
(0.936859 0.935211 -3.76791e-19)
(0.822912 0.902676 6.86672e-21)
(0.688695 0.854788 2.81163e-19)
(0.548496 0.785541 2.19002e-18)
(0.428922 0.696138 -3.13804e-19)
(0.343864 0.590544 -1.0454e-18)
(0.301274 0.479916 -3.61019e-19)
(0.300561 0.383875 3.74311e-19)
(0.326396 0.318589 1.28944e-21)
(0.357121 0.284836 4.15575e-19)
(0.378841 0.271445 -9.58401e-19)
(0.385809 0.26424 1.02726e-18)
(0.241749 0.162872 1.59258e-19)
(0.788898 0.587941 -1.56427e-19)
(1.36752 1.06319 1.73164e-19)
(1.317 1.05646 1.41866e-20)
(1.25819 1.04712 -5.85827e-19)
(1.19099 1.03537 -2.64731e-19)
(1.11436 1.02037 -1.25887e-18)
(1.02703 1.00159 2.17721e-19)
(0.927012 0.977975 -1.59331e-18)
(0.810744 0.946939 -2.75796e-18)
(0.67153 0.902322 -2.36192e-18)
(0.52098 0.83744 0)
(0.384006 0.749007 -1.36244e-18)
(0.276421 0.634126 1.50401e-18)
(0.214855 0.497823 0)
(0.213718 0.363968 -8.05055e-19)
(0.265244 0.268907 3.691e-19)
(0.334347 0.231469 -3.85092e-19)
(0.382574 0.237381 -3.62828e-19)
(0.398389 0.255718 -6.16205e-19)
(0.270081 0.184679 -4.59197e-19)
(0.789773 0.614266 1.56101e-19)
(1.36251 1.10647 -1.84436e-19)
(1.31143 1.09885 -4.7118e-19)
(1.25216 1.08868 -7.57708e-19)
(1.18452 1.07631 5.68053e-19)
(1.10727 1.06083 -7.77679e-19)
(1.01912 1.04173 7.00691e-19)
(0.918204 1.01855 -1.6746e-18)
(0.800208 0.989262 -1.6437e-18)
(0.657029 0.948818 2.50436e-18)
(0.497115 0.890632 4.87697e-18)
(0.342133 0.808091 0)
(0.205735 0.689984 0)
(0.109765 0.527724 -4.19667e-19)
(0.0914048 0.334962 0)
(0.177965 0.170731 6.78777e-19)
(0.33384 0.11301 5.91096e-19)
(0.453947 0.167826 0)
(0.484204 0.255158 0)
(0.349058 0.236936 2.17211e-19)
(0.789537 0.638879 -1.49661e-19)
(1.35719 1.14731 -1.55052e-19)
(1.30565 1.13882 -3.28433e-19)
(1.24608 1.12779 6.12071e-19)
(1.17815 1.11479 5.85839e-19)
(1.10048 1.09884 9.3714e-19)
(1.01172 1.07941 -9.82745e-19)
(0.910285 1.05678 2.67636e-21)
(0.791262 1.02955 -9.54258e-21)
(0.645212 0.993846 -9.37351e-21)
(0.477755 0.944447 2.52448e-18)
(0.305809 0.872982 0)
(0.136609 0.761819 1.57982e-18)
(-0.0134412 0.583848 9.68446e-19)
(-0.0909451 0.312696 1.8301e-18)
(0.0125505 -0.0162998 3.65481e-19)
(0.376222 -0.178336 3.36092e-20)
(0.732978 0.00938014 -7.91995e-21)
(0.737226 0.293203 0)
(0.503364 0.370938 -1.66863e-19)
(0.789843 0.662877 2.84457e-19)
(1.35169 1.18572 0)
(1.29991 1.17647 -3.22748e-19)
(1.24005 1.16452 4.72758e-19)
(1.17185 1.15085 -5.93283e-19)
(1.09386 1.1344 -1.24102e-18)
(1.0048 1.11445 2.03898e-18)
(0.903247 1.09238 -1.27319e-19)
(0.783703 1.06723 0)
(0.635952 1.03675 -2.81102e-18)
(0.463096 0.997766 -5.55668e-18)
(0.277273 0.942357 2.12372e-19)
(0.0762382 0.851014 2.26125e-18)
(-0.143867 0.6843 0)
(-0.361433 0.351783 1.36313e-18)
(-0.432434 -0.261488 0)
(-0.0015619 -0.606973 0)
(0.895588 -0.0605286 7.42357e-19)
(1.13851 0.520397 0)
(0.872 0.666276 -9.64483e-20)
(0.78895 0.684281 2.80419e-19)
(1.34614 1.22181 0)
(1.29425 1.21187 -4.84046e-19)
(1.23418 1.19926 0)
(1.16565 1.18479 2.94237e-19)
(1.08743 1.16788 0)
(0.998496 1.14765 1.2293e-19)
(0.896805 1.12601 2.34214e-19)
(0.77712 1.10277 2.05531e-19)
(0.628944 1.07766 -3.10611e-18)
(0.453182 1.05 1.72211e-19)
(0.257943 1.0144 1.68553e-18)
(0.0320669 0.956086 2.22985e-18)
(-0.255466 0.846693 2.85195e-19)
(-0.669967 0.630779 1.1589e-18)
(-1.21687 0.402066 0)
(-1.20616 0.985516 -2.56083e-18)
(-0.370163 1.94882 1.94248e-18)
(0.0236198 1.95959 -1.39266e-18)
(-0.204936 2.34741 6.68802e-19)
(0.786942 0.70411 -2.05301e-19)
(1.34029 1.25614 -4.7275e-19)
(1.28844 1.24536 0)
(1.2282 1.23242 1.42113e-20)
(1.15927 1.21715 -7.45113e-19)
(1.08089 1.19986 2.11401e-18)
(0.992973 1.18019 7.81055e-19)
(0.891403 1.15913 0)
(0.772142 1.13771 1.43351e-18)
(0.624627 1.11813 -1.70285e-19)
(0.448205 1.10332 0)
(0.24877 1.09125 0)
(0.0116824 1.07604 2.02796e-18)
(-0.303014 1.0535 -8.7754e-19)
(-0.76768 1.05814 -1.27082e-18)
(-1.32823 1.36057 0)
(-1.56595 2.19276 -3.81504e-19)
(-1.11002 2.91455 6.66416e-19)
(-0.694747 3.30468 3.60496e-19)
(-0.465865 3.37414 2.25029e-19)
(0.784618 0.722071 1.22977e-19)
(1.33391 1.28858 5.4503e-19)
(1.28237 1.27707 -2.50234e-19)
(1.22212 1.26349 -3.17687e-19)
(1.15333 1.24761 0)
(1.07501 1.22998 1.4366e-18)
(0.988172 1.21066 1.17738e-18)
(0.887142 1.19076 -1.20278e-19)
(0.768274 1.17193 2.1034e-19)
(0.622272 1.15788 3.0058e-18)
(0.44861 1.15481 2.85817e-18)
(0.252008 1.16588 1.91581e-18)
(0.0196027 1.19462 2.04309e-18)
(-0.276697 1.25989 -2.07508e-18)
(-0.63887 1.42099 -1.90998e-18)
(-0.989466 1.81827 0)
(-1.14349 2.37278 0)
(-0.957796 2.84922 1.1755e-19)
(-0.701661 2.95977 0)
(-0.534781 3.04739 1.22223e-19)
(0.782652 0.741449 0)
(1.32682 1.31833 0)
(1.2762 1.30632 0)
(1.21546 1.29219 -7.56822e-20)
(1.1468 1.27635 -6.34084e-19)
(1.06947 1.2589 1.00785e-18)
(0.983244 1.23952 7.89704e-19)
(0.883656 1.22039 -1.19343e-19)
(0.767629 1.2038 1.86511e-18)
(0.624193 1.1965 -2.52458e-20)
(0.455341 1.20598 5.68817e-18)
(0.268007 1.23793 -2.15564e-19)
(0.0537279 1.30067 2.49511e-19)
(-0.201033 1.42364 2.88922e-19)
(-0.457764 1.63615 3.49409e-21)
(-0.63532 1.99579 4.24028e-20)
(-0.688181 2.36937 -1.57939e-18)
(-0.639139 2.63223 -4.54416e-19)
(-0.50701 2.77855 1.48505e-19)
(-0.420282 2.85707 -1.90931e-19)
(0.663891 0.674455 -3.31092e-20)
(1.32044 1.34542 0)
(1.27029 1.33419 4.1201e-19)
(1.20999 1.32015 7.33532e-19)
(1.14061 1.30441 -1.16145e-18)
(1.06371 1.28665 -1.03059e-18)
(0.97948 1.26687 -8.56125e-19)
(0.881076 1.2492 1.51955e-18)
(0.767908 1.23611 -1.53964e-18)
(0.630878 1.23336 0)
(0.473785 1.25264 2.7334e-18)
(0.306948 1.30212 -1.51031e-18)
(0.131094 1.38916 0)
(-0.0658697 1.53797 2.81368e-19)
(-0.238591 1.75923 5.92137e-19)
(-0.346292 2.06133 -5.69283e-19)
(-0.403435 2.35031 5.90242e-19)
(-0.419317 2.53314 2.78779e-19)
(-0.357598 2.66023 2.49369e-19)
(-0.308992 2.74641 4.07814e-19)
(0.857184 0.85367 1.51229e-19)
(1.31497 1.38214 0)
(1.25989 1.37552 -3.53729e-19)
(1.20049 1.36393 -6.49378e-19)
(1.13181 1.34844 1.07618e-18)
(1.05488 1.32899 9.55913e-19)
(0.969313 1.31037 1.1255e-18)
(0.873253 1.29375 1.17264e-19)
(0.763325 1.28393 1.58671e-18)
(0.630325 1.28978 2.73709e-18)
(0.481698 1.32663 1.66643e-19)
(0.333371 1.40302 1.39276e-18)
(0.190778 1.51789 2.2977e-19)
(0.0749103 1.6817 -2.58457e-19)
(0.00215412 1.91378 -5.16308e-19)
(-0.0335044 2.1984 4.81702e-19)
(-0.094285 2.39788 -4.97235e-19)
(-0.138896 2.49369 -2.53923e-19)
(-0.13396 2.59835 -2.02894e-19)
(-0.193635 2.69445 -2.42626e-20)
(0.854686 0.855312 0)
(1.31013 1.41154 -5.19994e-20)
(1.25582 1.40641 5.80738e-20)
(1.19404 1.39267 6.15382e-20)
(1.12454 1.37454 6.58693e-19)
(1.04768 1.35434 -9.06917e-19)
(0.962197 1.33621 -7.07529e-19)
(0.865443 1.3213 1.11321e-19)
(0.753226 1.3147 -1.71293e-18)
(0.621461 1.32339 -3.37105e-20)
(0.475949 1.36987 -5.26115e-18)
(0.338206 1.45861 1.93184e-19)
(0.211831 1.58705 -2.19546e-19)
(0.119431 1.76892 -2.32258e-19)
(0.076643 2.00558 3.15815e-20)
(0.0917328 2.24269 -1.74789e-20)
(0.0546639 2.41119 7.90215e-19)
(0.00544983 2.48647 3.71487e-19)
(-0.010289 2.58122 -8.00711e-20)
(-0.0790937 2.6707 -1.08378e-19)
(0.822787 0.844732 -5.82075e-20)
(1.30565 1.44597 -3.14626e-19)
(1.24912 1.43547 1.60579e-19)
(1.18507 1.42085 2.34014e-19)
(1.11423 1.40254 0)
(1.03803 1.38258 -1.16713e-18)
(0.952423 1.37124 -9.87291e-19)
(0.85638 1.3601 1.05152e-19)
(0.747548 1.35739 -1.85909e-19)
(0.625027 1.37059 -2.63366e-18)
(0.495894 1.42345 -2.47825e-18)
(0.382351 1.51629 -1.65541e-18)
(0.286639 1.65025 -1.62443e-18)
(0.223257 1.83475 1.54062e-18)
(0.208815 2.04777 1.3147e-18)
(0.248399 2.24813 0)
(0.226234 2.42629 0)
(0.164822 2.52218 -7.82068e-20)
(0.11589 2.6193 0)
(0.0212742 2.681 -3.26714e-20)
(0.789457 0.844754 3.41324e-20)
(1.29686 1.48183 2.01908e-19)
(1.2414 1.46901 0)
(1.17684 1.4554 1.84855e-20)
(1.10519 1.43688 5.41485e-19)
(1.02678 1.4193 -1.61145e-18)
(0.944234 1.41038 -6.10938e-19)
(0.849881 1.39587 9.16892e-20)
(0.746558 1.38759 -1.35752e-18)
(0.633449 1.39833 1.44397e-19)
(0.522136 1.44531 0)
(0.433102 1.53547 0)
(0.370445 1.66528 -1.53379e-18)
(0.344391 1.83338 6.06047e-19)
(0.35853 2.01715 8.19387e-19)
(0.418585 2.20973 0)
(0.429271 2.42306 -1.36974e-19)
(0.365261 2.53973 -6.36073e-20)