/*--------------------------------*- C++ -*----------------------------------*\
  =========                 |
  \\      /  F ield         | OpenFOAM: The Open Source CFD Toolbox
   \\    /   O peration     | Website:  https://openfoam.org
    \\  /    A nd           | Version:  9
     \\/     M anipulation  |
\*---------------------------------------------------------------------------*/
FoamFile
{
    format      ascii;
    class       volScalarField;
    location    "5";
    object      p;
}
// * * * * * * * * * * * * * * * * * * * * * * * * * * * * * * * * * * * * * //

dimensions      [0 2 -2 0 0 0 0];

internalField   nonuniform List<scalar> 
8800
(
0.536332
0.488661
0.450823
0.422923
0.403072
0.389149
0.379339
0.37256
0.368209
0.366297
0.367161
0.370614
0.37635
0.384673
0.396454
0.41311
0.436744
0.469627
0.511554
0.568503
0.367714
0.375387
0.384949
0.389527
0.388869
0.38455
0.378852
0.37336
0.368849
0.365908
0.365372
0.367631
0.371678
0.376941
0.382754
0.388103
0.39086
0.38914
0.381782
0.371901
0.344776
0.351429
0.356817
0.360927
0.363798
0.365237
0.364897
0.363561
0.362099
0.361383
0.361873
0.363377
0.365128
0.366314
0.365991
0.363811
0.360351
0.355644
0.349762
0.346118
0.346659
0.349095
0.352623
0.355603
0.357754
0.358603
0.358957
0.35881
0.358366
0.35812
0.358516
0.359306
0.359929
0.359986
0.359562
0.358166
0.355697
0.352362
0.349215
0.348212
0.347355
0.347809
0.348774
0.349963
0.351242
0.352622
0.353548
0.353979
0.354121
0.354238
0.354568
0.354931
0.354986
0.354574
0.353528
0.352262
0.351103
0.350002
0.349317
0.349134
0.344585
0.344822
0.345355
0.345994
0.346645
0.347266
0.347841
0.348324
0.348683
0.349003
0.349338
0.349544
0.349542
0.349283
0.348887
0.34838
0.347819
0.347261
0.346898
0.346809
0.341367
0.341462
0.341698
0.342056
0.34251
0.343036
0.343586
0.344117
0.344617
0.345097
0.345482
0.345688
0.345666
0.345463
0.345142
0.34479
0.344464
0.344201
0.344052
0.34401
0.33732
0.337375
0.337496
0.337691
0.337962
0.338313
0.33874
0.33923
0.339765
0.340328
0.340814
0.341105
0.341215
0.341195
0.341098
0.340973
0.340849
0.340743
0.34068
0.340657
0.332946
0.332989
0.333086
0.33324
0.333459
0.33376
0.334155
0.334652
0.335248
0.33593
0.336561
0.336994
0.337229
0.337332
0.33735
0.337327
0.337288
0.337248
0.33722
0.337206
0.328364
0.328388
0.328467
0.328595
0.32879
0.329073
0.32947
0.330004
0.330687
0.331517
0.332326
0.332924
0.333305
0.333538
0.333665
0.333727
0.333752
0.333757
0.333754
0.333745
0.323557
0.323581
0.323649
0.323772
0.323968
0.324266
0.324701
0.32531
0.326124
0.327149
0.328184
0.328979
0.32953
0.329888
0.330112
0.330244
0.330318
0.330354
0.330366
0.330361
0.3185
0.31852
0.318593
0.318728
0.318947
0.319289
0.319797
0.320525
0.32152
0.3228
0.32412
0.325166
0.325903
0.326399
0.32672
0.326919
0.327036
0.327099
0.327126
0.327121
0.313163
0.313183
0.313266
0.313422
0.313683
0.314093
0.314713
0.315609
0.316847
0.31846
0.320142
0.321489
0.32245
0.323107
0.323538
0.32381
0.323972
0.324061
0.3241
0.324096
0.307473
0.307496
0.307598
0.30779
0.308111
0.308621
0.309394
0.310517
0.312076
0.314117
0.316256
0.317977
0.319213
0.320061
0.320621
0.320976
0.32119
0.32131
0.321362
0.321358
0.301349
0.301377
0.301505
0.301747
0.302152
0.302796
0.303773
0.305196
0.307173
0.309762
0.312481
0.31467
0.316245
0.317328
0.318044
0.318499
0.318775
0.318929
0.318997
0.318993
0.294673
0.294709
0.294872
0.295181
0.295699
0.296521
0.297768
0.299581
0.302099
0.305392
0.308843
0.311618
0.313615
0.314988
0.315897
0.316476
0.316826
0.317022
0.317108
0.317103
0.287286
0.287333
0.287545
0.287943
0.288611
0.289669
0.29127
0.293593
0.296808
0.300999
0.305375
0.308886
0.311409
0.313144
0.31429
0.315019
0.315462
0.31571
0.315818
0.315812
0.27898
0.279042
0.279318
0.279837
0.280705
0.282076
0.284144
0.287133
0.291249
0.296584
0.302127
0.306558
0.309734
0.311915
0.313358
0.314276
0.314832
0.315144
0.31528
0.315272
0.269468
0.269552
0.269917
0.2706
0.271738
0.273529
0.276217
0.280079
0.28536
0.292154
0.299161
0.304738
0.308728
0.311465
0.313274
0.314425
0.315122
0.315512
0.315682
0.315672
0.258361
0.258477
0.258966
0.259877
0.261387
0.263748
0.267269
0.272283
0.279074
0.287719
0.296556
0.30355
0.308545
0.311971
0.314237
0.315679
0.316553
0.317043
0.317254
0.317241
0.245112
0.245276
0.245944
0.24718
0.249215
0.252371
0.257027
0.263579
0.272331
0.283313
0.294411
0.303145
0.309374
0.313652
0.316488
0.318297
0.319395
0.32001
0.320276
0.320259
0.228941
0.229181
0.230113
0.231832
0.234638
0.238933
0.245171
0.253794
0.265087
0.278995
0.292849
0.303688
0.311425
0.31676
0.320314
0.322592
0.323979
0.324756
0.325091
0.32507
0.208672
0.209032
0.210379
0.21287
0.216874
0.222868
0.231362
0.242794
0.257362
0.274867
0.292015
0.305355
0.314911
0.321558
0.326033
0.328929
0.330702
0.331695
0.33212
0.332096
0.182382
0.182933
0.185031
0.188896
0.194898
0.203534
0.215306
0.230543
0.249266
0.271091
0.29206
0.308294
0.320006
0.328275
0.333955
0.337709
0.340046
0.341357
0.341912
0.341882
0.146598
0.147573
0.151367
0.157973
0.167495
0.180342
0.196874
0.217172
0.241012
0.26785
0.293101
0.312569
0.326764
0.337015
0.344289
0.3493
0.352567
0.354479
0.3553
0.355256
0.0945019
0.0974015
0.105772
0.118108
0.133843
0.153258
0.176416
0.203109
0.232942
0.265327
0.295159
0.318087
0.335021
0.347589
0.356905
0.363741
0.368641
0.371877
0.373507
0.373486
0.0144211
0.0286581
0.0480994
0.0706588
0.0958398
0.12404
0.155197
0.189098
0.225415
0.263689
0.298399
0.325124
0.345227
0.360653
0.372703
0.382264
0.389951
0.396024
0.400486
0.401774
-0.0699749
-0.0406285
-0.00921977
0.0238409
0.0587508
0.0956212
0.134554
0.175499
0.218292
0.262729
0.30292
0.334167
0.358127
0.377049
0.392374
0.405103
0.415859
0.425335
0.434317
0.436228
-0.130652
-0.0983658
-0.0590533
-0.0177928
0.0251309
0.0696551
0.11567
0.163063
0.211739
0.261646
0.306481
0.341281
0.367993
0.38908
0.406067
0.419973
0.431501
0.441161
0.448884
0.450742
-0.174988
-0.140622
-0.097313
-0.0510663
-0.00266773
0.047477
0.0989969
0.151609
0.205129
0.259532
0.3081
0.345597
0.374148
0.396407
0.414062
0.428258
0.439842
0.449421
0.457089
0.459031
-0.207335
-0.172492
-0.126606
-0.0771057
-0.0250428
0.0291056
0.0847876
0.141491
0.198886
0.256921
0.308486
0.348073
0.377971
0.401041
0.41912
0.433484
0.445037
0.45446
0.4618
0.463736
-0.232339
-0.197257
-0.149876
-0.0980383
-0.0431912
0.0140092
0.0728265
0.132607
0.192911
0.253699
0.307648
0.349
0.380086
0.40388
0.422342
0.436849
0.448414
0.457739
0.464885
0.466828
-0.252747
-0.217333
-0.168726
-0.115203
-0.0582834
0.0012358
0.0624425
0.124505
0.186919
0.249751
0.305669
0.348691
0.381013
0.405627
0.424571
0.439311
0.450946
0.460215
0.467205
0.469163
-0.270008
-0.234061
-0.184328
-0.129464
-0.0708784
-0.00958512
0.0533828
0.117036
0.180814
0.245005
0.302559
0.347311
0.381099
0.406778
0.426406
0.441527
0.45333
0.462621
0.469527
0.471513
-0.284734
-0.248305
-0.197648
-0.141505
-0.0815477
-0.0188463
0.0453996
0.110032
0.174461
0.239311
0.298204
0.344877
0.380539
0.40769
0.428318
0.444047
0.456158
0.46556
0.472419
0.474417
-0.297705
-0.260664
-0.209018
-0.15179
-0.0906636
-0.026829
0.0383143
0.103398
0.167767
0.232515
0.292399
0.341287
0.379412
0.408622
0.430712
0.447362
0.459976
0.469608
0.476503
0.478533
-0.309068
-0.271437
-0.218998
-0.16066
-0.0984809
-0.0336996
0.032035
0.0970965
0.160692
0.224462
0.284854
0.336302
0.377681
0.409765
0.43396
0.451972
0.465372
0.475399
0.482392
0.484456
-0.319375
-0.280988
-0.227714
-0.168364
-0.105194
-0.0396003
0.0265075
0.0911455
0.15326
0.215003
0.275209
0.329539
0.37518
0.411231
0.438414
0.458387
0.472941
0.483582
0.49078
0.492889
-0.328735
-0.289729
-0.235414
-0.1751
-0.11095
-0.0446144
0.0217195
0.085602
0.145538
0.204061
0.263048
0.320492
0.371618
0.413056
0.444398
0.467158
0.483366
0.494802
0.502415
0.504588
-0.337346
-0.297595
-0.242327
-0.181014
-0.115889
-0.0488103
0.0176729
0.0805632
0.137679
0.191615
0.247939
0.308492
0.366527
0.415182
0.452246
0.478856
0.497371
0.510055
0.517965
0.520368
-0.345387
-0.304923
-0.248609
-0.18625
-0.120126
-0.0522711
0.0143716
0.0761323
0.129872
0.177752
0.22947
0.292732
0.359287
0.41749
0.462238
0.494015
0.515617
0.529898
0.538449
0.541002
-0.353085
-0.311664
-0.254366
-0.190927
-0.123757
-0.055071
0.0118055
0.0724245
0.122357
0.162637
0.207273
0.272247
0.349078
0.41974
0.474565
0.513114
0.538805
0.555268
0.564739
0.567209
-0.360446
-0.318041
-0.259702
-0.19516
-0.126888
-0.0572782
0.00994272
0.0695169
0.115401
0.146581
0.181059
0.245923
0.335064
0.421357
0.489233
0.536597
0.567486
0.586677
0.597186
0.599286
-0.367518
-0.324151
-0.264723
-0.19904
-0.129618
-0.0589941
0.00874877
0.067465
0.109261
0.129986
0.150674
0.212522
0.315757
0.421784
0.506169
0.564776
0.602252
0.624429
0.63555
0.637036
-0.374538
-0.33005
-0.269507
-0.202652
-0.132031
-0.0603021
0.00815664
0.0663117
0.104168
0.113338
0.116031
0.171033
0.289553
0.420016
0.525174
0.598163
0.644174
0.669687
0.679493
0.678761
-0.381363
-0.335801
-0.274079
-0.206048
-0.134218
-0.0612821
0.00808502
0.0660284
0.10032
0.0971925
0.0773554
0.120307
0.253986
0.415636
0.546935
0.635571
0.691472
0.723129
0.729726
0.721081
-0.388259
-0.341471
-0.278465
-0.209283
-0.136257
-0.0620224
0.00846335
0.0665799
0.0978312
0.0818548
0.0335756
0.0561364
0.204929
0.407202
0.571514
0.676901
0.740317
0.783357
0.796453
0.777297
-0.395149
-0.347006
-0.282677
-0.21248
-0.138282
-0.0626302
0.00918542
0.0679433
0.0967893
0.0673125
-0.0173969
-0.0305452
0.131646
0.393834
0.597663
0.715315
0.769111
0.799212
0.806981
0.772434
-0.401789
-0.352149
-0.286566
-0.215637
-0.140239
-0.0630785
0.0101659
0.0701173
0.097465
0.0547117
-0.074309
-0.146865
0.0226864
0.366428
0.611624
0.729916
0.763266
0.749918
0.668792
0.612729
-0.407598
-0.356324
-0.289689
-0.21825
-0.141629
-0.0630706
0.0114935
0.0731792
0.10012
0.0449591
-0.136914
-0.309677
-0.163378
0.295754
0.620787
0.723944
0.722739
0.639582
0.51897
0.444114
-0.467713
-0.357356
-0.293184
-0.221041
-0.14349
-0.063634
0.0132601
0.0774136
0.105886
0.040098
-0.204561
-0.555187
-0.492175
0.117647
0.564411
0.637706
0.548369
0.434548
0.305641
0.235004
-0.378353
-0.359038
-0.298935
-0.225499
-0.146521
-0.0642065
0.0152103
0.082823
0.114092
0.0409928
-0.296078
-1.069
-1.29246
-0.358424
0.14652
0.106347
0.0133994
-0.0576877
-0.158389
-0.0469774
-0.410454
-0.367555
-0.304324
-0.230462
-0.150063
-0.0660429
0.0163865
0.0876068
0.124333
0.0555886
-0.336581
-1.41818
-1.93345
-0.949222
-0.360878
-0.358675
-0.409728
-0.467053
-0.5781
-0.41896
-0.42835
-0.379789
-0.312714
-0.237227
-0.154983
-0.0688631
0.0165734
0.0918442
0.135243
0.0743239
-0.363544
-1.67091
-2.32887
-1.41725
-0.916535
-0.820915
-0.870985
-0.929616
-1.08427
-0.878702
-0.445596
-0.392377
-0.32207
-0.244184
-0.159887
-0.0714911
0.0167986
0.0964423
0.147255
0.0996027
-0.343697
-1.71519
-2.42226
-1.64896
-1.27551
-1.21812
-1.32634
-1.44226
-1.65943
-1.52179
-0.461407
-0.405031
-0.332049
-0.251756
-0.165247
-0.0745032
0.0167827
0.101026
0.160067
0.131585
-0.263706
-1.50965
-2.15741
-1.64395
-1.45464
-1.51269
-1.70687
-1.9284
-2.274
-2.53211
-0.476427
-0.418252
-0.343067
-0.26048
-0.171672
-0.0784545
0.0159715
0.104773
0.172731
0.16629
-0.149563
-1.12836
-1.66467
-1.44454
-1.50396
-1.69711
-1.94133
-2.1716
-2.32197
-2.74207
-0.491987
-0.432442
-0.355396
-0.270625
-0.179523
-0.0837172
0.0138415
0.107461
0.184432
0.201968
-0.0146987
-0.67904
-1.11681
-1.18125
-1.43868
-1.81309
-2.10265
-2.13108
-2.16122
-2.24502
-0.508562
-0.447924
-0.3692
-0.282375
-0.188985
-0.0906067
0.0101155
0.108486
0.194253
0.236674
0.120768
-0.257913
-0.600136
-0.878865
-1.33989
-1.91211
-2.41282
-2.21894
-2.16018
-2.27638
-0.526869
-0.4651
-0.384731
-0.295891
-0.200243
-0.099323
0.0045552
0.107457
0.201465
0.265957
0.23594
0.0587056
-0.211047
-0.588961
-1.18906
-2.01668
-3.0399
-3.30674
-2.98202
-2.85308
-0.547539
-0.484421
-0.402317
-0.311432
-0.213551
-0.110079
-0.00319752
0.103713
0.205053
0.288808
0.319835
0.259824
0.0555148
-0.318924
-0.946859
-1.93683
-3.20698
-3.74256
-3.3867
-3.11312
-0.570898
-0.506269
-0.422264
-0.329241
-0.229093
-0.123208
-0.0134318
0.097507
0.205663
0.303946
0.371724
0.373996
0.238736
-0.0441671
-0.512499
-1.20094
-1.89125
-2.17631
-2.06138
-1.91305
-0.597024
-0.530827
-0.444744
-0.349475
-0.246977
-0.13851
-0.0258007
0.0885944
0.202438
0.312073
0.401807
0.440761
0.380751
0.233197
0.015917
-0.239817
-0.421127
-0.49322
-0.457767
-0.431867
-0.626142
-0.558234
-0.469761
-0.372054
-0.267119
-0.156202
-0.040855
0.0772265
0.196391
0.315383
0.420294
0.487388
0.492421
0.459585
0.408469
0.361835
0.360891
0.398029
0.428258
0.43568
-0.657962
-0.588228
-0.497172
-0.396988
-0.289503
-0.175866
-0.0576036
0.0639914
0.187533
0.314898
0.433015
0.52297
0.574394
0.604991
0.633475
0.670983
0.721204
0.772522
0.804514
0.811798
-0.691864
-0.620145
-0.526447
-0.423517
-0.313284
-0.196936
-0.0759095
0.0488676
0.176768
0.311591
0.440879
0.547871
0.628481
0.69306
0.753021
0.81269
0.871149
0.921114
0.95089
0.957552
-0.726528
-0.653261
-0.556913
-0.451095
-0.338039
-0.218917
-0.0950574
0.0327813
0.165166
0.306393
0.44436
0.561997
0.657398
0.736766
0.805664
0.867218
0.921276
0.965114
0.99269
0.999319
-0.761214
-0.686116
-0.587075
-0.478376
-0.362458
-0.240681
-0.114093
0.0168179
0.153585
0.300069
0.444144
0.56702
0.668284
0.75193
0.821404
0.879504
0.927783
0.966489
0.992547
0.999214
-0.793346
-0.71656
-0.615282
-0.503722
-0.385203
-0.260986
-0.131756
0.00218685
0.142529
0.293397
0.441202
0.566225
0.668421
0.751624
0.819378
0.874586
0.919426
0.955223
0.978556
0.985706
-0.819497
-0.742385
-0.63895
-0.524992
-0.404329
-0.278045
-0.14663
-0.0103379
0.13249
0.285658
0.434649
0.559594
0.660586
0.742074
0.807826
0.860902
0.903708
0.937885
0.960266
0.967411
-0.835964
-0.759757
-0.655097
-0.53954
-0.417362
-0.290036
-0.157581
-0.0202896
0.123348
0.276851
0.424484
0.547721
0.646128
0.725366
0.789094
0.840402
0.881738
0.914678
0.93647
0.943739
-0.838851
-0.763756
-0.659976
-0.54414
-0.422042
-0.295073
-0.163397
-0.0271653
0.1151
0.266448
0.410561
0.530375
0.625286
0.701761
0.763378
0.813096
0.85328
0.885184
0.906749
0.914263
-0.821836
-0.750531
-0.648954
-0.534783
-0.415159
-0.291805
-0.163248
-0.0306485
0.107489
0.253791
0.392282
0.506582
0.597101
0.67016
0.729373
0.777406
0.81647
0.847424
0.868961
0.876713
-0.777349
-0.71197
-0.616131
-0.507601
-0.394188
-0.276818
-0.155554
-0.0301215
0.100608
0.238699
0.368726
0.475155
0.559707
0.62822
0.684236
0.730084
0.767548
0.797916
0.819823
0.827636
-0.698328
-0.642398
-0.55567
-0.458153
-0.355804
-0.249606
-0.139433
-0.0249148
0.0947895
0.221161
0.339458
0.435355
0.511373
0.572997
0.623821
0.66596
0.700512
0.728405
0.749816
0.757919
-0.579452
-0.537633
-0.465027
-0.383972
-0.29869
-0.20878
-0.114109
-0.0144669
0.0905892
0.201733
0.305063
0.387517
0.45177
0.502812
0.544155
0.578466
0.606858
0.629156
0.644731
0.650086
-0.3992
-0.379046
-0.33623
-0.283116
-0.222914
-0.155388
-0.0808013
0.000937893
0.0897389
0.18544
0.274956
0.345911
0.400242
0.442284
0.474766
0.499432
0.518371
0.533915
0.5461
0.549833
-0.222074
-0.216547
-0.199168
-0.17353
-0.139103
-0.0954728
-0.0422305
0.0204847
0.0923234
0.172497
0.248621
0.308712
0.353785
0.387227
0.41184
0.429916
0.442758
0.450835
0.455184
0.456252
-0.101424
-0.0999854
-0.0942083
-0.0828405
-0.0650759
-0.0390913
-0.00357157
0.0421717
0.0980214
0.163055
0.226182
0.275995
0.312703
0.339232
0.357783
0.369982
0.377478
0.3819
0.384085
0.384423
-0.0282947
-0.028871
-0.0279059
-0.022968
-0.0127441
0.00388368
0.0281869
0.0613781
0.104054
0.155727
0.20696
0.247448
0.276838
0.297395
0.311225
0.320208
0.32567
0.328495
0.329481
0.329565
0.0135554
0.0132531
0.0136815
0.0163375
0.022489
0.0335318
0.0508026
0.0754207
0.108134
0.148828
0.189845
0.222352
0.245802
0.262098
0.272957
0.279765
0.28368
0.285669
0.286441
0.286549
0.0404411
0.0404177
0.0409425
0.0429624
0.0473181
0.0550473
0.0674038
0.0856368
0.110638
0.142505
0.175097
0.20102
0.219632
0.232395
0.240746
0.245947
0.248975
0.250539
0.251165
0.251263
0.0581573
0.0582193
0.0587147
0.0602658
0.0635095
0.0692578
0.0784822
0.0922302
0.111391
0.136236
0.161948
0.182472
0.197169
0.207213
0.213779
0.217856
0.220213
0.221429
0.22192
0.221997
0.0696454
0.0697502
0.070231
0.0714904
0.0739822
0.0783221
0.0852926
0.0957674
0.110523
0.129879
0.150096
0.166288
0.177879
0.185782
0.190929
0.194118
0.195968
0.196928
0.197321
0.197381
0.0767598
0.0768628
0.077279
0.0782882
0.0802315
0.0835731
0.0889116
0.0969472
0.10834
0.123415
0.139264
0.151997
0.161116
0.167326
0.171368
0.173871
0.17532
0.176072
0.176378
0.176423
0.0805865
0.0806762
0.0810193
0.0818202
0.0833341
0.0859169
0.0900339
0.0962352
0.105061
0.116801
0.129209
0.139202
0.14636
0.151234
0.154404
0.156366
0.157502
0.158089
0.15833
0.158364
0.0819053
0.0819792
0.082254
0.0828836
0.0840648
0.0860691
0.0892558
0.0940586
0.100907
0.110051
0.119753
0.127583
0.133197
0.137021
0.139505
0.14104
0.141926
0.142383
0.142569
0.142594
0.0812885
0.0813482
0.0815663
0.0820599
0.0829797
0.0845373
0.0870109
0.0907369
0.0960598
0.103186
0.110764
0.116893
0.121288
0.124279
0.126222
0.127423
0.128116
0.128472
0.128612
0.128631
0.0791748
0.0792217
0.0793924
0.0797774
0.0804938
0.0817044
0.0836258
0.0865227
0.0906631
0.0962151
0.102134
0.106923
0.110359
0.112699
0.11422
0.115158
0.115696
0.115973
0.116082
0.116096
0.0758991
0.0759363
0.0760704
0.076371
0.0769286
0.07787
0.079364
0.0816152
0.0848353
0.0891602
0.0937756
0.0975163
0.100203
0.102031
0.103218
0.103949
0.10437
0.104583
0.104667
0.104678
0.0717225
0.0717514
0.0718553
0.0720888
0.0725225
0.0732549
0.0744165
0.0761673
0.078673
0.0820415
0.0856409
0.0885587
0.0906538
0.0920794
0.0930039
0.0935723
0.093898
0.0940641
0.094129
0.0941369
0.0668451
0.0668675
0.0669485
0.0671302
0.0674675
0.0680363
0.0689379
0.0702978
0.0722459
0.0748661
0.0776673
0.0799391
0.0815701
0.0826799
0.0834001
0.0838443
0.0840992
0.0842281
0.0842779
0.0842837
0.0614234
0.0614408
0.0615036
0.0616443
0.0619052
0.0623462
0.0630466
0.0641032
0.0656155
0.0676494
0.0698275
0.0715937
0.0728609
0.073724
0.074284
0.0746278
0.0748233
0.0749214
0.0749588
0.0749632
0.0555806
0.0555937
0.0556418
0.0557503
0.055953
0.0562947
0.0568355
0.0576515
0.0588225
0.0603995
0.0620875
0.0634571
0.0644415
0.0651116
0.0655436
0.0658071
0.0659574
0.066033
0.0660616
0.0660647
0.0494103
0.0494204
0.0494573
0.0495403
0.049695
0.049957
0.0503744
0.0510041
0.0519069
0.0531233
0.0544247
0.0554811
0.0562392
0.0567526
0.0570855
0.0572908
0.0574069
0.0574647
0.0574864
0.0574888
0.042989
0.0429964
0.0430238
0.0430865
0.043204
0.0434041
0.0437233
0.0442061
0.0448979
0.0458292
0.0468257
0.0476329
0.0482105
0.0486032
0.048857
0.0490118
0.0491004
0.0491452
0.0491622
0.0491639
0.036373
0.0363786
0.0363991
0.0364469
0.0365361
0.0366867
0.0369268
0.0372902
0.0378115
0.0385144
0.039267
0.0398789
0.0403182
0.0406154
0.0408068
0.0409225
0.0409871
0.0410194
0.0410306
0.0410317
0.0296114
0.0296156
0.0296312
0.0296663
0.0297311
0.0298428
0.0300215
0.0302905
0.0306761
0.031196
0.0317528
0.0322035
0.0325263
0.0327427
0.0328808
0.0329664
0.0330149
0.0330384
0.0330466
0.0330471
0.0227411
0.0227433
0.0227533
0.0227776
0.0228245
0.0229048
0.0230315
0.0232223
0.0234966
0.0238661
0.0242606
0.0245788
0.0248057
0.0249593
0.0250582
0.0251173
0.0251498
0.0251651
0.025168
0.0251674
0.0157927
0.0157946
0.0158015
0.0158176
0.0158491
0.0159014
0.0159825
0.0161065
0.0162845
0.0165251
0.0167838
0.0169942
0.017145
0.017248
0.0173109
0.0173447
0.0173601
0.0173638
0.0173631
0.0173648
0.0087927
0.00879385
0.0087986
0.00880842
0.00882503
0.0088517
0.00889576
0.00896197
0.009057
0.00918511
0.00932273
0.00943283
0.00951103
0.0095618
0.00959604
0.00961752
0.00962846
0.00963116
0.00962974
0.0096301
0.00175955
0.00175769
0.00175457
0.00175294
0.00175375
0.00175783
0.00176594
0.00177728
0.00179366
0.00181674
0.0018461
0.00187763
0.0018977
0.00191363
0.00192373
0.00192754
0.00192791
0.00192757
0.00192729
0.0019281
-1.10813
-0.742561
-0.369646
-0.0709954
0.167845
0.361421
0.52282
0.66084
0.734834
0.707618
-0.452668
-0.230055
-0.0109271
0.175999
0.333319
0.465278
0.572749
0.650656
0.688662
0.689115
-0.0509798
0.085584
0.221534
0.34253
0.446315
0.53252
0.599829
0.646426
0.673642
0.680382
0.200491
0.28874
0.377911
0.4567
0.524645
0.581186
0.625425
0.65662
0.677032
0.684938
0.370032
0.426765
0.485084
0.539092
0.586892
0.627512
0.659399
0.681813
0.696158
0.70437
0.491097
0.530104
0.573092
0.614093
0.650145
0.679941
0.703077
0.719755
0.731437
0.741394
0.58295
0.613578
0.649062
0.68105
0.709953
0.735428
0.756997
0.774186
0.784432
0.796753
0.658573
0.688031
0.721881
0.754096
0.784371
0.811091
0.83293
0.849099
0.857999
0.872376
0.740584
0.777222
0.81635
0.852251
0.882913
0.908223
0.928786
0.943947
0.952872
0.968803
0.852065
0.89355
0.934449
0.968971
0.998408
1.02301
1.04262
1.05703
1.06706
1.08454
0.99703
1.03692
1.07344
1.10486
1.13058
1.15253
1.1712
1.18626
1.19849
1.21635
1.17129
1.20435
1.2305
1.25302
1.27337
1.29221
1.30986
1.32628
1.34183
1.35991
1.35989
1.37768
1.39357
1.41023
1.42631
1.44087
1.45386
1.46787
1.48511
1.50467
1.542
1.55292
1.56509
1.57598
1.58537
1.59493
1.60575
1.61731
1.62721
1.64239
1.75241
1.7545
1.73952
1.72457
1.71825
1.7239
1.74263
1.77302
1.80502
1.83571
2.05894
1.92198
1.84555
1.80301
1.78552
1.78974
1.81687
1.87302
1.97672
2.19209
0.432208
0.429126
0.423931
0.415085
0.403025
0.391542
0.382095
0.374872
0.369705
0.366596
0.366053
0.368329
0.37274
0.379108
0.387543
0.398177
0.410292
0.421344
0.427807
0.432044
0.348921
0.354959
0.363235
0.369565
0.373508
0.374338
0.372643
0.369606
0.366556
0.364339
0.363957
0.36576
0.368749
0.372115
0.374786
0.375409
0.373075
0.367833
0.360623
0.352522
0.345045
0.347078
0.351585
0.355632
0.358262
0.359825
0.360643
0.360553
0.359863
0.359264
0.359284
0.360003
0.361037
0.361732
0.361555
0.360454
0.358439
0.355193
0.350697
0.347119
0.347789
0.348208
0.349902
0.352163
0.354224
0.355858
0.356796
0.357144
0.357077
0.356888
0.357008
0.357558
0.358077
0.358163
0.35769
0.356543
0.354765
0.352643
0.350564
0.349489
0.346023
0.346131
0.346546
0.347232
0.347972
0.348798
0.349648
0.350328
0.350754
0.351015
0.351294
0.351585
0.351685
0.351482
0.350912
0.350182
0.349484
0.348828
0.348273
0.348048
0.343092
0.343151
0.34344
0.343923
0.344491
0.345097
0.345687
0.346218
0.346679
0.347086
0.347467
0.347784
0.34788
0.34774
0.347438
0.347006
0.346523
0.346053
0.345686
0.345533
0.339408
0.339434
0.339531
0.339728
0.340012
0.340387
0.340838
0.341341
0.341861
0.342386
0.342883
0.343216
0.34334
0.343297
0.343139
0.342929
0.342723
0.342545
0.34242
0.342369
0.335161
0.335182
0.335259
0.3354
0.335605
0.335886
0.336249
0.336696
0.337221
0.337814
0.338421
0.338894
0.339158
0.339252
0.339247
0.33919
0.339113
0.339035
0.338974
0.338946
0.33068
0.330689
0.33075
0.330862
0.33103
0.331273
0.331611
0.332061
0.332634
0.333332
0.33409
0.334713
0.335118
0.335348
0.335463
0.335507
0.335514
0.335504
0.335488
0.335477
0.325992
0.326
0.326044
0.326139
0.326294
0.326531
0.326877
0.327362
0.328014
0.328849
0.329797
0.330621
0.331193
0.331567
0.331795
0.331928
0.331999
0.332033
0.332044
0.332044
0.32106
0.321062
0.321111
0.321208
0.32137
0.321626
0.322013
0.322573
0.323349
0.324372
0.325567
0.326639
0.327405
0.327931
0.328273
0.328486
0.328613
0.328683
0.328716
0.328723
0.315871
0.315872
0.315922
0.31603
0.316216
0.316515
0.316974
0.317649
0.3186
0.319872
0.321385
0.322761
0.323771
0.324469
0.324933
0.325231
0.325413
0.325517
0.32557
0.325583
0.310366
0.310366
0.310425
0.310553
0.310778
0.311143
0.311707
0.312543
0.31373
0.315331
0.317248
0.319006
0.320304
0.321213
0.321823
0.322217
0.32246
0.322602
0.322674
0.322693
0.304472
0.304471
0.304543
0.304703
0.304984
0.305441
0.306149
0.307202
0.3087
0.310726
0.31316
0.315398
0.317055
0.318218
0.319002
0.31951
0.319825
0.32001
0.320105
0.320131
0.298088
0.298087
0.298179
0.298382
0.298738
0.299318
0.300218
0.301556
0.303461
0.306036
0.309127
0.311969
0.314074
0.315553
0.316551
0.317198
0.3176
0.317836
0.317958
0.317992
0.29108
0.291078
0.291196
0.291457
0.291915
0.292659
0.293812
0.295524
0.297956
0.301236
0.305163
0.308766
0.31143
0.313301
0.314563
0.315382
0.315891
0.31619
0.316345
0.316387
0.283264
0.283262
0.283416
0.283754
0.284347
0.28531
0.286797
0.288998
0.292114
0.296299
0.301287
0.305845
0.309207
0.311566
0.313155
0.314186
0.314828
0.315205
0.3154
0.315454
0.274397
0.274394
0.274598
0.275042
0.275817
0.277071
0.279001
0.281847
0.285853
0.2912
0.29753
0.303285
0.307517
0.310481
0.312477
0.313773
0.314578
0.315051
0.315296
0.315362
0.264146
0.264145
0.264417
0.265007
0.266032
0.267681
0.270207
0.273905
0.279072
0.285909
0.293933
0.301179
0.306491
0.310206
0.312708
0.314331
0.31534
0.315933
0.316238
0.316321
0.252052
0.252054
0.252426
0.253225
0.254598
0.256793
0.260129
0.264971
0.271663
0.280409
0.290555
0.299644
0.306283
0.310925
0.314053
0.316086
0.317352
0.318096
0.31848
0.318583
0.237452
0.237461
0.237986
0.239098
0.240976
0.243947
0.248413
0.254809
0.263513
0.274699
0.287477
0.298817
0.307078
0.312861
0.316769
0.319316
0.320908
0.321848
0.322334
0.322464
0.219356
0.219384
0.220167
0.221769
0.224408
0.228523
0.234612
0.24316
0.254528
0.268806
0.284803
0.298847
0.309062
0.316245
0.321131
0.32434
0.326359
0.327561
0.328191
0.32836
0.196224
0.19631
0.197565
0.19998
0.203833
0.209721
0.218221
0.229788
0.244675
0.262813
0.282658
0.299878
0.312408
0.321296
0.327423
0.331505
0.334113
0.335699
0.336553
0.336789
0.16551
0.165783
0.167985
0.171862
0.177834
0.186662
0.198842
0.214635
0.234079
0.256902
0.281203
0.302031
0.317229
0.328164
0.335873
0.341154
0.344635
0.346824
0.348058
0.348423
0.12247
0.123264
0.127746
0.134751
0.14489
0.15878
0.176509
0.198028
0.223139
0.2514
0.280637
0.305394
0.323542
0.336847
0.346533
0.353469
0.358305
0.361544
0.363521
0.364108
0.0585077
0.0611248
0.0717753
0.0861289
0.104395
0.126428
0.151921
0.180686
0.212419
0.246653
0.281069
0.309874
0.331107
0.346997
0.358993
0.368074
0.374922
0.380077
0.383635
0.384339
-0.0201369
-0.013697
0.00654898
0.0328701
0.0616269
0.0929148
0.126754
0.163083
0.201687
0.242273
0.282491
0.316201
0.341485
0.360997
0.376385
0.388735
0.398796
0.407136
0.412595
0.414857
-0.0985024
-0.0841327
-0.0531701
-0.0168682
0.0214517
0.0615519
0.103358
0.146836
0.19193
0.238528
0.284303
0.32267
0.351625
0.374223
0.392327
0.407097
0.419255
0.429314
0.436775
0.440803
-0.150969
-0.13585
-0.10034
-0.0577505
-0.0127038
0.0341177
0.0824408
0.132047
0.182769
0.234513
0.284874
0.326858
0.358431
0.382917
0.4023
0.417832
0.430349
0.440468
0.447883
0.45172
-0.189569
-0.174256
-0.135406
-0.0891152
-0.0399104
0.0115119
0.0646051
0.118925
0.17414
0.2301
0.28424
0.329129
0.36263
0.388336
0.408433
0.424345
0.43702
0.447148
0.454615
0.458514
-0.218103
-0.202951
-0.162585
-0.113805
-0.0615893
-0.00683607
0.0498211
0.107757
0.166452
0.225678
0.28276
0.329942
0.364983
0.391658
0.412305
0.428475
0.441236
0.451328
0.458825
0.462738
-0.240953
-0.225772
-0.184338
-0.133795
-0.0793671
-0.022044
0.0373462
0.0979916
0.159263
0.220909
0.280287
0.329443
0.365916
0.393549
0.414773
0.431246
0.44413
0.454239
0.461796
0.465721
-0.259881
-0.244657
-0.20216
-0.150204
-0.0940758
-0.0348119
0.0266402
0.0892973
0.1524
0.21572
0.276839
0.327784
0.365776
0.394536
0.416494
0.433396
0.446503
0.456695
0.464308
0.468255
-0.27602
-0.260598
-0.217174
-0.16396
-0.106414
-0.0455895
0.0174227
0.0814892
0.145718
0.209977
0.272303
0.324978
0.364745
0.394963
0.417951
0.435503
0.448977
0.459355
0.467057
0.471072
-0.289967
-0.274392
-0.229976
-0.175684
-0.116895
-0.0547998
0.00940329
0.074383
0.139101
0.203561
0.266516
0.320908
0.362861
0.395052
0.419516
0.438039
0.452087
0.462765
0.470613
0.474688
-0.302277
-0.286408
-0.241092
-0.185785
-0.125872
-0.0626929
0.00241943
0.0678972
0.132498
0.196357
0.259257
0.31535
0.360043
0.394935
0.421502
0.441449
0.456368
0.467529
0.475631
0.479823
-0.313236
-0.297065
-0.250872
-0.194549
-0.133622
-0.0694569
-0.00363792
0.0619921
0.125911
0.188305
0.250278
0.307957
0.356085
0.394635
0.424173
0.446177
0.46238
0.474255
0.482717
0.487033
-0.323227
-0.30663
-0.259616
-0.202225
-0.140314
-0.0752464
-0.00884339
0.0566833
0.119398
0.179404
0.239319
0.298258
0.35062
0.394082
0.427738
0.452667
0.470706
0.48362
0.492601
0.497118
-0.332336
-0.315346
-0.267371
-0.209029
-0.146113
-0.0801627
-0.0132465
0.0520095
0.113075
0.169715
0.226156
0.285706
0.343131
0.393076
0.432379
0.461369
0.481984
0.496372
0.506051
0.510801
-0.340831
-0.323449
-0.27446
-0.215099
-0.15116
-0.0843095
-0.0168873
0.0480073
0.107088
0.159383
0.210602
0.269655
0.332938
0.391274
0.438208
0.472725
0.496847
0.513266
0.523938
0.52894
-0.348744
-0.330937
-0.280968
-0.220574
-0.155573
-0.087777
-0.0197947
0.0447281
0.101597
0.148651
0.192583
0.24939
0.319169
0.38824
0.445274
0.487207
0.515974
0.535018
0.546987
0.552371
-0.356344
-0.337994
-0.287021
-0.225561
-0.159466
-0.0906621
-0.0220253
0.0422221
0.0967791
0.137799
0.17213
0.224162
0.30079
0.383388
0.453559
0.505021
0.539819
0.562224
0.575773
0.581634
-0.363556
-0.344758
-0.292736
-0.230167
-0.162935
-0.0930516
-0.0236563
0.0404902
0.0928055
0.127178
0.149404
0.193236
0.276464
0.375844
0.462562
0.526391
0.569115
0.595703
0.611182
0.617335
-0.370636
-0.351306
-0.298191
-0.234486
-0.166082
-0.0950536
-0.0247498
0.0394996
0.0898105
0.11717
0.124703
0.155787
0.244983
0.364245
0.471994
0.551459
0.604116
0.636084
0.652919
0.658417
-0.377553
-0.357643
-0.303453
-0.238573
-0.168971
-0.0967477
-0.0253929
0.0392261
0.0878716
0.108169
0.0984374
0.110893
0.204259
0.347286
0.481866
0.580687
0.644848
0.683723
0.70119
0.702154
-0.384466
-0.363957
-0.308538
-0.242459
-0.171682
-0.0982195
-0.0256784
0.0395929
0.087033
0.10052
0.071213
0.0586741
0.151088
0.323547
0.491281
0.612199
0.689168
0.737071
0.760612
0.749625
-0.391381
-0.37029
-0.31346
-0.246198
-0.174313
-0.0995582
-0.0256701
0.0405502
0.0873253
0.0942595
0.042228
-0.00590136
0.0778404
0.286959
0.501786
0.64979
0.73245
0.783132
0.817381
0.822033
-0.398236
-0.376586
-0.318083
-0.249815
-0.176947
-0.100857
-0.0254659
0.0420034
0.0887766
0.0898639
0.012606
-0.087166
-0.0262893
0.22932
0.509273
0.674711
0.749677
0.780055
0.77124
0.703997
-0.404571
-0.382488
-0.322194
-0.25347
-0.179676
-0.102315
-0.0252368
0.043865
0.0913644
0.0878193
-0.0165394