/*--------------------------------*- C++ -*----------------------------------*\
  =========                 |
  \\      /  F ield         | OpenFOAM: The Open Source CFD Toolbox
   \\    /   O peration     | Website:  https://openfoam.org
    \\  /    A nd           | Version:  9
     \\/     M anipulation  |
\*---------------------------------------------------------------------------*/
FoamFile
{
    format      ascii;
    class       surfaceScalarField;
    location    "5";
    object      phi;
}
// * * * * * * * * * * * * * * * * * * * * * * * * * * * * * * * * * * * * * //

dimensions      [0 3 -1 0 0 0 0];

internalField   nonuniform List<scalar> 
17370
(
-0.0910407
0.0934391
0.286613
-0.0747949
0.056751
0.364819
-0.0408244
0.0300713
0.426921
-0.0214627
0.0158834
0.504831
-0.0115763
0.00881679
0.602162
-0.00667078
0.0052454
0.720483
-0.00404402
0.00320243
0.863748
-0.00241935
0.00179037
1.03608
-0.00119143
0.000716203
1.24298
-0.000267833
-3.54437e-05
1.49149
0.000352218
-0.000819831
1.49166
0.00129366
-0.00188446
1.24328
0.00249594
-0.00326253
1.0364
0.00407267
-0.00523785
0.864072
0.00664812
-0.00879597
0.721205
0.0115636
-0.0158838
0.603535
0.0214719
-0.0300858
0.508053
0.0408398
-0.0567638
0.432092
0.074804
-0.0934447
0.365416
0.0910456
0.197965
-0.127922
0.0899994
0.0379229
-0.36525
0.354955
-0.0699768
0.0802716
-0.447076
0.455451
-0.0777818
0.0694069
-0.520787
0.529761
-0.0605869
0.0516132
-0.612688
0.620514
-0.0437593
0.035934
-0.726999
0.733034
-0.0295519
0.0235175
-0.867435
0.87152
-0.0188589
0.0147736
-1.03826
1.04093
-0.0117587
0.00909454
-1.24438
1.24632
-0.00703087
0.00508864
-1.49251
1.49435
-0.00340602
0.00156597
-1.49237
1.49415
0.00020678
-0.00198145
-1.24384
1.24548
0.00376887
-0.00541349
-1.03726
1.03936
0.00733835
-0.00943113
-0.865975
0.869008
0.0121033
-0.0151364
-0.724476
0.729112
0.0192134
-0.0238496
-0.608928
0.615258
0.0298623
-0.0361926
-0.514791
0.522604
0.0439569
-0.051769
-0.439927
0.44873
0.0607082
-0.0695114
-0.375594
0.378065
0.0778708
-0.0803415
-0.25733
0.225246
0.0700242
-0.037941
-0.0723267
0.0649013
0.00742534
-0.039317
0.0454332
-0.375482
0.369366
-0.046214
0.0445431
-0.45391
0.45558
-0.0414493
0.0386632
-0.527363
0.53015
-0.0355294
0.032432
-0.619891
0.622988
-0.0288888
0.0256393
-0.733432
0.736681
-0.0219523
0.0185312
-0.872642
0.876063
-0.0148438
0.0115911
-1.04222
1.04547
-0.00821895
0.00537941
-1.24792
1.25076
-0.00240274
-0.000302785
-1.4966
1.4993
0.00301025
-0.005995
-1.49684
1.49982
0.00882529
-0.0121537
-1.249
1.25233
0.0153378
-0.0189484
-1.04432
1.04793
0.0223198
-0.0259511
-0.875801
0.879432
0.0291795
-0.0327144
-0.737881
0.741416
0.035786
-0.0389021
-0.625422
0.628538
0.0416564
-0.0447207
-0.535003
0.538067
0.0463606
-0.0455508
-0.458324
0.457515
0.0393965
-0.0238982
-0.339537
0.324039
0.00743927
-0.0722736
0.0648343
-0.062093
0.0615404
0.000552599
-0.0122111
0.0190552
-0.362061
0.355217
-0.0247503
0.0284891
-0.454197
0.450458
-0.0308054
0.0315694
-0.531348
0.530584
-0.0311208
0.0299615
-0.624716
0.625876
-0.028149
0.0259873
-0.739191
0.741353
-0.0232591
0.0205061
-0.8791
0.881853
-0.0172338
0.0140666
-1.04872
1.05188
-0.0104397
0.00702157
-1.254
1.25742
-0.00312529
-0.000675124
-1.50262
1.50642
0.00444768
-0.00832426
-1.50337
1.50725
0.0116975
-0.0152054
-1.25586
1.25937
0.0182556
-0.0214677
-1.05135
1.05456
0.0241236
-0.0267137
-0.882463
0.885053
0.0287373
-0.0304384
-0.743559
0.74526
0.0315262
-0.0319161
-0.630284
0.630673
0.0311146
-0.02876
-0.538551
0.536196
0.0249891
-0.0192572
-0.453763
0.448031
0.0123681
-0.00457239
-0.312139
0.304343
0.000579421
-0.0620102
0.0614308
-0.0616436
0.0615856
5.79735e-05
-0.00402271
0.00813448
-0.349747
0.345635
-0.0130846
0.0171568
-0.446019
0.441947
-0.0206669
0.0228409
-0.528603
0.526429
-0.0241935
0.0245801
-0.626125
0.625738
-0.0241491
0.0231506
-0.742981
0.743979
-0.0214685
0.0194392
-0.884358
0.886388
-0.0167681
0.0140089
-1.05494
1.0577
-0.0106916
0.00723577
-1.26091
1.26437
-0.00312192
-0.000936892
-1.51043
1.51448
0.00497348
-0.00895463
-1.5112
1.51518
0.0122934
-0.0156051
-1.26287
1.26618
0.0183664
-0.0209581
-1.05754
1.06013
0.0229305
-0.0245622
-0.887223
0.888854
0.0254893
-0.0257615
-0.746347
0.746619
0.0252156
-0.0236965
-0.629638
0.628119
0.021385
-0.0177381
-0.532568
0.528921
0.0135452
-0.00845694
-0.442105
0.437016
0.00422183
-0.00111197
-0.299603
0.296493
9.09993e-05
-0.0614984
0.0614074
-0.0614057
0.0613237
8.19997e-05
-0.0018899
0.0040082
-0.342603
0.340484
-0.00691756
0.00960693
-0.438557
0.435867
-0.012218
0.0141234
-0.52438
0.522475
-0.015637
0.0165048
-0.625106
0.624238
-0.0168538
0.0167162
-0.74451
0.744648
-0.0160348
0.0149608
-0.887868
0.888942
-0.0133066
0.0114016
-1.05999
1.06189
-0.00884871
0.00599771
-1.26759
1.27044
-0.00238803
-0.00119133
-1.5184
1.52198
0.00470346
-0.00821002
-1.51904
1.52255
0.0110052
-0.0135767
-1.26909
1.27167
0.0154664
-0.0169894
-1.06214
1.06367
0.0179383
-0.0184805
-0.889914
0.890456
0.0184735
-0.017901
-0.746455
0.745882
0.016825
-0.0151016
-0.626489
0.624765
0.0130177
-0.0102246
-0.525658
0.522865
0.00738348
-0.00433203
-0.432969
0.429917
0.00210968
-0.000653417
-0.294319
0.292863
0.000119292
-0.0612059
0.0610866
-0.0613383
0.0613507
-1.23849e-05
-0.000607363
0.00150785
-0.339091
0.33819
-0.0029048
0.00433373
-0.433857
0.432428
-0.0058836
0.00717727
-0.520834
0.51954
-0.00839671
0.00927933
-0.623277
0.622394
-0.00993206
0.0101679
-0.744514
0.744279
-0.0100196
0.00951074
-0.889685
0.890194
-0.00853447
0.00724773
-1.06347
1.06476
-0.00541671
0.00347054
-1.27284
1.27479
-0.000997335
-0.00155322
-1.52507
1.52762
0.00405509
-0.00639401
-1.5255
1.52784
0.00818379
-0.010019
-1.2739
1.27573
0.0112113
-0.01191
-1.06474
1.06544
0.012137
-0.0119954
-0.890571
0.890429
0.0115261
-0.0106724
-0.745066
0.744212
0.00962129
-0.00822922
-0.62313
0.621738
0.00679185
-0.00510156
-0.520632
0.518941
0.00355468
-0.00202343
-0.427734
0.426203
0.000974802
-0.00030161
-0.291905
0.291232
4.93405e-05
-0.0610412
0.0609919
-0.0613369
0.0613163
2.05311e-05
-0.000389293
0.000799986
-0.337593
0.337183
-0.00142732
0.00209596
-0.431442
0.430773
-0.00286502
0.00355342
-0.518577
0.517888
-0.00425083
0.00479939
-0.621673
0.621125
-0.00524798
0.005447
-0.744042
0.743843
-0.00541686
0.00515027
-0.890554
0.89082
-0.0045656
0.00374649
-1.06579
1.06661
-0.00254396
0.001287
-1.27635
1.2776
0.000309989
-0.00197101
-1.52968
1.53134
0.00360753
-0.00507116
-1.52967
1.53113
0.00611886
-0.00704791
-1.27712
1.27805
0.00757879
-0.00784311
-1.06588
1.06614
0.00780608
-0.0075074
-0.890171
0.889873
0.00703139
-0.00633772
-0.743426
0.742732
0.00558462
-0.00467403
-0.620608
0.619697
0.00380067
-0.00283866
-0.517675
0.516713
0.00200006
-0.00119113
-0.425107
0.424298
0.000626661
-0.000232078
-0.290724
0.29033
5.38812e-05
-0.0609331
0.0608792
-0.0613076
0.061313
-5.41844e-06
-0.000154655
0.000349247
-0.336895
0.336701
-0.000630744
0.000924731
-0.430326
0.430032
-0.00126594
0.00157783
-0.517415
0.517103
-0.00190119
0.00215929
-0.620734
0.620476
-0.00237094
0.00245993
-0.743696
0.743607
-0.00242165
0.00224255
-0.891029
0.891208
-0.00186157
0.0013315
-1.06726
1.06779
-0.000548848
-0.000290446
-1.27862
1.27946
0.00135825
-0.00245166
-1.53269
1.53378
0.00350587
-0.00444099
-1.53231
1.53325
0.00504211
-0.0053271
-1.27859
1.27888
0.00540755
-0.00542919
-1.06627
1.0663
0.00528985
-0.00497492
-0.889562
0.889247
0.0045748
-0.00405131
-0.74213
0.741607
0.00352439
-0.00292133
-0.618961
0.618358
0.00236863
-0.00178007
-0.51597
0.515381
0.00127775
-0.000792967
-0.423683
0.423198
0.000442628
-0.000178631
-0.290013
0.289749
4.59306e-05
-0.0608313
0.0607854
-0.0613306
0.0613604
-2.97806e-05
5.91934e-05
-1.18654e-05
-0.336584
0.336536
-7.9966e-05
0.000179858
-0.429847
0.429747
-0.000293852
0.000393808
-0.516911
0.516811
-0.000490013
0.000555094
-0.620324
0.620259
-0.000586244
0.000559948
-0.743577
0.743603
-0.000455173
0.000274292
-0.89138
0.891561
3.47478e-05
-0.000426007
-1.06824
1.06863
0.000977649
-0.0015688
-1.28016
1.28075
0.0023038
-0.0030226
-1.53467
1.53539
0.00367506
-0.00421254
-1.53397
1.5345
0.00450028
-0.00451232
-1.279
1.27901
0.00442957
-0.00429395
-1.06623
1.06609
0.00407765
-0.0037522
-0.888928
0.888603
0.0033992
-0.00297563
-0.741142
0.740719
0.00257301
-0.00213084
-0.617851
0.617408
0.00173703
-0.00132553
-0.514898
0.514487
0.000976702
-0.000636015
-0.4228
0.42246
0.000378336
-0.000167209
-0.289519
0.289308
4.79983e-05
-0.060739
0.060691
-0.0613994
0.0614453
-4.58837e-05
0.000199752
-0.000246719
-0.336544
0.336591
0.000283906
-0.000314762
-0.429718
0.429749
0.000352445
-0.000395427
-0.516788
0.516831
0.000456745
-0.000531241
-0.620268
0.620343
0.000640514
-0.000774103
-0.743684
0.743818
0.000966633
-0.00119312
-0.891761
0.891987
0.00150504
-0.00185135
-1.06899
1.06934
0.00229738
-0.00275017
-1.28126
1.28172
0.00327716
-0.00375078
-1.53597
1.53645
0.00413249
-0.00438834
-1.53489
1.53515
0.00447359
-0.00438843
-1.27896
1.27888
0.00419259
-0.00394015
-1.0659
1.06564
0.00365698
-0.00330447
-0.888266
0.887914
0.0029597
-0.00257123
-0.740319
0.739931
0.00221775
-0.00184095
-0.617008
0.616631
0.00151233
-0.00117311
-0.514121
0.513782
0.000886177
-0.00060141
-0.422155
0.42187
0.000375956
-0.000177113
-0.289106
0.288908
5.44106e-05
-0.0606404
0.060586
-0.0614988
0.0615615
-6.27475e-05
0.00032932
-0.00046019
-0.336682
0.336813
0.00059436
-0.000720284
-0.429829
0.429955
0.000869569
-0.00102004
-0.51693
0.51708
0.00120321
-0.00139013
-0.620475
0.620662
0.00161957
-0.00185522
-0.744002
0.744238
0.00214543
-0.00244204
-0.892246
0.892543
0.00280294
-0.00316237
-1.06968
1.07004
0.00358169
-0.0039712
-1.28213
1.28252
0.00437968
-0.00469632
-1.53683
1.53715
0.00489561
-0.00495047
-1.53529
1.53534
0.00486988
-0.00466703
-1.27874
1.27854
0.00440919
-0.00407223
-1.06535
1.06501
0.00373013
-0.00333493
-0.887542
0.887147
0.00296761
-0.00256897
-0.739543
0.739144
0.00221554
-0.00184549
-0.616263
0.615893
0.00152659
-0.00120006
-0.513454
0.513128
0.000923889
-0.000646043
-0.421594
0.421316
0.000417842
-0.000205211
-0.288705
0.288492
6.56468e-05
-0.0605265
0.0604608
-0.0616341
0.0617167
-8.26434e-05
0.000456701
-0.000658594
-0.336979
0.337181
0.000881092
-0.00109476
-0.430125
0.430339
0.00134703
-0.00159717
-0.517281
0.517531
0.00189462
-0.00218903
-0.620903
0.621197
0.00253746
-0.00287971
-0.744526
0.744868
0.00328041
-0.00366761
-0.892882
0.89327
0.00411004
-0.00452233
-1.07042
1.07084
0.00496839
-0.00534945
-1.2829
1.28328
0.00570484
-0.00593002
-1.53741
1.53764
0.00600726
-0.00592352
-1.53533
1.53524
0.00572252
-0.00539473
-1.27827
1.27794
0.00503732
-0.00460261
-1.06463
1.06419
0.00418442
-0.00371885
-0.886721
0.886255
0.00329789
-0.0028502
-0.738725
0.738278
0.00245908
-0.00205406
-0.615511
0.615106
0.00170764
-0.0013543
-0.512793
0.512439
0.00105499
-0.000750654
-0.421028
0.420724
0.000494557
-0.000248009
-0.288264
0.288018
8.08859e-05
-0.0603879
0.0603071
-0.0618105
0.0619173
-0.000106775
0.000603756
-0.000881912
-0.33742
0.337698
0.00119599
-0.0015002
-0.430597
0.430901
0.00185926
-0.00221348
-0.517832
0.518186
0.00263182
-0.00304186
-0.621548
0.621958
0.00352069
-0.00398334
-0.745268
0.745731
0.00451403
-0.00501425
-0.89371
0.89421
0.00556923
-0.00606768
-1.07129
1.07179
0.00658277
-0.00699597
-1.28367
1.28409
0.00734472
-0.0075178
-1.53783
1.53801
0.00750455
-0.00729887
-1.5351
1.53489
0.00697989
-0.00652645
-1.27756
1.2771
0.00605336
-0.00549921
-1.0637
1.06315
0.00497927
-0.00441136
-0.885742
0.885174
0.00390498
-0.0033719
-0.737792
0.737258
0.00290978
-0.00243435
-0.61467
0.614194
0.00202944
-0.00161727
-0.51206
0.511648
0.00126779
-0.000910324
-0.420396
0.420039
0.000605511
-0.000306865
-0.287748
0.287449
0.000101044
-0.0602168
0.0601158
-0.0620386
0.0621766
-0.000137967
0.000787269
-0.00115567
-0.338019
0.338387
0.00157525
-0.00198286
-0.431255
0.431662
0.0024639
-0.00293746
-0.518598
0.519071
0.00349484
-0.00403884
-0.622432
0.622976
0.00467075
-0.00527703
-0.746262
0.746868
0.00596615
-0.00660844
-0.894778
0.89542
0.00731019
-0.0079286
-1.07234
1.07296
0.00855066
-0.00903071
-1.28453
1.28501
0.00940709
-0.00955395
-1.53816
1.53831
0.00946517
-0.00913946
-1.53462
1.5343
0.00869184
-0.00808844
-1.27658
1.27597
0.00747581
-0.0067694
-1.06252
1.06182
0.00611631
-0.00540959
-0.884542
0.883835
0.00478458
-0.00413029
-0.73667
0.736016
0.00356548
-0.00298556
-0.613671
0.613091
0.00249243
-0.00199095
-0.511195
0.510693
0.00156573
-0.00112965
-0.419645
0.419209
0.000755133
-0.00038479
-0.287117
0.286747
0.000127264
-0.0600024
0.0598752
-0.0623335
0.0625118
-0.000178331
0.00102028
-0.00150041
-0.338808
0.339288
0.00204892
-0.00258224
-0.432129
0.432663
0.0032115
-0.00383029
-0.519613
0.520232
0.00455761
-0.00526595
-0.623597
0.624305
0.00608632
-0.00687034
-0.747558
0.748342
0.0077574
-0.00857867
-0.896146
0.896968
0.00946881
-0.0102444
-1.07365
1.07443
0.0110128
-0.0115913
-1.28553
1.28611
0.0120227
-0.012158
-1.53845
1.53859
0.0119939
-0.0115353
-1.53391
1.53345
0.010936
-0.0101501
-1.27528
1.2745
0.00936236
-0.00846364
-1.06102
1.06012
0.00763755
-0.00674836
-0.883043
0.882154
0.00596453
-0.00514679
-0.735285
0.734467
0.00444251
-0.00372083
-0.612445
0.611724
0.00310779
-0.00248509
-0.510136
0.509513
0.00195712
-0.00141478
-0.418724
0.418181
0.0009474
-0.000483411
-0.286333
0.285869
0.000159936
-0.0597326
0.0595727
-0.0627149
0.0629463
-0.000231401
0.00132226
-0.00194436
-0.339835
0.340457
0.00265551
-0.00334696
-0.43327
0.433962
0.0041626
-0.00496382
-0.520937
0.521738
0.0059045
-0.0068193
-0.625111
0.626026
0.00787684
-0.00888517
-0.749232
0.75024
0.0100219
-0.01107
-0.897895
0.898944
0.0121996
-0.0131767
-1.0753
1.07627
0.0141343
-0.0148431
-1.28675
1.28746
0.0153528
-0.0154824
-1.53872
1.53885
0.0152328
-0.014613
-1.53292
1.5323
0.0138278
-0.0128119
-1.2736
1.27259
0.011803
-0.0106583
-1.05911
1.05796
0.00961098
-0.00848736
-0.881155
0.880032
0.00749909
-0.00646942
-0.73355
0.732521
0.00558349
-0.0046764
-0.610915
0.610008
0.00390662
-0.00312502
-0.508816
0.508034
0.00246234
-0.00178112
-0.417574
0.416893
0.00119328
-0.000608954
-0.285348
0.284764
0.000201415
-0.0593932
0.0591918
-0.0632103
0.0635116
-0.000301326
0.00171641
-0.0025218
-0.341165
0.34197
0.00344218
-0.00433673
-0.434748
0.435643
0.00539166
-0.00642691
-0.522649
0.523684
0.00764067
-0.00881912
-0.627064
0.628243
0.0101787
-0.0114718
-0.751382
0.752675
0.0129254
-0.0142607
-0.900127
0.901462
0.0156929
-0.0169238
-1.07737
1.0786
0.0181191
-0.0189909
-1.28825
1.28912
0.0195978
-0.0197192
-1.53897
1.5391
0.0193604
-0.0185374
-1.53158
1.53076
0.017516
-0.0162088
-1.27144
1.27013
0.0149187
-0.013461
-1.05667
1.05521
0.0121315
-0.0107078
-0.878767
0.877343
0.00945822
-0.00815786
-0.731364
0.730063
0.0070402
-0.00589667
-0.60899
0.607846
0.00492653
-0.0039413
-0.507157
0.506172
0.00310563
-0.00224622
-0.416128
0.415268
0.00150441
-0.000767153
-0.284108
0.28337
0.000253443
-0.0589658
0.0587123
-0.0638569
0.0642521
-0.000395181
0.00223923
-0.00328474
-0.342887
0.343932
0.0044779
-0.00563633
-0.43666
0.437818
0.00700117
-0.00833851
-0.52486
0.526197
0.00990416
-0.0114218
-0.62958
0.631098
0.0131689
-0.0148262
-0.754139
0.755797
0.0166832
-0.0183817
-0.902969
0.904667
0.0201935
-0.0217397
-1.07998
1.08153
0.0232264
-0.0242938
-1.29008
1.29115
0.02501
-0.0251088
-1.53921
1.53931
0.0246024
-0.0235146
-1.52981
1.52872
0.0221908
-0.0205124
-1.26865
1.26697
0.0188654
-0.0170114
-1.05357
1.05171
0.0153245
-0.0135215
-0.875741
0.873938
0.0119406
-0.0102968
-0.728601
0.726958
0.00888465
-0.0074403
-0.606561
0.605117
0.00621524
-0.00497156
-0.505065
0.503822
0.0039168
-0.00283218
-0.414303
0.413219
0.00189596
-0.000965873
-0.282542
0.281612
0.000318563
-0.0584282
0.0581096
-0.0647079
0.065231
-0.000523165
0.00294339
-0.00430832
-0.345123
0.346488
0.00586281
-0.00736957
-0.439136
0.440642
0.00914108
-0.010873
-0.527719
0.529451
0.0128956
-0.0148513
-0.632822
0.634777
0.0170964
-0.019219
-0.757673
0.759796
0.0215869
-0.0237417
-0.906581
0.908736
0.0260246
-0.0279561
-1.08326
1.08519
0.0297901
-0.031081
-1.29233
1.29362
0.0319071
-0.0319522
-1.53938
1.53943
0.0312393
-0.0298043
-1.52747
1.52604
0.0280921
-0.0259422
-1.26507
1.26292
0.0238441
-0.0214899
-1.04962
1.04727
0.0193523
-0.0170708
-0.871909
0.869628
0.0150721
-0.0129951
-0.725109
0.723032
0.0112115
-0.00938745
-0.603493
0.601669
0.0078404
-0.00626952
-0.502424
0.500853
0.00493712
-0.00356691
-0.412
0.41063
0.00238502
-0.00121273
-0.280569
0.279396
0.000398994
-0.0577535
0.0573545
-0.0658402
0.0665429
-0.000702705
0.00391405
-0.00571541
-0.348042
0.349843
0.00775968
-0.00973323
-0.442355
0.444328
0.0120407
-0.0142879
-0.531427
0.533674
0.0169032
-0.0194249
-0.637006
0.639528
0.0223096
-0.0250258
-0.762202
0.764918
0.0280395
-0.0307619
-0.91116
0.913882
0.0336197
-0.0360081
-1.08734
1.08973
0.0382383
-0.0397663
-1.29503
1.29656
0.040679
-0.0406124
-1.53943
1.53936
0.0396068
-0.0377138
-1.52439
1.5225
0.0355043
-0.032759
-1.26049
1.25774
0.0300949
-0.0271164
-1.04462
1.04164
0.024417
-0.0215389
-0.867062
0.864184
0.019019
-0.0164008
-0.720697
0.718079
0.0141524
-0.0118522
-0.59962
0.597319
0.00989997
-0.00791606
-0.49909
0.497106
0.00623174
-0.00449883
-0.409093
0.40736
0.00300499
-0.00152571
-0.278081
0.276602
0.000501086
-0.0569079
0.0564068
-0.0673677
0.0683405
-0.000972773
0.00532201
-0.00774312
-0.351874
0.354295
0.0104645
-0.0130634
-0.44657
0.449169
0.0160685
-0.01898
-0.536265
0.539177
0.0223557
-0.025604
-0.642425
0.645674
0.0293087
-0.0327795
-0.768
0.771471
0.0366001
-0.0400164
-0.916931
0.920347
0.0435538
-0.0464607
-1.09236
1.09527
0.0491111
-0.0508577
-1.2982
1.29994
0.0517922
-0.051516
-1.53921
1.53893
0.0500953
-0.0476026
-1.52033
1.51783
0.0447644
-0.0412784
-1.25464
1.25116
0.0379173
-0.0341698
-1.03829
1.03455
0.0307795
-0.0271665
-0.860951
0.857338
0.0240038
-0.0207174
-0.715134
0.711847
0.0178936
-0.0150014
-0.594732
0.59184
0.012542
-0.010036
-0.494883
0.492377
0.00790171
-0.00570059
-0.405425
0.403224
0.00380319
-0.00192843
-0.274944
0.27307
0.000633225
-0.0558474
0.0552141
-0.0694689
0.0708865
-0.0014176
0.00751242
-0.0108348
-0.356962
0.360284
0.0144758
-0.0178775
-0.452158
0.45556
0.0217521
-0.0254988
-0.542634
0.54638
0.0298457
-0.0340331
-0.649464
0.653651
0.0387968
-0.0432267
-0.7754
0.77983
0.0480435
-0.0522814
-0.924129
0.928367
0.0565829
-0.0600304
-1.09842
1.10187
0.0630688
-0.0649571
-1.30176
1.30365
0.0657838
-0.0651445
-1.53849
1.53785
0.0631428
-0.0598768
-1.51497
1.51171
0.0562581
-0.0518737
-1.24724
1.24286
0.0476737
-0.0430053
-1.03035
1.02568
0.0387861
-0.0342899
-0.853278
0.848782
0.0303526
-0.0262578
-0.708135
0.70404
0.0227354
-0.0191213
-0.58857
0.584956
0.016037
-0.0128763
-0.489573
0.486413
0.0101622
-0.00733996
-0.400796
0.397973
0.00489657
-0.00248404
-0.270988
0.268575
0.000820141
-0.054517
0.0536969
-0.0724525
0.0746625
-0.00220998
0.0111654
-0.0157561
-0.363863
0.368454
0.0205569
-0.0249321
-0.459712
0.464088
0.0298732
-0.0346969
-0.551097
0.555921
0.0403421
-0.045784
-0.658599
0.664041
0.0519276
-0.0575489
-0.784751
0.790372
0.0635273
-0.0686552
-0.932925
0.938052
0.0737101
-0.07762
-1.10547
1.10938
0.0808974
-0.0827484
-1.30549
1.30734
0.0832382
-0.0820096
-1.53691
1.53568
0.0792117
-0.0749716
-1.50796
1.50372
0.0704135
-0.0649751
-1.23795
1.23251
0.0598048
-0.0540749
-1.02047
1.01474
0.0488999
-0.0433815
-0.843723
0.838205
0.0385436
-0.033505
-0.699366
0.694327
0.0291641
-0.0247023
-0.580798
0.576336
0.020877
-0.0169225
-0.48285
0.478895
0.0134732
-0.00981089
-0.39494
0.391277
0.00657857
-0.00335317
-0.265989
0.262764
0.00112064
-0.0528409
0.0517203
-0.0769304
0.0806804
-0.00375002
0.0178008
-0.0241478
-0.37358
0.379927
0.0303949
-0.0360122
-0.470141
0.475758
0.0424342
-0.0487862
-0.562369
0.568721
0.0562371
-0.0633021
-0.670342
0.677407
0.0710634
-0.0779314
-0.796324
0.803192
0.0849833
-0.0908154
-0.943289
0.949121
0.0963368
-0.100397
-1.11322
1.11728
0.103535
-0.104993
-1.30891
1.31037
0.104757
-0.102606
-1.53394
1.53179
0.0987346
-0.0932935
-1.49885
1.49341
0.0876432
-0.0810213
-1.22645
1.21983
0.0747864
-0.0679064
-1.00839
1.00151
0.0616961
-0.0550644
-0.831996
0.825364
0.0492366
-0.0431501
-0.688488
0.682401
0.0378916
-0.0324727
-0.571019
0.5656
0.0277995
-0.0229189
-0.474283
0.469402
0.0185704
-0.0137665
-0.387449
0.382645
0.00935979
-0.00481677
-0.259607
0.255064
0.00161699
-0.0506878
0.0490708
-0.084205
0.0915306
-0.00732567
0.0318438
-0.0408546
-0.388003
0.397014
0.0488142
-0.0559701
-0.48469
0.491846
0.0644053
-0.0727127
-0.577167
0.585474
0.0821652
-0.0907304
-0.685009
0.693574
0.09971
-0.107296
-0.809989
0.817575
0.114763
-0.120657
-0.954693
0.960587
0.125938
-0.129506
-1.1209
1.12447
0.131841
-0.132326
-1.31121
1.31169
0.130812
-0.12729
-1.52886
1.52534
0.122
-0.115113
-1.48717
1.48029
0.108221
-0.100325
-1.21251
1.20461
0.0929858
-0.0849482
-0.993951
0.985913
0.0777112
-0.0699781
-0.817962
0.810229
0.0631635
-0.0560192
-0.675304
0.66816
0.0498151
-0.043381
-0.558917
0.552483
0.0377965
-0.0319279
-0.463368
0.457499
0.0265397
-0.0201428
-0.377675
0.371278
0.0137875
-0.0069684
-0.251012
0.244193
0.00223275
-0.0477708
0.045538
-0.099116
0.101625
-0.0025085
0.0186948
-0.0269652
-0.409712
0.417983
0.0351246
-0.043116
-0.504193
0.512185
0.0528095
-0.0627525
-0.595328
0.605272
0.0735353
-0.0830889
-0.701811
0.711365
0.0936672
-0.102998
-0.824444
0.833775
0.112662
-0.120929
-0.965627
0.973894
0.12913
-0.135686
-1.12706
1.13362
0.141528
-0.145367
-1.31112
1.31496
0.147475
-0.146996
-1.52073
1.52026
0.143819
-0.138303
-1.47246
1.46695
0.131733
-0.123304
-1.19599
1.18756
0.114985
-0.104898
-0.97723
0.967143
0.0955214
-0.0850594
-0.801795
0.791333
0.0755649
-0.0653372
-0.660011
0.649783
0.0560026
-0.0463729
-0.544622
0.534992
0.0381847
-0.0292766
-0.450015
0.441107
0.0213242
-0.0128816
-0.364571
0.356129
0.00613332
-0.00134207
-0.238
0.233208
-0.000414324
-0.043293
0.0437073
-0.108891
0.103486
0.0054043
-0.00508822
-0.000145579
-0.429756
0.43499
0.00775349
-0.0150368
-0.52342
0.530703
0.0240543
-0.0325005
-0.615178
0.623624
0.0420209
-0.0506804
-0.720887
0.729546
0.0598957
-0.0682152
-0.842637
0.850956
0.0768275
-0.0839093
-0.98186
0.988941
0.091123
-0.0965921
-1.14005
1.14551
0.101437
-0.104397
-1.31866
1.32162
0.105472
-0.104378
-1.51927
1.51818
0.100834
-0.0952644
-1.46103
1.45546
0.0887393
-0.0806756
-1.17911
1.17105
0.0729339
-0.0640543
-0.957313
0.948433
0.0557266
-0.0464456
-0.780844
0.771563
0.0381262
-0.0295644
-0.638725
0.630163
0.0222705
-0.0148123
-0.523772
0.516314
0.00854736
-0.00251734
-0.429721
0.423691
-0.00215206
0.0059544
-0.345472
0.34167
-0.0073721
0.00589067
-0.225392
0.226874
-0.0028625
-0.0417661
0.0446286
-0.105172
0.100681
0.00449163
-0.0100054
0.00754193
-0.444285
0.446749
-0.00264083
-0.00300091
-0.539902
0.545544
0.0100034
-0.0168848
-0.632107
0.638988
0.0246351
-0.0317227
-0.737584
0.744672
0.0394719
-0.0463473
-0.858468
0.865343
0.0532768
-0.0593374
-0.995755
1.00182
0.0653788
-0.0700846
-1.15059
1.15529
0.0739038
-0.0760834
-1.32411
1.32629
0.0768637
-0.0755994
-1.51678
1.51551
0.0722238
-0.0671979
-1.44986
1.44484
0.0615362
-0.0548989
-1.16355
1.15691
0.0483399
-0.0412231
-0.940049
0.932932
0.0347242
-0.0276689
-0.763416
0.75636
0.021692
-0.0155918
-0.622123
0.616022
0.0106451
-0.00560899
-0.508318
0.503282
0.00181176
0.00151364
-0.415929
0.412604
-0.00391071
0.00553969
-0.334914
0.333285
-0.00550768
0.00358569
-0.221539
0.223461
-0.00171296
-0.0435642
0.0452771
-0.10156
0.0979623
0.00359774
-0.0100325
0.00919434
-0.453993
0.454831
-0.00599163
0.00155639
-0.552273
0.556709
0.00409445
-0.00939841
-0.645408
0.650712
0.0155425
-0.0212066
-0.751326
0.75699
0.0273927
-0.0329213
-0.871631
0.877159
0.0388651
-0.0437216
-1.00736
1.01222
0.0487712
-0.0522982
-1.15958
1.1631
0.055449
-0.057202
-1.32835
1.3301
0.0576438
-0.0561909
-1.51414
1.51269
0.0533382
-0.0492114
-1.43987
1.43574
0.04457
-0.0389379
-1.15073
1.1451
0.0337551
-0.0282581
-0.926306
0.920809
0.0231655
-0.0180033
-0.750103
0.74494
0.0133411
-0.00882549
-0.610083
0.605567
0.00514796
-0.0017215
-0.497867
0.49444
-0.000759875
0.00293829
-0.407132
0.404954
-0.00444048
0.00501737
-0.328116
0.327539
-0.0048074
0.00312647
-0.218972
0.220653
-0.00144965
-0.0439111
0.0453608
-0.099269
0.0967048
0.0025642
-0.00814747
0.00826355
-0.460623
0.460507
-0.00581332
0.00253203
-0.562098
0.56538
0.00168188
-0.00610724
-0.655891
0.660316
0.0108881
-0.0155512
-0.762136
0.766799
0.0205481
-0.0250305
-0.882188
0.88667
0.0298008
-0.0338692
-1.01685
1.02092
0.0378712
-0.0409521
-1.16644
1.16953
0.0434941
-0.0448533
-1.33157
1.33293
0.0450961
-0.0437316
-1.51131
1.50995
0.0412539
-0.0376046
-1.43143
1.42778
0.0337454
-0.0292501
-1.13996
1.13546
0.0250811
-0.0205712
-0.915595
0.911085
0.0166012
-0.0124889
-0.740048
0.735935
0.00896389
-0.00544192
-0.601208
0.597686
0.00265729
-8.38485e-05
-0.490344
0.48777
-0.00192374
0.00352633
-0.400929
0.399326
-0.00433116
0.00474205
-0.323481
0.32307
-0.00448132
0.00268749
-0.216636
0.21843
-0.00125728
-0.0440892
0.0453465
-0.0982699
0.0962103
0.00205954
-0.00661124
0.00664073
-0.465451
0.465421
-0.00506356
0.00230568
-0.569204
0.571962
0.0014715
-0.00497245
-0.664188
0.667688
0.00881025
-0.0126124
-0.770852
0.774654
0.0167838
-0.0205489
-0.890786
0.894551
0.0246669
-0.0279739
-1.02463
1.02794
0.0313182
-0.0338718
-1.17226
1.17482
0.0358806
-0.0368802
-1.33403
1.33503
0.0368815
-0.0358513
-1.50861
1.50758
0.0335655
-0.0305145
-1.42403
1.42098
0.0271905
-0.023364
-1.13119
1.12736
0.0200633
-0.016192
-0.906846
0.902975
0.0128637
-0.00957402
-0.732068
0.728778
0.00669477
-0.0038232
-0.594376
0.591504
0.00151819
0.00076798
-0.484616
0.48233
-0.00221821
0.00344565
-0.396111
0.394884
-0.00425932
0.00445549
-0.319628
0.319432
-0.00403639
0.00248062
-0.21489
0.216446
-0.00111781
-0.044163
0.0452808
-0.0978897
0.0962457
0.00164402
-0.00525425
0.00526388
-0.469546
0.469537
-0.0036094
0.00142238
-0.575331
0.577518
0.00188537
-0.00491294
-0.67099
0.674018
0.00846428
-0.0115603
-0.778208
0.781304
0.0150176
-0.0181461
-0.898253
0.901382
0.0218568
-0.0246314
-1.03119
1.03396
0.0273201
-0.0295184
-1.1771
1.1793
0.0314724
-0.0321602
-1.33597
1.33666
0.0320593
-0.0309218
-1.50621
1.50507
0.0290453
-0.0260562
-1.41791
1.41492
0.0232605
-0.0200494
-1.12364
1.12043
0.0170934
-0.0139342
-0.899412
0.896253
0.0110431
-0.00805659
-0.72547
0.722483
0.00580783
-0.00326019
-0.588643
0.586095
0.00115291
0.000691193
-0.479716
0.477872
-0.00208794
0.00331627
-0.392284
0.391056
-0.0039166
0.0040341
-0.316633
0.316515
-0.00360293
0.0022157
-0.213429
0.214816
-0.00101236
-0.0441954
0.0452078
-0.0979842
0.0966002
0.00138394
-0.00412667
0.00409291
-0.473219
0.473253
-0.00230339
0.000150227
-0.580613
0.582766
0.00279359
-0.00542507
-0.676909
0.679541
0.00834885
-0.0113007
-0.784451
0.787403
0.0143802
-0.0175752
-0.904313
0.907508
0.0205129
-0.0229919
-1.03674
1.03922
0.0256151
-0.0273869
-1.18127
1.18304
0.0286264
-0.0294394
-1.33712
1.33794
0.0292076
-0.0280912
-1.5039
1.50279
0.0261999
-0.0236519
-1.41218
1.40963
0.0211233
-0.0182328
-1.11708
1.11419
0.0156618
-0.0128332
-0.893155
0.890327
0.0102793
-0.00777285
-0.719703
0.717197
0.00549483
-0.00328196
-0.583541
0.581328
0.00148506
0.000364133
-0.475648
0.473799
-0.00176033
0.00270071
-0.388745
0.387805
-0.00333542
0.00355743
-0.31398
0.313758
-0.0032381
0.0019764
-0.212196
0.213457
-0.000919582
-0.0442519
0.0451715
-0.0984917
0.0972368
0.00125491
-0.00296642
0.00264948
-0.476782
0.477099
-0.000957554
-0.00119639
-0.585472
0.587626
0.00384818
-0.00640586
-0.682334
0.684892
0.00922052
-0.0118334
-0.790236
0.792849
0.0150262
-0.0174624
-0.91015
0.912586
0.0202921
-0.0224861
-1.04175
1.04394
0.0248136
-0.0265339
-1.18464
1.18636
0.0277215
-0.0279774
-1.33834
1.33859
0.0276375
-0.0265057
-1.50143
1.5003
0.0248869
-0.0223778
-1.40695
1.40445
0.0201016
-0.0174676
-1.11149
1.10886
0.015175
-0.0125527
-0.887437
0.884815
0.0103202
-0.00792156
-0.714612
0.712213
0.00582598
-0.00370959
-0.579052
0.576936
0.00190273
-0.000338392
-0.471736
0.470172
-0.00108726
0.00209042
-0.385536
0.384533
-0.00286114
0.00309981
-0.311476
0.311238
-0.0028028
0.00180649
-0.210996
0.211993
-0.000783605
-0.0442781
0.0450617
-0.0991311
0.0981808
0.000950256
-0.0019784
0.00119461
-0.480518
0.481301
0.000428931
-0.00260283
-0.589775
0.591949
0.00495436
-0.00744702
-0.687379
0.689872
0.0101692
-0.0129479
-0.795395
0.798174
0.0156048
-0.0181802
-0.915185
0.91776
0.02091
-0.0228056
-1.04643
1.04832
0.0250258
-0.0264496
-1.18772
1.18915
0.0273196
-0.027651
-1.33899
1.33932
0.0272245
-0.025839
-1.49896
1.49758
0.0240088
-0.0218338
-1.40203
1.39985
0.019865
-0.0174243
-1.10618
1.10374
0.01527
-0.0130747
-0.882266
0.88007
0.010696
-0.00861275
-0.709723
0.70764
0.0066512
-0.00455228
-0.574964
0.572865
0.00293638
-0.00126526
-0.468048
0.466377
-8.81291e-05
0.00134085
-0.382639
0.381386
-0.00207448
0.00243316
-0.309097
0.308738
-0.00241081
0.00158578
-0.209846
0.210671
-0.000688089
-0.0441889
0.044877
-0.100074
0.0992989
0.000775206
-0.00116174
0.000430876
-0.484396
0.485127
0.00184953
-0.00377566
-0.594279
0.596205
0.00630627
-0.00875237
-0.69211
0.694556
0.0114171
-0.0138942
-0.800703
0.80318
0.01671
-0.0190045
-0.92031
0.922604
0.0216489
-0.0238484
-1.05052
1.05272
0.0255493
-0.0270165
-1.1904
1.19187
0.0278619
-0.0277847
-1.33926
1.33918
0.0270662
-0.0257668
-1.49607
1.49477
0.0238031
-0.02183
-1.39744
1.39546
0.0198553
-0.017755
-1.10143
1.09933
0.0159566
-0.0139025
-0.877671
0.875617
0.0118682
-0.00985785
-0.705258
0.703248
0.00799454
-0.00588661
-0.570774
0.568666
0.00416775
-0.00254673
-0.464451
0.46283
0.000981498
0.000340024
-0.379538
0.378216
-0.00125029
0.00180116
-0.30662
0.306069
-0.00186319
0.00123599
-0.208718
0.209345
-0.000517585
-0.0440529
0.0445705
-0.101237
0.100668
0.000568779
-0.000251489
-0.000856247
-0.488256
0.489363
0.00294343
-0.00506923
-0.598512
0.600637
0.00759585
-0.00999084
-0.696797
0.699192
0.0128344
-0.0152567
-0.805697
0.80812
0.017998
-0.0204342
-0.925316
0.927752
0.0229698
-0.0250563
-1.05467
1.05675
0.0267799
-0.0279993
-1.19301
1.19423
0.028583
-0.0286552
-1.33901
1.33908
0.0275857
-0.0257992
-1.49299
1.49121
0.0238078
-0.021665
-1.39323
1.39109
0.02004
-0.0184365
-1.09731