/*--------------------------------*- C++ -*----------------------------------*\
  =========                 |
  \\      /  F ield         | OpenFOAM: The Open Source CFD Toolbox
   \\    /   O peration     | Website:  https://openfoam.org
    \\  /    A nd           | Version:  9
     \\/     M anipulation  |
\*---------------------------------------------------------------------------*/
FoamFile
{
    format      ascii;
    class       volScalarField;
    location    "0.4";
    object      p;
}
// * * * * * * * * * * * * * * * * * * * * * * * * * * * * * * * * * * * * * //

dimensions      [0 2 -2 0 0 0 0];

internalField   nonuniform List<scalar> 
400
(
4.36384e-06
-0.00582221
-0.0129595
-0.0184115
-0.020429
-0.0182353
-0.011771
-0.00148098
0.0118398
0.0271513
0.0432461
0.0588243
0.0725796
0.0833092
0.0900535
0.0922679
0.090027
0.0842454
0.0768826
0.0710693
0.00578314
-0.000215716
-0.00580131
-0.00953974
-0.0105961
-0.0084299
-0.00296732
0.00547651
0.016305
0.0287137
0.0417515
0.0543875
0.0655878
0.0744112
0.0801216
0.0823172
0.0810789
0.0770567
0.0712763
0.0653203
0.0133371
0.00503578
-0.000993077
-0.00442074
-0.00527044
-0.00326142
0.00160474
0.00902977
0.018504
0.0293511
0.0407672
0.0518713
0.0617702
0.069638
0.0748087
0.0768798
0.0758435
0.072088
0.0658079
0.0575382
0.020141
0.00869782
0.00122786
-0.00266644
-0.00371993
-0.00188304
0.00273354
0.00978672
0.0187824
0.0290969
0.0399938
0.0506558
0.0602347
0.0679178
0.073005
0.0750034
0.0737679
0.0694584
0.0616056
0.0501056
0.0245033
0.00977488
0.000591735
-0.00398491
-0.00530018
-0.00350521
0.00117692
0.00833673
0.0174641
0.027951
0.0390869
0.0500718
0.0600508
0.068167
0.0736284
0.0757998
0.0743712
0.0692922
0.0595284
0.0445404
0.025179
0.00715178
-0.00379999
-0.00905509
-0.01051
-0.00849784
-0.00335461
0.00443168
0.0143156
0.0256812
0.0378159
0.0499054
0.0610502
0.0703052
0.0767368
0.0795191
0.0781413
0.0723361
0.0605422
0.0418935
0.0210947
-0.000260582
-0.0129324
-0.018707
-0.0200275
-0.0174116
-0.011316
-0.00231727
0.00899289
0.0219786
0.035912
0.0499467
0.0631144
0.0743476
0.0825242
0.0865719
0.0857232
0.0794498
0.0656234
0.0430752
0.0111443
-0.0136163
-0.0278728
-0.0338517
-0.0346009
-0.0308548
-0.0232102
-0.0123425
0.00110759
0.0164866
0.0330553
0.0499363
0.066086
0.0802924
0.0912033
0.0974326
0.097873
0.0916389
0.0758994
0.04912
-0.00596507
-0.0342642
-0.0498676
-0.0555459
-0.0550873
-0.0495116
-0.0395905
-0.0261103
-0.00975402
0.0088261
0.0289041
0.0495965
0.0698004
0.0881574
0.10305
0.112704
0.115553
0.110195
0.0928373
0.0614148
-0.0318543
-0.0638733
-0.0804141
-0.0850043
-0.082417
-0.0740751
-0.0609775
-0.0440332
-0.0239481
-0.00133343
0.023149
0.0486644
0.0740989
0.0979754
0.118399
0.133129
0.139992
0.136821
0.118444
0.081937
-0.0686638
-0.1046
-0.121341
-0.123587
-0.117512
-0.105123
-0.0877147
-0.0663218
-0.0416332
-0.0141518
0.0156094
0.0469569
0.0788594
0.109797
0.137627
0.159589
0.17273
0.173781
0.155523
0.113574
-0.119398
-0.159353
-0.174911
-0.172753
-0.161144
-0.142925
-0.119755
-0.0927731
-0.0625734
-0.0294435
0.00637723
0.0444775
0.084059
0.123707
0.16114
0.193089
0.215671
0.22408
0.208053
0.160635
-0.188624
-0.232238
-0.243935
-0.233944
-0.21369
-0.18715
-0.156368
-0.122497
-0.0858936
-0.0464678
-0.00401005
0.0415432
0.0898463
0.139833
0.189323
0.234693
0.271078
0.291667
0.281746
0.229778
-0.283969
-0.3293
-0.331827
-0.308276
-0.274704
-0.236436
-0.19576
-0.153606
-0.109835
-0.0637405
-0.0144332
0.0388681
0.0965588
0.158281
0.222378
0.285292
0.341401
0.381578
0.384917
0.331836
-0.419313
-0.459666
-0.442346
-0.395788
-0.342125
-0.287735
-0.234611
-0.182925
-0.131604
-0.0789799
-0.0232089
0.0374803
0.104558
0.178842
0.259866
0.344974
0.42862
0.499704
0.529678
0.485394
-0.620526
-0.636739
-0.578672
-0.494188
-0.411236
-0.335654
-0.267776
-0.205973
-0.147531
-0.0893776
-0.0284206
0.0383537
0.113812
0.200477
0.29998
0.412029
0.533034
0.651779
0.732775
0.722398
-0.935918
-0.87851
-0.741737
-0.597944
-0.474388
-0.372655
-0.288864
-0.217758
-0.153948
-0.0924584
-0.0287117
0.0417013
0.123269
0.220723
0.338931
0.482159
0.652001
0.841346
1.01527
1.09751
-1.47642
-1.20663
-0.920499
-0.691384
-0.517301
-0.38754
-0.290057
-0.213332
-0.148119
-0.0872101
-0.024572
0.0454632
0.128943
0.233076
0.367108
0.542683
0.771297
1.05932
1.40329
1.73014
-2.53964
-1.63054
-1.04443
-0.710955
-0.495747
-0.352089
-0.254527
-0.183579
-0.126164
-0.0735899
-0.0192635
0.0427926
0.119218
0.218788
0.354818
0.547989
0.826398
1.23659
1.91168
2.9242
-4.36666
-2.04463
-0.973538
-0.563177
-0.357843
-0.240143
-0.170116
-0.123779
-0.0874768
-0.0535053
-0.016649
0.0276665
0.0846135
0.161736
0.272417
0.442105
0.718224
1.22571
2.41104
4.84854
)
;

boundaryField
{
    movingWall
    {
        type            zeroGradient;
    }
    fixedWalls
    {
        type            zeroGradient;
    }
    frontAndBack
    {
        type            empty;
    }
}


// ************************************************************************* //
