/*--------------------------------*- C++ -*----------------------------------*\
  =========                 |
  \\      /  F ield         | OpenFOAM: The Open Source CFD Toolbox
   \\    /   O peration     | Website:  https://openfoam.org
    \\  /    A nd           | Version:  9
     \\/     M anipulation  |
\*---------------------------------------------------------------------------*/
FoamFile
{
    format      ascii;
    class       volScalarField;
    location    "26";
    object      p;
}
// * * * * * * * * * * * * * * * * * * * * * * * * * * * * * * * * * * * * * //

dimensions      [0 2 -2 0 0 0 0];

internalField   nonuniform List<scalar> 
918
(
0.244401
0.913821
0.0316971
0.243699
-0.00352542
0.880871
-0.815782
0.420035
0.224479
-0.396102
-0.416334
0.215942
0.741588
0.508198
-1.441
-0.191028
0.373892
-0.693892
0.223472
-0.0605003
0.469948
0.231123
0.234166
0.224764
0.285854
0.490867
0.622422
0.0106931
0.0238849
0.0110229
-0.0133577
-0.0520276
-0.0694806
0.764502
0.815599
0.838275
0.19335
0.0207934
-0.671059
-0.744715
-0.732802
-0.861849
0.411841
0.416326
-0.478378
0.420439
0.432547
0.211886
0.223821
0.224758
0.225878
0.22479
0.2262
0.11781
-0.401333
-0.436451
-0.378457
-0.370181
-0.201408
-0.417156
-0.398503
-0.413842
-0.388018
0.146793
0.213064
0.210289
0.220781
0.228451
0.853369
0.825272
0.851404
0.765171
0.781614
0.719539
0.692009
0.528247
0.549923
0.493899
0.480408
-1.88332
-2.85468
-0.840466
-0.583932
-0.0074867
-0.221241
-0.248787
0.363337
0.366239
0.37311
0.386145
0.76894
-0.688172
-0.830122
0.223527
0.22232
0.230854
0.231539
0.227547
0.226642
-0.0970761
-0.148173
-0.0165563
-0.0417504
-0.0392232
0.455318
0.450846
0.225322
0.222361
0.236084
0.25859
0.248276
-0.0126732
0.293318
0.311888
0.307777
0.476323
0.473363
0.481135
0.5961
0.559343
0.659449
0.682809
0.0128532
0.00624905
-0.177062
-0.0959458
-0.124971
0.189434
0.182456
0.207513
0.196628
0.198914
-0.0635066
-0.199855
0.10643
0.129598
-0.580391
-0.645645
-0.75213
-0.766205
-0.874583
0.264595
0.402951
0.404446
-0.495669
-0.41467
-0.556182
-0.340994
-0.406709
0.20231
0.209221
0.204262
0.219568
0.214114
0.216049
0.228111
0.225193
0.226734
0.182687
0.303868
0.0536118
0.0293589
-0.551014
-0.451674
-0.53984
-0.355977
-0.362074
-0.202759
-0.165324
-0.209542
-0.201776
-0.364531
-0.38167
-0.367909
-0.367946
-0.326321
0.139761
0.129336
0.15797
0.164996
0.204851
0.20595
0.208106
0.206911
0.642793
0.665283
0.672646
0.646265
-3.86521
-6.68782
-0.251633
-0.110621
-0.00152526
0.000222569
0.000601586
-0.000942612
-0.00186362
-0.0142775
-0.249592
-0.25966
-0.260851
-0.267475
0.347982
0.349094
0.685373
0.678042
0.671102
0.624815
0.211618
0.213786
0.219329
0.21518
-0.289808
-0.198334
-0.236465
0.429685
0.441882
0.44045
-0.0483036
-0.133211
0.0333997
0.0605009
0.334126
0.317172
0.333281
0.371263
0.407682
0.690313
0.708551
0.706791
0.715108
0.759091
0.77545
0.740858
0.170344
0.179652
0.174756
0.210799
0.208397
0.209406
0.204497
0.206129
0.203757
-0.353508
-0.740849
0.188249
0.208233
0.176026
0.191576
0.341091
0.413877
0.383739
0.394293
0.395771
-0.274098
-0.335291
-0.020425
-0.06083
0.0853017
0.118199
0.100265
0.614017
0.574093
0.62419
0.597672
0.558833
0.585419
-0.692804
-2.21932
-1.32357
0.249065
0.05789
0.147939
-0.212687
-0.228018
-0.220222
0.664939
0.745504
0.360392
0.520825
0.53349
0.444287
0.475463
0.533115
0.45754
0.493273
0.528455
0.507877
0.224576
0.199073
0.193552
0.484585
0.540458
-0.160754
-0.213194
-0.261713
-0.164269
-0.109958
-0.130144
0.713323
0.601233
0.676699
0.222083
0.222767
-0.00265274
-0.0178151
0.226872
0.226939
-0.0148
-0.0458027
0.129271
-1.15073
-0.172592
0.215255
0.205735
0.222434
-0.381664
0.0764646
-0.422408
-0.205989
-0.278086
0.21361
0.156209
0.120168
0.00210291
-0.183365
-0.11839
-0.506081
0.219736
0.218072
0.221929
0.222972
0.223605
-0.0107149
-0.0175117
-0.00665782
-0.104492
-0.0488607
-0.0526998
0.187671
0.203993
-0.467304
0.222118
0.224209
0.224068
0.217117
0.222906
0.221035
-0.121349
-0.0759902
-0.15716
-0.0621742
0.0542952
0.379988
0.479576
0.342177
0.113998
-0.12774
0.278123
0.344813
0.245425
0.406652
0.39319
0.409847
-0.11145
-0.258283
-0.103878
-0.158143
0.213214
0.211836
0.203975
0.201167
0.217345
0.21538
0.22005
0.216891
0.219889
0.221284
-0.341532
-0.366495
-0.378943
-0.441779
0.0355557
0.293368
-0.0324027
0.00811419
-0.138929
-0.459522
-0.41662
-0.409019
-0.38553
-0.363472
-0.278589
-0.242143
-0.217121
-0.322027
-0.31936
-0.430125
-0.354194
-0.376534
0.207687
0.206647
0.212771
0.219716
0.165321
0.168911
0.136722
0.155411
0.140663
0.0867544
0.119859
0.0956444
-0.00745342
0.000914657
0.00163015
-0.194374
-0.299549
-0.0914503
-0.0385487
-0.0475805
-0.04098
-0.0533574
-0.194383
-0.217285
-0.466995
-0.583938
0.670167
0.61665
-0.189958
0.208964
0.215365
0.212185
0.216866
0.219987
0.220877
0.21863
0.215241
0.204703
0.206565
0.202644
0.203059
-0.409362
-0.543822
-0.368029
-0.434553
-0.173119
0.324633
0.067151
0.00766989
0.00305988
0.218696
0.620496
0.421138
0.428609
0.453729
-0.650955
-0.251089
-0.58273
0.0381154
-0.14007
0.379466
0.429387
0.450708
0.398313
0.349323
-0.426824
0.231093
-0.353315
-0.31018
-0.120852
-0.223111
0.420824
0.377118
0.382809
0.397291
0.41661
0.381199
0.359978
0.357318
0.393232
0.39822
0.191581
-0.0300736
-0.0748946
-0.112001
0.358311
0.232561
0.288725
0.205066
0.207984
0.210885
0.209388
0.19241
0.199663
0.195489
0.200634
0.203753
0.213135
0.213543
0.208798
0.211254
-0.344889
-0.353223
-0.318762
-0.429324
-0.422011
-0.46782
-0.361265
-0.232111
-0.270208
-0.0722434
0.0383863
-0.25664
-0.368926
-0.337556
-0.309984
-0.127693
-0.103592
-0.206148
-0.115857
-0.116495
-0.135309
-0.0287223
-0.025833
-0.423654
-0.361861
-0.351382
-0.40925
-0.257577
-0.182111
-0.178849
-0.479445
-0.51529
-0.418146
-0.371328
-0.304071
-0.320295
-0.334257
-0.273063
-0.174345
-0.184792
-0.255535
-0.455474
-0.34512
-0.378201
0.202912
0.204388
0.204498
0.214812
0.226918
0.241931
0.207641
0.185617
0.177185
0.180198
0.155459
0.165256
0.160095
0.173129
0.192464
0.199402
0.198963
0.201109
0.18534
0.186955
0.174631
0.177576
0.155357
0.138578
0.12769
-0.0911092
-0.0551975
-0.0838866
-0.0859191
-0.0238313
-0.0463054
-0.323097
-0.272445
-0.315927
-0.291919
-0.363396
-0.117655
-0.136616
-0.380492
-0.305071
-0.492849
-0.523084
-0.593493
0.580498
0.687995
0.508461
0.293279
0.297028
0.524274
0.619027
0.258643
0.430716
0.460712
0.236613
0.504572
0.21385
0.213363
0.210928
0.210397
0.211916
-0.325585
-0.225498
-0.208125
-0.160776
-0.0427085
0.0732403
-0.0204283
-0.146303
-0.0064624
0.00398338
0.319763
0.336346
0.280666
0.305865
0.304658
0.131669
0.207135
0.262217
0.217116
0.260645
0.282602
0.24357
0.27327
0.221565
0.179578
0.178409
0.124538
0.14527
0.123059
0.104954
0.203559
0.182507
0.192146
0.183867
0.203527
0.231351
0.226325
0.252799
0.264806
0.188906
0.150814
0.159609
0.186775
0.149166
0.162176
0.176735
-0.102287
-0.202124
-0.113823
-0.406305
-0.318567
-0.334436
-0.380066
-0.340415
-0.0535688
-0.755234
-0.725353
-1.3624
0.168921
0.647385
0.377714
0.350127
0.413645
0.390871
0.394316
0.421394
0.427865
0.347514
0.366958
0.369418
0.320207
0.346892
0.371455
0.369194
0.201109
0.0837383
0.0751308
0.036498
-0.085454
-0.054571
0.14865
0.0709807
-0.00148505
0.00317398
0.166949
0.0582719
0.123253
0.16114
0.0947636
0.0513633
0.248261
0.315964
0.307434
0.281672
0.196827
0.208744
0.235284
0.271728
0.298057
0.333395
0.200843
0.206214
0.207453
0.204941
0.202449
0.205187
0.205152
0.2077
0.208633
0.211634
0.210552
-0.35561
-0.335352
-0.34489
-0.358149
-0.317006
-0.319325
-0.269305
-0.281557
-0.295397
-0.284743
-0.324173
-0.326472
-0.336346
-0.323626
-0.194121
-0.184217
-0.197677
-0.237876
-0.056561
0.0792509
0.1416
0.0256377
-0.0796884
-0.0551091
-0.0279131
-0.286162
-0.277879
-0.300403
-0.231016
-0.240106
-0.473263
-0.467774
-0.467527
-0.538767
-0.477128
-0.408836
-0.27267
-0.322422
-0.351362
-0.344734
-0.302168
0.187355
0.181054
0.183256
0.177568
0.176233
0.189719
0.193711
0.195237
0.199825
0.201391
0.193352
0.197675
0.200923
-0.345041
-0.215628
-0.274862
-0.333227
-0.24921
-0.186595
-0.224856
-0.20317
-0.270098
-0.262774
-0.307189
-0.430114
-0.372543
0.153778
0.146532
0.164547
0.378802
0.233043
0.149725
0.239633
0.342917
-0.0588558
0.143429
-0.0263043
0.555376
0.44283
0.585388
0.215391
-0.086197
0.0655339
0.120229
-0.0779054
-0.0074677
0.0147746
-0.0958841
-0.0660651
-0.0371177
0.0645199
-0.0582688
-0.0875593
-0.333703
-0.149839
-0.0197753
-0.0419902
0.093269
0.158039
-0.0729949
-0.149074
-0.191814
0.310211
0.330891
0.349686
0.319386
0.343429
0.266111
0.25666
0.275461
0.285086
0.27901
-1.09056
-0.799207
-1.74095
-1.04884
-0.601749
0.204391
0.158699
0.446518
0.333764
0.408341
0.390658
0.347894
0.312009
0.321959
0.357218
0.0595985
0.168526
0.142717
0.14983
0.053583
-0.0137299
0.285152
0.27861
0.316381
0.340815
0.306369
0.340865
0.19858
0.19809
0.197792
0.19451
0.192669
0.194799
-0.228794
-0.253696
-0.224155
-0.243061
-0.258998
-0.273166
-0.456606
-0.438745
-0.413637
-0.380804
-0.411861
-0.431157
-0.167261
-0.223456
-0.292028
-0.266657
-0.320751
-0.386465
-0.402872
-0.305901
-0.218332
-0.225563
0.0771211
0.329432
0.154584
0.324982
0.162782
0.22024
0.161838
0.157749
0.190374
0.0555195
0.130387
-0.106766
-0.610398
-0.517142
0.459687
0.48045
0.270359
0.0782896
-0.149889
0.0431842
0.230681
0.169185
0.209871
0.277407
0.271689
-0.321041
-0.248834
-0.00602852
0.221034
-0.0945736
-0.101296
-0.106072
0.0595172
-0.0127457
)
;

boundaryField
{
    wall-4
    {
        type            zeroGradient;
    }
    velocity-inlet-5
    {
        type            zeroGradient;
    }
    velocity-inlet-6
    {
        type            zeroGradient;
    }
    pressure-outlet-7
    {
        type            fixedValue;
        value           uniform 0;
    }
    wall-8
    {
        type            zeroGradient;
    }
    frontAndBackPlanes
    {
        type            empty;
    }
}


// ************************************************************************* //
