/*--------------------------------*- C++ -*----------------------------------*\
  =========                 |
  \\      /  F ield         | OpenFOAM: The Open Source CFD Toolbox
   \\    /   O peration     | Website:  https://openfoam.org
    \\  /    A nd           | Version:  9
     \\/     M anipulation  |
\*---------------------------------------------------------------------------*/
FoamFile
{
    format      ascii;
    class       surfaceScalarField;
    location    "26";
    object      phi;
}
// * * * * * * * * * * * * * * * * * * * * * * * * * * * * * * * * * * * * * //

dimensions      [0 3 -1 0 0 0 0];

internalField   nonuniform List<scalar> 
1300
(
3.75095
5.62643
-5.65371
3.75095
-5.57107
5.62643
-4.48495
4.48495
-1.13305
1.13305
1.87647
1.87449
-2.94759
2.94759
-2.21885
2.21885
-2.56513
2.56513
-5.24639
5.24639
-5.06784
5.06784
4.67605
-4.67605
-4.17821
4.17821
-1.55068
1.55068
-3.92641
3.92641
3.1701
-3.1701
-3.65131
3.65131
-0.332797
0.332797
-0.553552
4.30451
3.1974
3.1974
-2.2032
2.2032
-4.85955
4.85955
6.21811
-6.21811
8.44445
-8.44445
-2.79074
-3.37697
1.43204
-8.87896
-4.13903
-4.13903
-8.44041
8.44041
-2.81398
2.81245
2.94221
-2.94221
-1.78241
1.78241
-4.41632
-0.0686304
-4.41632
4.49206
-0.00711471
4.49206
-1.2661
0.133054
-1.2661
3.979
-3.979
0.96116
0.171889
0.96116
3.06446
-3.06446
-1.87716
3.75363
1.87379
-1.87181
6.17631
-1.87915
3.75363
-5.88891
5.88891
-3.20498
0.257395
-3.20498
2.74153
0.206065
2.74153
-6.5667
6.5667
-2.32046
0.101603
-2.32046
2.33624
-0.117389
2.33624
2.85085
-2.85085
-2.65817
0.0930404
-2.65817
2.48035
0.0847797
2.48035
0.353565
5.27286
-5.97999
8.79245
-5.27286
0.0264789
5.20843
0.0379517
5.20843
-5.10594
0.0380982
-5.10594
5.01191
0.055935
5.01191
4.77078
-0.0947239
4.77078
-4.78839
0.112339
-4.78839
-3.09204
-4.00865
-4.24062
0.0624183
-4.24062
-1.55871
0.00802716
-1.55871
1.50557
0.0451093
1.50557
-3.5248
3.5248
-4.29268
0.366264
-4.29268
3.12479
0.0453065
3.12479
1.86852
1.88244
5.61947
-5.61947
2.44937
-3.22268
-0.428625
-3.22268
-4.04525
-4.39919
4.04525
-0.393946
-0.602034
0.269237
-0.602034
3.15915
0.0382475
3.15915
2.37876
0.101592
-2.37876
0.175552
3.25269
-3.25269
1.58291
0.620297
1.58291
-5.56912
5.56912
4.95205
0.0598569
-4.95205
0.092501
6.15662
0.0614873
6.15662
-6.19958
-0.0185268
-6.19958
2.89231
-6.26928
-3.70101
4.15402
0.0241869
-4.15402
0.0149833
2.91199
0.0302255
2.91199
-2.92316
2.92316
-2.98241
0.0401961
-2.98241
-2.19011
0.407706
-2.19011
1.47394
0.30847
1.47394
-4.28757
-0.128745
-4.28757
-4.42869
0.136013
4.42869
0.063374
1.01629
-1.01629
-1.4051
0.138997
-1.4051
-4.12083
-0.16674
4.12083
-0.141836
-3.86792
-0.111078
-3.86792
-3.02312
0.0407166
3.02312
0.0413368
3.11239
0.0467659
-3.11239
0.0479274
-1.87083
3.75326
-1.88013
3.75392
-5.50894
-0.379972
-5.50894
6.19761
-0.308698
6.19761
3.5636
0.362818
-3.5636
0.358611
2.56806
0.173465
2.56806
-6.63528
0.0685803
-6.63528
6.28643
0.280265
6.28643
2.45381
0.11425
-2.45381
0.133355
2.52526
-0.18902
2.52526
2.85979
-0.00893827
2.85979
-2.85918
0.00832297
-2.85918
2.8048
-2.8048
2.73617
0.0686265
-2.73617
0.078007
-11.1327
11.1141
-0.034963
-11.0977
5.17347
5.17347
4.2031
0.567675
4.2031
-5.00149
0.213099
-5.00149
2.86256
-6.56357
3.91438
-7.00642
3.89314
-12.7721
3.30986
-7.3185
5.14806
-5.14806
4.57148
0.576585
-4.57148
0.330856
-1.57995
0.0212441
-1.57995
-2.91253
-0.61227
-2.91253
4.18785
-0.663049
4.18785
-3.02965
3.02965
-3.07837
0.0487142
3.07837
0.0464234
2.854
-0.328743
-2.854
-0.368679
0.779813
0.181347
-0.779813
0.177779
3.47209
-0.219401
3.47209
-3.04823
-0.204456
-3.04823
-1.58535
0.00540136
1.58535
-0.00244567
-5.81606
0.246946
-5.81606
-11.1908
0.0930581
-11.1528
-6.10652
-6.10652
2.33389
11.1263
-2.88372
0.0245484
2.88372
0.0282613
2.97736
0.0522964
-2.97736
0.0541997
-2.8659
0.0610943
2.8659
0.0572621
-2.57144
0.381326
-2.57144
-1.05345
1.05345
-1.24303
0.189579
1.24303
0.230906
1.254
-0.237714
1.254
1.46934
0.0362315
-1.46934
0.0642403
-3.76391
-0.104013
-3.76391
6.41665
-0.219042
6.41665
-2.92284
-0.125397
2.92284
-0.063046
-0.0333329
11.1475
-5.14014
0.0341964
5.14014
-11.209
11.2432
-3.24789
0.67645
3.24789
0.955211
5.29136
0.277756
-5.29136
0.289871
5.77722
0.509206
-5.77722
0.62916
-2.41922
-0.493313
-2.41922
-4.92323
-0.585709
4.92323
-0.73538
-11.4749
-0.202814
11.6777
-11.419
6.01888
0.137741
-6.01888
11.3809
-0.961567
-0.0547188
0.961567
0.0918864
1.5652
-0.311204
1.5652
3.66148
-0.189391
-3.66148
-0.102426
-6.5487
-0.0865734
6.5487
-0.132053
-1.97493
-0.444289
1.97493
-0.409724
-4.26675
4.305
1.90956
-2.48148
-3.7878
-6.88067
1.85177
1.90149
4.30115
-8.08237
-4.68973
-8.06739
7.26868
-6.97881
-9.28563
9.1909
7.56536
-7.67643
-5.78477
5.8312
6.48191
-6.44057
1.8791
1.87453
7.93557
-7.67817
-15.6472
15.2672
6.21881
-6.1172
15.8588
-15.7903
-18.0167
18.5259
-5.74242
5.83546
-6.68676
6.69508
-6.87045
6.8074
-2.29588
-4.71054
11.6463
-11.5838
8.64131
-9.06993
-8.50651
8.87278
3.38253
0.922471
3.42929
-1.88235
3.76144
-1.87129
3.78085
4.01827
-6.31415
2.5453
-6.33309
5.03941
3.60189
-4.64547
-2.2352
-5.9188
5.94903
-5.82169
5.87895
8.8984
-8.96703
-1.88509
3.75962
-1.86883
3.77032
-3.42529
-2.35948
3.37999
0.921161
6.80294
4.84331
-6.82713
-1.24026
-7.78164
7.59225
-8.06291
7.85845
-0.445201
5.8212
-5.376
4.41435
-1.55623
7.37743
5.71245
5.92555
5.86744
-5.58968
1.11137
-6.48737
-6.39487
-2.54568
2.68467
2.51689
-2.345
5.93161
1.63374
5.78978
-5.54282
-2.13361
-5.64683
3.82122
2.00998
3.86993
4.07555
2.40636
4.11627
3.03132
-3.03505
0.00372518
-3.05657
6.08789
0.724574
-5.41605
-4.49489
4.94112
2.99445
5.14718
-5.50415
-2.17403
-5.14554
-9.52038
-6.12684
-10.1061
10.0967
5.17059
9.78796
-11.9454
11.8134
3.66796
2.55084
3.55057
-4.31058
-1.80662
-4.17723
12.7265
-3.43462
-9.29193
-10.5105
-7.5062
10.2302
5.62864
10.7602
7.76564
11.3894
4.82013
7.90642
-10.4488
2.94257
-3.87423
-1.86819
-3.79622
3.71933
2.11614
3.80411
-4.2044
-2.48236
-4.17985
-4.25127
-2.61918
4.2602
2.43488
-4.32769
-3.73522
4.45309
2.35432
3.9329
-8.62263
3.3856
-8.09615
-8.71072
-2.87312
-8.37986
5.24478
1.31988
-6.56466
-1.06937
9.63766
-6.03577
7.40246
-4.54057
-4.52936
-4.90925
-6.79921
-1.70731
-6.66319
-8.85189
8.35858
-9.16548
8.50243
12.7304
-5.70629
-7.02409
-3.96826
-2.47231
3.92033
-0.49104
-3.71228
3.716
0.0491655
3.83001
4.75248
4.26144
-3.8865
-1.93518
-3.8323
3.83335
2.0456
3.89445
6.7301
2.1683
6.72299
-6.41642
-2.55061
-6.54516
9.10507
-8.69736
2.95306
-2.94766
5.25338
2.60507
-5.03398
-2.74767
6.1162
-3.067
-3.0492
-12.2135
10.571
1.64251
-4.83606
-0.421709
-0.0889123
-5.5041
-3.78153
5.39176
0.533786
11.1048
7.32324
-5.51408
5.76103
6.16367
6.22352
-0.171344
5.85503
-5.17858
5.36374
-2.47927
-2.88448
5.28407
-5.45081
-1.26109
-5.28711
4.02601
0.338969
1.76526
-1.49603
-2.02641
-0.519268
-1.96217
1.4918
1.02509
1.67315
0.993384
1.69129
-2.92602
0.520661
2.40536
-1.93264
-1.82434
-3.67962
-1.02092
4.70054
5.53581
2.05644
-5.43338
-0.213449
2.74293
-2.69782
-0.810472
-2.86915
2.09201
-2.90248
-3.53975
-1.90704
5.44679
-3.37059
-0.461715
3.31829
0.55164
-3.82499
-2.09382
3.78479
0.331478
-3.12449
6.18897
-3.06448
-5.05968
2.52938
3.55851
4.53936
-4.7903
2.44626
2.34405
-1.23179
4.15079
0.996397
4.32425
-6.7244
4.55038
5.72906
3.14372
-6.09188
0.946339
-5.77807
8.49399
-7.30551
-1.18848
4.11215
4.38184
7.18767
5.5427
-5.7474
12.9351
-1.1575
-6.14802
6.93556
-3.79184
4.75425
-8.5461
-10.297
4.14894
-9.20258
10.9501
-1.7475
-3.59995
-8.34547
12.8025
-1.22345
-11.5791
8.56451
-4.0817
-4.84189
8.9236
-7.51633
6.64851
-1.43158
-5.21693
-10.123
-5.66724
10.2096
1.60376
-11.2847
14.2272
-3.37823
3.19257
0.358007
3.00355
3.28424
-5.68956
2.40532
4.23209
-5.66367
1.8446
-7.53416
-7.21097
11.7958
-4.58487
-10.0841
-10.2855
0.201383
2.08501
12.1422
-9.85065
6.69936
3.15129
3.31062
0.583825
-3.37925
-0.416977
0.308105
4.55011
-4.85822
4.11221
4.2138
3.42012
1.12999
3.8372
2.11183
-3.86546
-0.314387
-4.13296
1.51378
-1.69808
-3.65216
5.16594
-4.08827
0.436105
-2.73157
-3.54318
6.27475
-4.59976
3.03998
3.14899
5.08558
-4.9205
1.37732
-2.42154
-2.49896
2.71095
-4.40903
1.95659
3.20936
4.3109
0.575687
6.61205
5.18379
-7.93194
-0.164209
10.0271
-8.78684
3.22341
8.16598
-9.92277
-0.362701
-8.74256
-0.19381
-5.84196
-6.75847
5.05763
-6.76493
-3.48847
6.14499
0.578001
-6.20836
-0.454833
-6.00341
-2.84848
-6.4477
-3.06329
-6.1022
-8.81069
-1.64411
-7.16658
6.71447
-6.64898
-3.45711
7.38436
1.11808
-7.39137
7.33665
-7.46875
7.15755
0.0944804
3.62152
4.35592
1.88361
-2.38973
4.27335
-5.0678
7.23609
-8.47477
3.40697
3.96462
-6.51523
-4.51015
5.04766
4.05741
5.35612
8.97866
-10.5362
1.55757
-10.8625
12.1721
-1.30961
-16.6537
5.79116
-7.67499
2.68967
0.263395
2.71091
0.673733
2.41266
-3.0864
-2.27393
-2.27638
-2.30679
-3.37029
5.67708
1.13732
-3.36431
2.22699
-3.46789
4.60521
-0.0685717
-3.29574
5.24805
-2.83539
5.51145
-3.53646
1.97499
3.28081
5.60254
-2.32172
4.30177
-1.6967
1.81619
-4.13791
-1.5541
-3.00358
5.11972
-3.27116
3.70727
-0.261503
3.96877
-4.05398
0.986973
-0.633853
3.57995
3.7555
4.25484
-3.12485
2.93226
-4.62896
-1.20564
-4.05327
-0.843918
-0.314605
-3.77646
4.09107
6.07542
-6.39003
-5.28049
9.60127
-4.32078
7.74149
-5.41796
-2.32353
-4.28847
-4.40889
3.90714
1.94789
9.68938
0.211565
-5.62953
-4.96701
-4.0118
3.22375
2.14
-1.98356
3.62606
2.07247
-0.307206
0.576321
1.09683
1.86209
-1.28577
0.221422
1.64067
-1.2746
2.01
0.732926
-2.04623
0.0840637
-1.39587
3.48788
1.00949
-2.03458
0.748814
1.00828
-3.48755
4.7866
-2.47292
-2.31368
5.79488
1.15413
-3.62705
4.13297
-3.794
2.31721
-3.33813
-1.30984
-5.10384
-3.4701
-2.48438
4.71137
-3.19271
5.24915
1.17162
-5.0357
6.20732
-3.55845
1.65141
-3.04287
3.7758
-1.04676
-1.99611
2.75875
2.68804
-2.91563
0.0464822
-0.156883
2.29888
-2.45576
-0.603597
-2.53624
-4.5732
4.90468
-2.1065
4.55276
2.16684
-1.91365
6.46642
1.8116
-3.72525
-3.24808
-3.70979
-1.3812
3.15815
-0.1793
-3.99793
-5.39623
3.88368
0.440571
-6.97519
7.77834
-0.803149
-3.98074
-0.56964
4.68179
-5.86505
0.201384
-4.02046
3.75788
4.75428
5.19485
-11.438
-0.141029
-6.26746
1.16221
-7.42967
5.54405
-3.63094
7.77988
-10.4222
6.9651
-9.30414
6.5914
-0.838263
6.48853
-4.08321
2.8034
-8.47063
-6.86687
5.08134
-2.5305
5.43935
-3.01487
8.45422
-6.3931
5.03417
3.42005
-1.658
-3.25126
-4.45772
2.79972
0.576451
3.58
4.97416
-2.86233
4.65977
2.23162
-4.65316
-2.17741
-6.49946
1.84629
-3.35046
-1.91097
3.75727
3.1746
3.75843
1.25831
-3.34145
9.06035
-8.85897
-4.47548
-2.283
5.15449
-2.35477
5.21682
-7.49982
-0.625136
4.89755
-0.854432
-4.04312
0.808738
-4.29721
1.65215
-5.94936
5.11278
-5.56762
2.19172
-9.86671
-5.19965
-5.10777
-2.2369
-5.23185
-7.65824
5.42134
-1.86709
5.46957
-8.67491
7.82048
-3.4972
8.91855
-5.4118
-1.0359
5.82152
1.33602
10.2546
0.130054
-4.64021
-1.88921
4.00252
-2.11332
1.33454
-3.64641
0.356114
2.41573
3.37915
-6.44174
-0.0734878
-4.7137
-3.9261
7.98351
5.67517
11.7506
1.21436
9.19184
-1.20833
10.4062
4.1478
4.3787
-3.02836
4.58593
1.06271
4.46968
-0.846942
2.82193
1.86397
1.872
0.825818
2.29632
1.45918
3.28329
0.196895
-2.07948
4.64705
-8.65885
-0.982484
-8.09117
1.09973
5.73308
-4.63336
3.18331
-1.04331
1.06999
0.0758555
-1.66084
1.58499
-2.80862
-1.96805
-0.32738
-1.60601
2.35482
1.88187
-2.02744
-0.781182
0.318449
-3.78855
3.01968
-2.9732
-0.285157
5.92216
-2.71926
0.263494
-1.06785
-2.27274
-2.79201
2.70795
6.17475
0.29167
3.11026
5.19635
3.10253
0.2402
3.96225
-5.70975
-3.57191
-5.85078
-0.306737
4.37506
2.87443
9.26779
6.29448
3.93971
-3.56011
-12.4191
6.56021
-1.97428
5.2506
-1.20748
-4.74188
4.97216
2.26393
-5.55016
-0.0174572
-4.75934
-6.73362
-0.550062
8.37054
-9.70451
8.6686
5.82013
1.34645
-4.40568
-0.702086
4.2161
0.162601
10.5688
-1.12197
-6.85763
7.9796
-4.61111
3.62863
0.858921
2.76714
2.44391
1.4006
-5.45703
-10.0904
-1.92637
-1.56118
-4.24005
0.460494
-2.34237
6.27168
-2.64305
3.94816
5.33655
6.40654
-2.1727
-4.21732
6.49348
-2.54533
3.86121
)
;

boundaryField
{
    wall-4
    {
        type            calculated;
        value           uniform 0;
    }
    velocity-inlet-5
    {
        type            calculated;
        value           uniform -3.75095;
    }
    velocity-inlet-6
    {
        type            calculated;
        value           uniform -5.62643;
    }
    pressure-outlet-7
    {
        type            calculated;
        value           nonuniform List<scalar> 8(5.65371 5.57107 6.1677 7.44693 7.10069 6.59331 6.77694 7.203);
    }
    wall-8
    {
        type            calculated;
        value           uniform 0;
    }
    frontAndBackPlanes
    {
        type            empty;
        value           nonuniform List<scalar> 0();
    }
}


// ************************************************************************* //
