/*--------------------------------*- C++ -*----------------------------------*\
  =========                 |
  \\      /  F ield         | OpenFOAM: The Open Source CFD Toolbox
   \\    /   O peration     | Website:  https://openfoam.org
    \\  /    A nd           | Version:  9
     \\/     M anipulation  |
\*---------------------------------------------------------------------------*/
FoamFile
{
    format      ascii;
    class       volVectorField;
    location    "26";
    object      U;
}
// * * * * * * * * * * * * * * * * * * * * * * * * * * * * * * * * * * * * * //

dimensions      [0 1 -1 0 0 0 0];

internalField   nonuniform List<vector> 
918
(
(0.985166 -0.00050209 0)
(0.00500472 2.96626 0)
(-0.020349 1.50613 0)
(0.979702 0.00214867 0)
(-0.000898806 1.48421 3.90607e-20)
(-0.00703656 2.94878 -1.87049e-18)
(0.843726 1.18398 7.18378e-19)
(0.378172 0.171597 -9.26832e-21)
(0.999906 -0.000290143 0)
(0.0515436 0.850672 0)
(-0.0207953 0.623931 0)
(0.733349 -0.00916154 0)
(0.0111335 2.93031 0)
(0.00231544 2.79469 0)
(-0.0174088 3.16229 1.06862e-18)
(0.0306351 1.2531 1.93558e-19)
(0.478128 0.0710178 5.80886e-19)
(0.190378 1.21687 6.21048e-19)
(0.962873 0.00498785 0)
(-0.0330426 1.0462 0)
(0.105096 0.215045 -4.66813e-19)
(1.00201 -0.00498417 0)
(1.00021 -0.00980282 0)
(0.975709 -0.00644961 0)
(0.628312 -0.0433889 0)
(0.0165727 2.63583 0)
(-0.0149674 2.91009 6.4632e-19)
(-0.0503996 1.48388 0)
(-0.0554002 1.64336 0)
(-0.0302908 1.48916 0)
(-0.0110125 1.98597 0)
(0.0309091 1.51318 -3.08712e-20)
(0.026975 1.31293 0)
(-0.0206154 2.98759 -6.54238e-23)
(-0.0166981 3.0053 1.45386e-18)
(0.00210726 3.0002 0)
(0.869972 -0.00944777 0)
(0.401994 0.940081 -2.28138e-20)
(0.820162 1.20324 -1.00385e-18)
(0.969326 1.03745 9.43761e-19)
(0.688456 1.29962 -1.66619e-19)
(0.687519 1.28973 9.32695e-19)
(0.418545 0.265692 9.04266e-21)
(0.409606 0.155441 0)
(1.15713 0.559571 0)
(0.379837 0.270424 4.19062e-20)
(0.330526 0.172464 -4.34908e-20)
(0.919608 -0.00751978 0)
(1.00029 0.000154706 0)
(0.999911 0.000347004 0)
(1.00364 -0.00779326 0)
(1.00096 -0.000959579 0)
(1.00017 1.82558e-05 0)
(0.0763575 1.77762 -2.27959e-19)
(0.0430823 0.99234 0)
(0.0961644 0.9351 0)
(0.0211323 0.934614 0)
(0.0415017 0.784081 0)
(-0.0411482 1.95255 0)
(0.019165 0.758539 0)
(0.0102878 0.643239 0)
(-0.0211938 0.751505 0)
(-0.0296026 0.669254 0)
(0.831159 -0.0135483 0)
(0.853091 0.0238011 0)
(0.766134 0.00206329 0)
(0.830582 0.027246 0)
(0.711684 -0.0172831 0)
(0.0147002 3.0004 6.84794e-19)
(0.0115248 3.00795 0)
(0.00612942 3.00283 0)
(0.0135549 2.99735 7.63638e-24)
(0.00798599 2.95845 -1.01777e-18)
(0.0144816 2.98202 0)
(0.0108043 2.90364 0)
(0.0250595 2.93022 1.36662e-24)
(0.00425944 2.82508 0)
(0.03158 2.91571 0)
(-0.00613528 2.74528 0)
(0.31116 3.56244 0)
(-0.132142 3.64455 0)
(0.141146 3.25311 -9.9449e-19)
(-0.0118404 2.98606 0)
(-0.11496 1.89342 0)
(0.0681996 1.44052 -1.90945e-19)
(-0.0135815 1.24666 2.32683e-19)
(0.549757 0.155451 -2.00146e-19)
(0.479363 0.0402494 -1.93579e-19)
(0.528696 0.180483 -6.03917e-19)
(0.463065 0.0923441 -4.05241e-19)
(0.217028 0.908309 0)
(0.269929 1.35815 -6.50201e-19)
(0.387991 1.30735 1.06803e-18)
(0.987615 0.00855995 0)
(0.942171 0.00591396 0)
(1.0003 0.000576854 0)
(1.00287 0.00930485 0)
(1.00301 0.00842872 -1.15443e-18)
(0.991925 0.00971086 8.71651e-19)
(-0.060592 1.13035 0)
(-0.0477319 0.933664 0)
(-0.0754598 1.45533 0)
(-0.0469034 1.26136 0)
(-0.0198575 1.17263 0)
(0.15724 0.223611 1.44036e-19)
(0.207489 0.200533 0)
(0.993513 -0.00839413 0)
(0.954357 -0.00647319 0)
(0.793759 0.0302211 0)
(0.755593 0.0402933 0)
(0.682938 -0.0330229 0)
(0.965688 -0.00355404 0)
(0.69188 0.0580126 0)
(0.531158 -0.0201741 7.76084e-19)
(-0.0359561 2.86529 3.34298e-19)
(0.0425651 2.90908 0)
(0.0556327 2.88396 0)
(-0.00473593 2.69811 0)
(-0.0132083 2.98512 5.94123e-19)
(-0.0181608 2.89522 0)
(-0.0154403 2.9881 -1.87961e-18)
(-0.0133494 2.9252 6.49316e-19)
(-0.10726 1.69966 0)
(-0.104078 1.75758 0)
(0.0673096 1.45242 4.99762e-21)
(0.0525072 1.45004 0)
(0.0160041 1.279 0)
(0.937347 -0.00764588 0)
(0.855256 -0.00929403 0)
(0.864492 0.00730988 0)
(0.948719 -0.00786445 0)
(0.883292 -0.00852493 0)
(0.515339 1.13521 1.79807e-20)
(0.566237 1.188 0)
(0.363715 0.881797 5.63698e-21)
(0.30627 0.742158 0)
(0.929273 1.07639 -2.72837e-19)
(1.04285 0.87711 5.58373e-19)
(0.381872 1.39725 0)
(0.542534 1.36688 0)
(0.546251 1.32777 0)
(0.102588 0.167786 -1.40333e-19)
(0.46175 0.251099 0)
(0.445108 0.144632 1.16303e-19)
(1.01303 0.931015 0)
(1.08104 0.777619 0)
(1.1062 0.71979 -4.88266e-19)
(1.13721 0.61882 0)
(1.1872 0.403866 5.75254e-20)
(0.957275 -0.00863545 0)
(0.962224 -0.0100817 0)
(0.901303 -0.00813997 0)
(0.984114 -0.0091769 0)
(0.97456 -0.00940007 0)
(0.936989 -0.0062816 0)
(1.00018 0.00232953 0)
(1.00089 0.00142621 0)
(0.999907 0.000851338 0)
(0.0348564 2.04087 1.48264e-19)
(0.122127 1.71695 0)
(0.0226561 2.15208 1.2344e-19)
(0.0508587 1.85075 -4.36051e-20)
(0.137215 1.20743 -5.14344e-19)
(0.0458229 1.08028 0)
(0.0950434 1.07841 0)
(0.0163116 0.871081 0)
(-0.00760598 0.72471 0)
(-0.0425006 2.16451 2.79354e-21)
(-0.0126344 1.96892 0)
(-0.0750697 2.09099 1.79098e-19)
(-0.0630697 1.86797 -3.58795e-19)
(0.000494905 0.844273 0)
(0.0202534 0.807689 0)
(-0.000359256 0.683248 0)
(-0.0397662 0.794845 0)
(-0.036605 0.729174 0)
(0.927096 0.00839495 0)
(0.838783 -0.0107074 0)
(0.921167 -0.000656791 0)
(0.83744 -0.0114458 0)
(0.813888 0.00527669 0)
(0.904149 0.0177379 0)
(0.882291 0.0204413 0)
(0.789801 0.00317737 0)
(0.00576469 3.06481 -6.01958e-21)
(0.0164308 3.05789 0)
(0.0146227 2.96912 0)
(0.00855747 2.87637 0)
(0.929838 3.98246 0)
(1.24563 3.31402 1.01043e-18)
(0.0708716 3.0783 0)
(-0.0274969 2.90814 0)
(-0.15796 1.74807 0)
(-0.161599 1.86561 0)
(-0.128734 1.80667 0)
(-0.0359394 1.99595 -7.65779e-21)
(-0.128849 1.9424 0)
(-0.0787254 1.92099 0)
(-0.0805157 1.52657 1.39106e-20)
(-0.0550246 1.61417 -2.21529e-19)
(0.014959 1.48609 -2.38123e-19)
(-0.0639696 1.33566 0)
(0.578346 0.124566 2.93286e-19)
(0.495552 0.0151406 -2.86673e-19)
(0.259762 1.54095 0)
(0.26242 0.682803 -2.12204e-19)
(0.178395 1.63077 -7.1202e-19)
(0.226222 1.15992 7.13805e-19)
(0.902648 0.0066699 0)
(0.967628 0.0109541 0)
(0.974774 0.0107859 0)
(0.923676 0.0067005 0)
(-0.0547533 0.874336 0)
(-0.0539878 0.990974 0)
(-0.0572785 0.826017 0)
(0.324351 0.262029 3.82867e-19)
(0.266929 0.238735 -4.60957e-19)
(0.2767 0.185422 0)
(1.09343 0.0866965 -2.77492e-21)
(1.07725 0.0404046 0)
(1.00508 0.041383 0)
(0.900648 0.00239738 0)
(0.601589 0.0957414 0)
(0.631936 0.0700473 -1.24902e-18)
(0.51084 0.00033656 4.76582e-19)
(0.00940553 2.98159 4.22223e-19)
(-0.032645 2.86664 4.70805e-20)
(0.00373443 3.05025 -1.30083e-20)
(0.0200239 3.04342 4.67319e-19)
(-0.0149849 2.99655 2.15928e-20)
(-0.0129878 2.94943 -8.73705e-23)
(-0.0172942 3.01198 -4.09308e-19)
(0.014858 3.0239 2.96376e-19)
(0.00735907 3.03687 -4.63001e-19)
(0.93046 -0.000952613 0)
(0.937355 -0.00373897 0)
(0.843521 -0.00810464 0)
(0.956964 0.0114343 0)
(0.943574 0.012415 0)
(0.882544 0.00638504 0)
(0.919667 0.0153709 0)
(0.927627 0.0143261 0)
(0.840277 0.00613944 0)
(0.721755 1.41677 3.16409e-19)
(0.756194 1.52674 0)
(0.208821 0.355147 2.75011e-20)
(0.184817 0.62896 2.28043e-19)
(0.255614 0.706836 -1.31076e-19)
(0.271626 0.561607 2.46564e-19)
(0.308288 0.730086 7.91341e-19)
(0.115102 0.197586 2.22109e-19)
(0.508451 0.200947 4.34535e-19)
(0.491009 0.225214 1.09921e-19)
(0.458092 0.120496 2.19181e-19)
(1.17546 0.460642 2.88824e-19)
(1.18885 0.255877 2.99819e-19)
(0.00340475 2.16358 4.31964e-21)
(0.0523104 1.91392 0)
(0.958176 0.0315687 0)
(0.928863 0.0166253 0)
(0.858386 -0.0085067 0)
(0.0112758 3.0747 0)
(0.0200172 2.94421 8.02286e-19)
(0.0164727 2.95652 0)
(0.0061141 2.85065 -7.95911e-19)
(0.00619241 3.09174 1.90207e-19)
(0.00705835 3.08213 0)
(0.789882 1.83077 -2.36469e-19)
(1.25326 2.51151 6.50342e-19)
(0.772356 1.97109 -1.48319e-18)
(0.0206465 2.98338 -3.10153e-19)
(0.0363285 3.00441 0)
(-0.0331331 2.88054 0)
(-0.119415 1.96632 -8.81171e-21)
(-0.104139 1.78572 4.07105e-19)
(-0.101188 1.71953 -6.68568e-21)
(0.274533 1.34893 6.93315e-19)
(0.212127 0.460526 -4.77826e-19)
(0.0624828 1.9626 4.64356e-19)
(0.13778 1.85104 -5.83642e-19)
(0.178453 1.4556 8.60423e-20)
(0.00493013 3.11881 -9.98413e-19)
(0.0110764 3.11924 1.08943e-18)
(-0.00892504 2.98087 5.16572e-19)
(-0.0040969 2.9776 -4.56913e-19)
(-0.0214747 2.88118 -5.26122e-19)
(0.00848267 3.09983 -1.39232e-18)
(0.00196228 3.10493 1.39536e-18)
(0.247973 0.644495 0)
(0.206272 0.633692 -4.46399e-19)
(0.104998 0.213825 2.01919e-19)
(0.330404 0.851215 6.67384e-19)
(0.174764 0.237945 -1.02213e-18)
(1.18026 0.173417 -5.359e-20)
(1.18884 0.309112 0)
(1.16877 0.121147 1.16134e-19)
(-0.00310488 2.19494 2.37288e-21)
(-0.000907228 2.18715 0)
(0.0294731 1.95107 0)
(0.3376 1.2463 -2.51395e-19)
(0.355174 1.06411 -5.355e-19)
(0.185918 0.332049 9.23268e-19)
(1.00583 -0.01092 0)
(1.00764 -0.00767208 2.10738e-19)
(-0.136742 1.64145 0)
(-0.142769 1.61744 0)
(1.00222 0.00353973 1.83627e-21)
(1.00369 0.00942627 4.33581e-19)
(-0.0323523 2.01647 9.80602e-21)
(-0.0131248 2.0457 0)
(0.0373023 3.1809 1.22091e-19)
(0.399185 3.49756 0)
(1.12665 0.645491 6.14965e-20)
(1.01297 0.0130888 -2.08293e-21)
(1.02111 -0.0105652 0)
(1.00173 0.000137865 1.00542e-22)
(0.10457 1.35642 0)
(0.143815 2.57606 0)
(0.0456616 1.08737 0)
(-0.0116758 2.62702 -2.09849e-19)
(-0.142513 2.62787 -2.31209e-19)
(1.00711 0.0283523 2.65703e-21)
(1.05721 -0.00404989 0)
(1.08094 0.0204765 0)
(-0.182691 1.86729 0)
(-0.103967 2.28193 0)
(-0.235553 1.34174 0)
(0.275595 1.46624 -4.27533e-19)
(1.01124 -0.00972004 0)
(1.00934 -0.0149885 0)
(1.00251 0.000702515 2.69009e-19)
(1.00548 -0.00489876 -3.16446e-19)
(1.0012 -0.00103953 0)
(-0.241491 1.78941 0)
(-0.183843 1.65422 0)
(-0.193557 1.74363 0)
(-0.22041 1.36459 0)
(-0.189259 1.50754 0)
(-0.166772 1.43433 0)
(1.03444 -0.00707813 0)
(1.02074 0.0153168 -1.06406e-21)
(0.784111 1.25653 5.10303e-19)
(1.0022 0.000374316 -2.6669e-19)
(1.00411 0.00527307 3.16079e-19)
(1.00116 0.00205028 0)
(1.01292 0.0102434 2.62134e-19)
(1.00796 0.00820294 -3.24767e-19)
(1.00871 0.0145377 0)
(-0.0827838 2.26917 0)
(-0.0369314 2.13993 -1.18848e-19)
(-0.02688 2.15869 1.00166e-19)
(1.1982 0.260078 -5.11255e-20)
(1.1358 0.0893574 0)
(0.0476379 3.07742 -5.20617e-19)
(0.0667862 2.85219 -4.12627e-20)
(0.144775 3.19504 8.35012e-19)
(0.139305 3.22422 -7.05981e-21)
(0.137648 3.23806 0)
(0.0203634 3.13809 1.14468e-19)
(0.0783253 3.16107 5.07445e-19)
(0.0708586 3.18789 -2.20743e-19)
(0.0238955 3.12887 0)
(0.658453 0.321347 0)
(0.577691 0.371896 0)
(1.09783 0.674765 -2.38416e-19)
(1.0955 0.807868 3.71693e-19)
(1.15622 0.565927 0)
(1.18628 0.51205 0)
(1.01616 0.0132653 -4.85113e-19)
(1.01498 0.0141469 6.05949e-19)
(1.02505 -0.0104392 0)
(1.02299 -0.0124607 0)
(1.00662 0.00239128 0)
(1.01057 0.00361207 0)
(1.00438 0.001811 0)
(1.00981 0.00621425 0)
(1.00787 0.00579783 0)
(1.00449 0.00451368 0)
(0.0941537 1.3575 0)
(0.0879528 1.31599 0)
(0.119469 1.38318 0)
(0.138266 1.40718 0)
(0.146439 2.59752 0)
(0.189225 2.65612 -2.08939e-19)
(0.09913 2.65468 0)
(0.079433 2.65718 -9.51831e-21)
(0.0273123 2.68077 2.04757e-19)
(0.0301278 1.04497 0)
(-0.0352197 0.943836 0)
(0.126132 1.12718 0)
(0.0489557 1.07518 0)
(0.0441488 2.09475 3.40948e-19)
(-0.12885 2.64787 -2.92368e-19)
(-0.031577 2.68033 -3.53931e-19)
(-0.0923049 2.67569 0)
(-0.18775 2.65812 6.18113e-19)
(-0.210948 2.62016 3.77122e-19)
(0.0775441 2.1723 -2.23428e-19)
(-0.0937765 2.55885 4.13643e-19)
(-0.0087835 2.53494 4.25758e-19)
(1.01563 0.0349494 4.84002e-19)
(1.00857 0.0205277 -5.94867e-19)
(1.00745 0.0387448 -4.92243e-19)
(0.98948 0.018082 6.36667e-19)
(1.05786 0.00182613 0)
(1.04516 -0.0121825 0)
(1.08011 0.0266178 0)
(1.06409 0.00476854 0)
(1.06025 -0.0041507 0)
(1.11981 0.0795325 0)
(1.09245 0.0436049 0)
(1.094 0.0365241 0)
(-0.124449 2.03293 2.61345e-21)
(-0.212318 1.96791 0)
(-0.150729 1.96526 0)
(-0.167036 2.41278 -1.19954e-19)
(-0.154633 2.41769 6.57181e-21)
(-0.350271 1.87685 -7.49748e-20)
(-0.267477 1.79973 7.76494e-20)
(-0.30192 1.58074 0)
(-0.28232 1.61608 0)
(-0.246028 1.64389 0)
(-0.249988 1.29074 0)
(-0.149253 1.12386 0)
(0.371637 1.47774 8.12261e-19)
(0.404803 1.49052 3.22751e-19)
(0.591316 2.43982 -1.5807e-19)
(0.407148 2.53322 4.33451e-19)
(0.352777 2.08529 -4.39107e-20)
(1.02097 -0.00855291 0)
(1.01546 -0.00994532 0)
(1.01479 -0.0156314 0)
(1.0078 -0.00146482 0)
(1.00494 -0.00115469 0)
(1.00772 -0.0049107 0)
(1.00922 -0.00376001 0)
(1.01405 -0.00452955 0)
(1.02151 0.0157283 4.62845e-19)
(1.01801 0.0157425 -5.96734e-19)
(1.02212 0.0175416 -4.63518e-19)
(1.01942 0.0163196 5.80262e-19)
(0.752891 1.30736 0)
(0.687567 1.36113 5.9732e-19)
(0.862635 1.19934 3.49027e-19)
(0.907933 1.15596 -4.64293e-19)
(1.15861 2.61728 -5.09722e-19)
(0.831669 0.0985795 3.04582e-19)
(1.13638 0.103527 0)
(1.17983 0.184655 4.52877e-20)
(1.1648 0.158038 2.03951e-21)
(0.995346 0.12731 0)
(0.141019 2.96396 1.57019e-19)
(0.119452 2.86968 -6.79433e-19)
(0.030735 2.36569 4.82378e-19)
(0.09581 0.0461118 -2.02999e-19)
(0.344107 3.42624 -4.29284e-19)
(0.19759 3.31746 0)
(0.239877 3.36051 5.59064e-19)
(0.250869 3.03696 -8.15191e-19)
(0.344924 3.19632 0)
(0.00775649 3.12052 2.66808e-20)
(0.0183646 3.12944 -3.36463e-19)
(0.0163803 3.12545 4.95232e-19)
(0.0368848 3.13959 0)
(0.0351364 3.15123 0)
(1.22063 2.61789 0)
(0.548646 0.841833 -2.5435e-19)
(1.02645 0.983716 -1.96302e-19)
(0.96444 1.05225 0)
(0.809592 0.953216 4.81145e-20)
(1.04913 0.865838 3.01777e-20)
(0.383653 0.422557 -5.41367e-19)
(0.700142 0.332351 -2.34111e-20)
(0.688247 0.25749 2.3728e-19)
(0.591381 0.402792 1.82406e-20)
(0.516223 0.380599 -7.44517e-19)
(0.669348 0.357006 0)
(0.691079 0.433152 3.90463e-19)
(0.696172 0.431841 0)
(0.628374 0.389261 0)
(0.613323 0.322536 0)
(0.777956 0.608512 1.44588e-19)
(1.19548 0.278258 2.71985e-20)
(1.19074 0.414457 0)
(1.2042 0.362436 0)
(0.770237 0.204256 3.48408e-19)
(0.823904 0.542779 -1.95578e-19)
(0.731397 0.515337 3.20221e-19)
(0.918915 0.418294 -3.03659e-19)
(1.01996 0.0144441 3.20806e-19)
(1.01796 0.0140532 -3.26416e-19)
(1.01599 0.0154632 0)
(1.03546 -0.0065533 0)
(1.02932 -0.0088458 -2.94745e-19)
(1.02706 -0.012889 2.91657e-19)
(1.02526 0.00948768 0)
(1.02394 0.0129358 0)
(1.01146 0.00393325 0)
(1.01437 0.00869679 0)
(1.01522 0.00346758 0)
(1.01408 0.00270336 0)
(0.0687945 1.34344 0)
(0.0712639 1.26586 0)
(0.149117 1.33749 3.22936e-19)
(0.25805 1.46423 2.43501e-19)
(0.156655 1.43692 5.17036e-19)
(0.184602 1.44494 -8.45938e-19)
(0.180438 1.37237 0)
(0.130548 1.60467 2.67935e-19)
(0.109447 1.56782 0)
(0.352432 2.04121 6.38014e-20)
(0.351472 2.36959 2.44764e-19)
(0.18119 1.44177 -2.33834e-19)
(0.26394 1.36214 1.83717e-19)
(0.199045 1.3532 -1.47218e-19)
(0.274469 1.30148 2.99799e-19)
(0.245772 1.57983 0)
(0.251612 1.61912 -1.95304e-19)
(0.0454849 2.26737 9.90828e-20)
(0.0464555 2.66655 0)
(0.0670223 2.3931 -1.71456e-19)
(0.031815 2.41426 0)
(0.0631446 2.66462 9.28275e-21)
(0.0470632 2.69603 0)
(0.146675 1.48284 4.36462e-19)
(0.20748 1.60949 0)
(0.183792 1.37406 0)
(0.192574 1.36211 -4.92021e-19)
(-0.0130131 2.65425 -3.64724e-20)
(0.0373919 2.69172 -2.68822e-19)
(0.0107702 2.7188 -1.89185e-21)
(-0.0736057 2.15702 -3.51538e-19)
(0.122862 1.88045 -1.72242e-19)
(-0.0714786 0.984553 0)
(-0.0540266 0.918384 0)
(0.0891419 1.64539 -4.45089e-19)
(0.144966 1.4724 -4.51543e-19)
(0.1367 1.62556 5.73643e-19)
(0.0643032 1.63513 0)
(-0.286622 2.23955 4.86433e-19)
(-0.234043 2.42941 -1.89658e-19)
(-0.254377 2.44608 6.33357e-20)
(-0.148365 2.11832 4.19398e-19)
(-0.248034 2.55745 1.30877e-19)
(-0.205703 2.56044 -4.94263e-19)
(1.02097 0.0206651 -3.14711e-19)
(1.01818 0.0266083 3.17245e-19)
(1.01468 0.0180849 0)
(1.0168 0.0545951 4.53074e-19)
(0.996396 0.0455205 -5.31908e-19)
(0.962025 0.0270218 6.13993e-19)
(1.01525 0.0870293 -5.87988e-20)
(1.04165 -0.00688973 0)
(1.04818 -0.00415686 2.64957e-19)
(1.03772 -0.0110457 -2.64717e-19)
(1.06502 0.0341423 -1.4655e-20)
(1.05781 0.0142691 1.30615e-19)
(1.06284 0.0465133 0)
(1.05856 0.038567 -4.84903e-20)
(1.03756 0.0340455 0)
(1.03211 0.0314619 0)
(1.02713 0.0125717 0)
(1.02444 0.015169 0)
(1.04375 0.0254803 1.00809e-19)
(1.0398 0.0189181 -2.29603e-19)
(1.05339 0.0214556 -1.02769e-19)
(1.05136 0.02244 -1.17719e-19)
(1.07071 0.0554931 2.12162e-19)
(1.08226 0.0490951 0)
(1.08972 0.0946461 0)
(-0.292979 2.20716 1.17769e-19)
(-0.25134 2.01098 6.26625e-21)
(-0.256416 2.04373 0)
(-0.181759 2.206 -1.17443e-19)
(-0.127151 2.0835 -8.81263e-21)
(-0.155249 2.1429 1.96124e-20)
(-0.207177 2.61679 -3.20629e-19)
(-0.223855 2.53849 2.35964e-20)
(-0.251371 2.54271 -1.04548e-19)
(-0.197694 2.5473 2.21219e-19)
(-0.205016 2.54779 -2.52513e-19)
(-0.420861 1.74077 -1.06372e-20)
(-0.358439 1.90337 -1.92392e-19)
(0.362673 1.4086 -4.00356e-19)
(0.358875 1.35182 -3.79118e-19)
(0.637313 1.40897 -5.77724e-19)
(0.506587 1.47353 -3.1153e-19)
(0.555051 1.44983 0)
(0.588129 2.41329 1.26965e-19)
(0.655379 2.40295 2.29188e-19)
(0.412356 2.50899 7.97082e-20)
(0.405948 2.55378 -1.81379e-19)
(0.515102 2.5113 2.79838e-19)
(0.545278 2.453 0)
(0.488643 2.50033 -3.60366e-19)
(0.250803 2.58181 6.04736e-19)
(0.355679 2.55649 -7.96716e-20)
(0.287139 2.6408 -9.1862e-19)
(0.928604 2.38274 2.54657e-19)
(0.827437 2.3798 0)
(1.01065 7.52889e-05 1.06606e-20)
(1.01489 -0.00557279 -8.65677e-21)
(1.01756 -0.00371757 -1.56813e-19)
(1.01473 -0.00085199 1.57438e-19)
(1.01211 0.000831407 0)
(0.62443 1.27983 0)
(0.636461 1.15724 0)
(0.737837 1.06648 0)
(0.628065 1.13097 0)
(1.18591 2.63421 5.68843e-20)
(1.07543 2.3733 0)
(0.843768 2.22041 -1.49794e-21)
(0.827723 2.47749 0)
(0.921441 2.56299 3.08216e-21)
(0.957576 2.51667 -2.05732e-21)
(0.840832 0.147623 0)
(0.809848 0.138594 8.74057e-20)
(0.926639 0.122851 4.52469e-19)
(0.859971 0.117754 -1.80367e-19)
(0.843618 0.0635309 -5.41836e-19)
(1.04918 0.219085 -2.7297e-19)
(0.965487 0.273079 -1.57327e-20)
(0.906067 0.270764 4.13031e-19)
(0.983097 0.200071 3.08479e-19)
(0.94045 0.160455 -5.72018e-19)
(0.91337 0.169478 7.38449e-20)
(0.940771 0.232254 -1.44624e-19)
(0.917465 0.191918 0)
(0.979015 0.159321 2.75035e-19)
(1.02673 0.167267 0)
(1.02015 0.193148 0)
(1.08351 0.11148 9.03657e-20)
(1.05191 0.159762 -1.308e-20)
(1.04364 0.222642 -5.05629e-20)
(1.07843 0.193599 0)
(1.02738 0.0372312 2.38652e-19)
(1.04735 0.0483332 2.85101e-19)
(1.04011 0.0349355 -2.37806e-19)
(1.04844 0.0543099 -1.91857e-19)
(1.02445 0.0595467 -3.18929e-19)
(0.980359 0.129197 0)
(0.999198 0.0816984 0)
(0.970629 0.0438667 -2.22226e-19)
(0.928604 0.060338 9.20151e-20)
(1.03676 0.0868526 2.6901e-19)
(1.05609 0.11236 -2.75516e-19)
(1.06111 0.13978 2.51847e-19)
(1.02584 0.127782 0)
(1.06544 0.100089 0)
(1.05368 0.0802283 -1.14537e-19)
(1.04771 0.0836981 -2.15705e-19)
(0.582126 1.08856 -8.27473e-20)
(0.61913 1.43227 1.85324e-19)
(1.16013 2.75297 8.52038e-20)
(1.22723 3.09168 -6.69168e-20)
(1.25099 2.73333 5.28648e-19)
(1.28306 2.71679 -3.2525e-19)
(1.21071 2.35599 -8.73351e-21)
(1.21375 2.99608 1.79999e-19)
(1.23205 2.96152 -1.92664e-19)
(1.2191 3.24541 -2.62057e-19)
(1.38084 2.97806 3.62721e-19)
(1.37307 2.89575 0)
(0.542945 0.849612 -1.52619e-20)
(0.151003 1.27158 3.84498e-19)
(0.52543 0.484907 3.55988e-19)
(0.364228 0.248696 3.87523e-19)
(0.535634 0.405671 4.18302e-19)
(0.545681 0.489007 -6.49912e-19)
(0.547667 0.491036 5.33119e-19)
(0.502955 0.426446 -2.14515e-19)
(0.438417 0.365172 4.92941e-19)
(0.773086 0.257126 -1.94799e-19)
(0.734683 0.287955 0)
(0.727623 0.225972 1.07376e-20)
(0.715547 0.519608 2.00315e-19)
(0.682357 0.489681 -7.39445e-19)
(0.60546 0.484456 1.70645e-20)
(0.619425 0.475028 0)
(0.673164 0.724405 1.61728e-19)
(0.807887 0.760392 7.54736e-20)
(0.736086 0.836564 -9.55664e-20)
(0.849972 0.796503 -2.3785e-20)
(0.879843 0.835936 1.18047e-20)
(0.888677 0.837451 -1.20859e-20)
(0.819721 0.638469 -2.4655e-19)
(0.898412 0.693415 2.21078e-20)
(0.951794 0.703162 0)
(0.942013 0.677793 -2.29441e-20)
(0.992007 0.313803 6.9112e-20)
(1.10773 0.28667 1.48359e-20)
(1.03339 0.254558 1.11568e-19)
(0.972019 0.346387 -1.56263e-19)
(1.01797 0.411099 0)
(1.07227 0.401014 0)
(0.894083 0.353417 5.24623e-21)
(0.837039 0.286844 0)
(0.853698 0.277062 2.11628e-19)
(0.889583 0.278293 -6.18465e-21)
(0.911013 0.421526 8.32009e-19)
(0.868894 0.485454 2.11863e-19)
(0.871921 0.44978 -2.6746e-19)
(0.8027 0.436708 2.87079e-19)
(0.786627 0.43823 1.9374e-19)
(0.753933 0.423581 -1.90118e-19)
(1.02776 -0.000630315 2.48505e-19)
(1.02004 -5.6463e-05 0)
(1.01847 0.00102081 1.67803e-19)
(1.02173 -0.00207035 -3.77861e-19)
(1.02213 0.00393271 1.83496e-19)
(1.02031 0.0107411 -3.85215e-19)
(1.02139 0.0102301 0)
(1.02107 0.0104333 -8.12189e-20)
(1.01589 0.00741378 2.03774e-19)
(1.01671 0.0100364 -1.0185e-19)
(1.0175 0.00924923 7.48959e-20)
(0.088445 1.21038 0)
(0.173301 1.29587 0)
(0.079687 1.29829 0)
(0.0629066 1.15399 0)
(0.0641229 1.39015 -6.87257e-19)
(0.076465 1.35545 2.24094e-19)
(0.0994512 1.49952 1.50808e-19)
(0.0789382 1.36214 -1.71314e-19)
(0.111329 1.48652 4.2403e-19)
(0.0956179 1.46104 -3.22648e-19)
(0.0769555 1.37241 -5.38284e-21)
(0.0924276 1.38503 4.25834e-19)
(0.117847 1.33802 6.42326e-20)
(0.13267 1.38777 5.78197e-20)
(0.103055 2.39015 1.8865e-19)
(0.0996967 2.43062 0)
(0.178364 2.06878 -3.79399e-20)
(0.0912376 1.72044 -1.09904e-19)
(0.226345 2.06994 2.55797e-20)
(0.215779 2.45251 0)
(0.26942 2.40609 -1.36168e-19)
(0.304909 2.40704 9.7112e-20)
(0.234267 2.01505 7.45196e-20)
(0.155642 2.18282 5.08086e-21)
(0.145883 2.30877 0)
(0.053861 1.90527 4.34736e-19)
(-0.0258738 2.41385 4.89953e-19)
(0.025755 2.21388 0)
(0.0158324 2.44428 -1.74038e-20)
(-0.00225201 2.30418 -2.01539e-19)
(0.080724 1.36075 -8.56481e-20)
(-0.0229453 1.24725 1.41266e-18)
(-0.0291045 1.32825 -3.77566e-19)
(0.0845648 1.44438 -4.94782e-19)
(0.121889 1.52666 0)
(-0.127938 1.18963 0)
(-0.195312 1.11606 -3.20862e-19)
(-0.237168 1.17814 1.05982e-19)
(-0.164261 1.16692 0)
(-0.129464 1.01116 -2.61671e-19)
(-0.115896 1.01383 4.97146e-19)
(1.04119 0.00872771 0)
(1.04577 0.00477435 -2.48634e-20)
(1.04023 0.0171312 -1.82815e-19)
(1.04906 0.01273 0)
(1.05022 0.0117532 0)
(1.03531 0.00868834 -6.1733e-21)
(1.03127 0.00996127 3.0036e-19)
(1.03111 0.0137604 3.63122e-19)
(1.02625 0.0186174 0)
(1.02414 0.0195281 0)
(1.03572 0.0207253 1.83857e-19)
(1.02737 0.025228 0)
(1.02636 0.0235245 0)
(-0.355082 2.22333 0)
(-0.40057 1.96856 -4.68906e-20)
(-0.407438 2.126 -1.12327e-19)
(-0.255885 1.32509 0)
(-0.4416 1.85691 -2.12953e-19)
(-0.414545 1.67054 6.6532e-20)
(-0.367519 1.40271 0)
(0.387577 1.69731 0)
(0.359397 1.27875 6.212e-19)
(0.300746 1.33668 0)
(0.411089 1.27194 -8.1007e-19)
(0.458869 1.44352 0)
(0.438041 1.38476 3.7889e-19)
(1.02882 2.7047 -4.77556e-21)
(0.952758 2.41718 -3.21518e-19)
(0.893856 2.17547 3.65534e-19)
(0.839604 2.37334 1.24997e-19)
(0.844891 2.51939 0)
(0.912163 2.51277 0)
(0.909183 2.37662 0)
(0.893969 2.35453 -4.74992e-19)
(0.69173 2.49541 -2.59531e-20)
(0.801383 2.48676 -1.63527e-20)
(0.813166 2.45903 1.25161e-20)
(0.688739 2.38247 0)
(0.792572 2.38138 0)
(0.752305 2.39118 -2.33602e-19)
(0.770227 2.50729 0)
(0.591655 1.08643 0)
(0.491318 0.942248 -2.65872e-20)
(0.548849 0.968886 -2.95481e-21)
(0.519856 1.06861 0)
(0.523378 1.02484 4.25385e-20)
(0.758812 0.854697 6.69531e-21)
(0.764629 0.997761 0)
(0.740388 0.955354 -5.20973e-20)
(0.62527 1.01991 0)
(0.633664 0.935459 0)
(1.16435 2.7743 4.21494e-20)
(1.14303 2.83814 1.13238e-19)
(0.935254 2.3645 -2.6522e-19)
(0.90175 2.34041 2.99773e-20)
(1.12771 2.74767 0)
(1.07932 2.71849 -3.58752e-20)
(1.08604 2.49686 -9.01411e-20)
(0.98207 2.23477 -2.97273e-20)
(0.496633 1.37179 0)
(0.505792 1.07796 7.29763e-20)
(0.543056 1.14964 0)
(0.860037 0.216929 0)
(0.818976 0.168814 0)
(0.77539 0.156881 0)
(0.850621 0.223273 -3.32844e-19)
(0.793058 0.221864 2.05621e-19)
(0.937537 0.0506406 -1.88892e-19)
(0.952519 0.099377 0)
(0.925341 0.104676 8.42767e-20)
(0.884575 0.0818569 3.44554e-19)
(0.869535 0.045886 -2.11832e-19)
(1.16778 3.37055 -9.67808e-19)
(1.21465 3.28992 0)
(1.16666 3.3975 -1.90761e-18)
(0.653274 3.55751 1.63729e-18)
(0.881017 3.12306 3.56764e-19)
(0.520667 0.875536 2.57885e-19)
(0.443176 0.872239 0)
(0.353897 0.518415 -8.78452e-20)
(0.4554 0.689387 4.12653e-19)
(0.530518 0.485593 -1.15742e-19)
(0.509906 0.524471 1.35773e-19)
(0.650986 0.53789 2.78779e-19)
(0.680009 0.562405 0)
(0.639916 0.617411 0)
(0.592729 0.557268 0)
(0.949437 0.584469 -4.71735e-20)
(0.87143 0.531937 -2.04956e-19)
(0.89873 0.566001 1.02531e-19)
(0.928408 0.501516 -1.5085e-19)
(1.03136 0.468359 0)
(1.04316 0.556176 -9.67297e-21)
(0.828835 0.388571 -4.2825e-19)
(0.833951 0.372298 -4.96343e-19)
(0.783826 0.386028 3.35888e-19)
(0.777095 0.352829 -3.77943e-19)
(0.833625 0.307759 -2.79723e-19)
(0.788152 0.305286 3.44173e-19)
(1.02634 0.00537842 -1.95113e-19)
(1.02604 0.00587661 4.00257e-19)
(1.02917 -0.00104279 2.3571e-19)
(1.03325 0.000819254 -2.91829e-19)
(1.03319 0.00752672 0)
(1.02977 0.0077813 -4.70252e-19)
(0.036077 1.66019 -6.0599e-20)
(0.055038 1.5793 0)
(0.0582887 1.69675 -4.93559e-19)
(0.07278 1.68152 4.54789e-19)
(0.0730512 1.50289 -2.79362e-19)
(0.0871145 1.48967 0)
(-0.219488 2.12481 0)
(-0.198528 1.63022 1.39638e-19)
(-0.360945 1.62359 -1.27401e-19)
(-0.382731 1.86276 -5.0773e-20)
(-0.331839 2.24103 2.19827e-19)
(-0.293182 2.24415 -1.11074e-19)
(0.491773 1.38021 3.90249e-19)
(0.486363 1.38574 -4.18963e-19)
(0.432167 1.27078 4.0364e-19)
(0.425821 1.29245 -2.45629e-20)
(0.613495 1.28187 0)
(0.53473 1.37581 5.1836e-19)
(0.550048 1.38475 -5.04263e-19)
(0.439678 1.25876 -3.8919e-19)
(0.493457 1.21385 0)
(0.549027 1.18282 0)
(0.65647 2.45243 3.81474e-20)
(0.668364 2.4773 5.59203e-19)
(0.71734 2.49448 -3.84815e-19)
(0.62364 2.47717 -1.23645e-19)
(0.559972 2.57114 1.0687e-19)
(0.512665 2.54364 -3.17419e-19)
(0.96683 2.37858 -1.97086e-19)
(1.00933 2.39943 0)
(0.909069 2.15446 -2.64043e-19)
(1.04765 2.69902 0)
(1.04959 2.68595 0)
(0.624853 2.28506 2.13494e-19)
(1.04839 3.17129 4.60105e-19)
(0.919174 3.04016 -4.01293e-19)
(0.290013 0.945745 0)
(0.338231 0.813023 -1.6772e-19)
(0.497524 0.769499 -9.15463e-20)
(0.401128 2.03181 0)
(0.470299 2.78863 -2.4835e-19)
(0.431027 2.55342 0)
(0.683938 0.673188 -3.363e-19)
(0.755321 0.669227 4.31754e-19)
(0.775281 0.619773 -4.2227e-19)
(0.668739 0.646867 -4.92939e-20)
(0.714397 0.59766 -2.02127e-19)
(1.00952 2.77713 -3.4981e-19)
(1.04299 2.83192 2.62191e-19)
(0.650254 2.17571 1.0066e-19)
(0.609071 1.73337 -1.00234e-19)
(0.705757 1.92306 8.38411e-20)
(0.994294 2.46023 -7.03816e-20)
(0.996511 2.45576 -1.38319e-19)
(0.675035 1.8669 -3.29991e-21)
(0.463595 1.35228 -6.68109e-20)
)
;

boundaryField
{
    wall-4
    {
        type            noSlip;
    }
    velocity-inlet-5
    {
        type            fixedValue;
        value           uniform (1 0 0);
    }
    velocity-inlet-6
    {
        type            fixedValue;
        value           uniform (0 3 0);
    }
    pressure-outlet-7
    {
        type            zeroGradient;
    }
    wall-8
    {
        type            noSlip;
    }
    frontAndBackPlanes
    {
        type            empty;
    }
}


// ************************************************************************* //
