/*--------------------------------*- C++ -*----------------------------------*\
  =========                 |
  \\      /  F ield         | OpenFOAM: The Open Source CFD Toolbox
   \\    /   O peration     | Website:  https://openfoam.org
    \\  /    A nd           | Version:  9
     \\/     M anipulation  |
\*---------------------------------------------------------------------------*/
FoamFile
{
    format      ascii;
    class       volScalarField;
    location    "34";
    object      p;
}
// * * * * * * * * * * * * * * * * * * * * * * * * * * * * * * * * * * * * * //

dimensions      [0 2 -2 0 0 0 0];

internalField   nonuniform List<scalar> 
2200
(
1.06538
1.04388
1.02797
1.0123
0.997684
0.985154
0.974779
0.966641
0.960887
0.957873
0.958251
0.961963
0.968229
0.976729
0.987359
1.00009
1.01484
1.03069
1.04669
1.0682
0.997832
0.994573
0.991645
0.987516
0.98204
0.97555
0.968911
0.962934
0.958384
0.955914
0.956302
0.959502
0.964588
0.970969
0.9779
0.984607
0.990233
0.994368
0.997267
1.0006
0.957916
0.958134
0.960185
0.961525
0.961915
0.961048
0.959048
0.956341
0.953761
0.952202
0.952658
0.954988
0.958158
0.9613
0.963586
0.964582
0.964283
0.963209
0.961454
0.961214
0.935462
0.936907
0.939512
0.941973
0.944395
0.946394
0.947527
0.947705
0.947263
0.946869
0.947383
0.948643
0.949752
0.950076
0.949319
0.947609
0.945422
0.943164
0.940559
0.939146
0.921234
0.923213
0.926016
0.928821
0.931646
0.934442
0.936857
0.938675
0.939825
0.9405
0.941088
0.941444
0.941082
0.939867
0.937932
0.935493
0.932897
0.930158
0.927376
0.925442
0.913901
0.915497
0.917692
0.920217
0.92288
0.925528
0.928074
0.930449
0.932399
0.9338
0.934495
0.934336
0.933349
0.93169
0.929692
0.927446
0.925054
0.922677
0.92056
0.918984
0.910568
0.911583
0.91285
0.914716
0.916855
0.918991
0.921127
0.92333
0.925438
0.927146
0.927981
0.927775
0.926837
0.925502
0.923996
0.922351
0.920567
0.918933
0.917786
0.916773
0.908136
0.908808
0.909438
0.91073
0.912324
0.913967
0.915645
0.917442
0.919326
0.921072
0.922087
0.922177
0.921684
0.920927
0.920013
0.918955
0.917802
0.916811
0.916327
0.915651
0.905049
0.905496
0.905898
0.906905
0.908172
0.909548
0.911005
0.912579
0.914269
0.915978
0.917222
0.917757
0.917774
0.917495
0.917004
0.916334
0.915597
0.914937
0.914692
0.914237
0.901162
0.901445
0.901825
0.902748
0.903917
0.905225
0.906668
0.908235
0.909916
0.911689
0.913216
0.914165
0.91459
0.914626
0.914387
0.913965
0.913434
0.912933
0.912727
0.912428
0.896815
0.896998
0.897397
0.898298
0.899474
0.900854
0.902397
0.904074
0.905872
0.907827
0.909703
0.911092
0.911864
0.912158
0.912083
0.911785
0.911383
0.910988
0.910794
0.910594
0.892125
0.892255
0.892634
0.893493
0.894713
0.896225
0.897989
0.899963
0.902118
0.904474
0.906806
0.908607
0.909649
0.910077
0.910095
0.909889
0.909607
0.909336
0.909177
0.909029
0.887029
0.887108
0.887487
0.888339
0.889602
0.891234
0.893242
0.89562
0.898354
0.901365
0.90423
0.906282
0.907488
0.90806
0.908265
0.908274
0.908157
0.908009
0.907895
0.907779
0.881524
0.881569
0.881945
0.882841
0.884198
0.885935
0.888074
0.890693
0.893894
0.897561
0.901066
0.90362
0.905244
0.906274
0.9069
0.907114
0.907154
0.907119
0.907062
0.906984
0.875862
0.875792
0.876223
0.877108
0.878572
0.880428
0.882685
0.885474
0.888966
0.893201
0.897556
0.901082
0.903558
0.905247
0.906309
0.906822
0.907079
0.907161
0.907147
0.907094
0.869948
0.869879
0.870245
0.8712
0.872789
0.874879
0.877466
0.880677
0.884698
0.889671
0.895041
0.899612
0.902924
0.905189
0.906637
0.907547
0.908059
0.908282
0.908329
0.908283
0.863438
0.863438
0.863769
0.86477
0.866641
0.869061
0.87219
0.876184
0.88118
0.887307
0.893882
0.899406
0.903381
0.906165
0.908084
0.90937
0.910113
0.910496
0.910606
0.910556
0.855935
0.855884
0.856332
0.857561
0.859622
0.862387
0.866102
0.870949
0.877134
0.884772
0.892872
0.899602
0.904501
0.908009
0.910512
0.912178
0.913193
0.91376
0.913948
0.913893
0.847224
0.847128
0.847629
0.848965
0.851252
0.854423
0.858727
0.86443
0.871879
0.88123
0.891269
0.899715
0.905974
0.910525
0.91378
0.916019
0.917481
0.918278
0.918543
0.918463
0.836495
0.836405
0.836966
0.838502
0.841192
0.84499
0.850186
0.857127
0.866163
0.877564
0.88989
0.90031
0.908096
0.913872
0.918055
0.92101
0.922972
0.924014
0.924357
0.924244
0.823416
0.823304
0.82399
0.825874
0.829183
0.833976
0.84058
0.849333
0.860662
0.874701
0.889626
0.902153
0.911547
0.918518
0.923633
0.927315
0.929782
0.931064
0.931468
0.931315
0.806966
0.806892
0.80788
0.81033
0.814632
0.82085
0.829319
0.840557
0.854852
0.872137
0.890134
0.905072
0.916238
0.924563
0.930677
0.935045
0.937983
0.93947
0.93993
0.939745
0.786116
0.785976
0.787301
0.790651
0.796375
0.804656
0.815838
0.830297
0.84823
0.869422
0.891048
0.908812
0.921993
0.931856
0.939106
0.944341
0.947812
0.949529
0.950044
0.949808
0.758522
0.758596
0.760757
0.765511
0.773577
0.785054
0.799974
0.818633
0.841002
0.86673
0.892442
0.91339
0.928898
0.940491
0.949096
0.955314
0.959359
0.961308
0.961858
0.961566
0.721519
0.72184
0.725552
0.733377
0.745428
0.761716
0.78191
0.805988
0.833746
0.864712
0.894963
0.919272
0.937192
0.950606
0.960609
0.967882
0.972544
0.974753
0.975346
0.974958
0.672176
0.672641
0.67982
0.692809
0.711359
0.734855
0.76204
0.792812
0.826885
0.863721
0.898781
0.926571
0.947015
0.962343
0.973844
0.982165
0.987407
0.989722
0.990216
0.98978
0.606482
0.609462
0.624942
0.646504
0.673879
0.705888
0.741105
0.779404
0.820531
0.863921
0.904478
0.936492
0.960216
0.978087
0.991574
1.00156
1.00794
1.01056
1.01088
1.01063
0.531394
0.541252
0.567156
0.598688
0.635993
0.676898
0.720122
0.766177
0.814752
0.865221
0.912055
0.949124
0.976753
0.997913
1.01422
1.02626
1.03416
1.03714
1.03745
1.03769
0.464964
0.48026
0.512698
0.552539
0.59906
0.648655
0.699943
0.753797
0.8097
0.867027
0.919695
0.961339
0.992493
1.01633
1.03451
1.04814
1.05701
1.06131
1.06239
1.06235
0.414722
0.428361
0.46612
0.511811
0.565419
0.622222
0.680905
0.742063
0.804836
0.86871
0.927146
0.973009
1.00702
1.03282
1.05278
1.06796
1.07745
1.08193
1.08294
1.08304
0.373521
0.386214
0.427336
0.476878
0.535781
0.598283
0.663289
0.730894
0.799994
0.870107
0.933829
0.983229
1.01966
1.04724
1.06811
1.08392
1.09394
1.09861
1.09982
1.09993
0.338038
0.351023
0.394533
0.446845
0.509789
0.576831
0.647108
0.720263
0.79506
0.870781
0.939091
0.991784
1.03018
1.05879
1.08028
1.09627
1.10668
1.11173
1.11314
1.11327
0.307001
0.320118
0.365611
0.420365
0.48667
0.557478
0.632181
0.710121
0.789936
0.870728
0.943378
0.998803
1.03868
1.0682
1.09006
1.10629
1.11729
1.12259
1.12421
1.12432
0.27909
0.292297
0.33941
0.396373
0.4656
0.539638
0.61816
0.700246
0.784518
0.869909
0.946356
1.00435
1.04571
1.07598
1.09862
1.11499
1.12639
1.13185
1.13354
1.13354
0.25356
0.266772
0.315117
0.37419
0.44603
0.522863
0.604645
0.690303
0.778507
0.867905
0.948236
1.00899
1.05184
1.08309
1.1061
1.12283
1.13396
1.13952
1.14115
1.14094
0.229507
0.243022
0.292234
0.353362
0.427489
0.506748
0.591338
0.680152
0.771976
0.865588
0.950016
1.01322
1.05771
1.08969
1.113
1.12981
1.14069
1.14624
1.14787
1.14775
0.206893
0.220515
0.270534
0.333489
0.409594
0.491028
0.57815
0.669863
0.765126
0.862524
0.950098
1.01643
1.06303
1.09597
1.11962
1.1364
1.14737
1.15269
1.15441
1.15432
0.185512
0.199141
0.249844
0.314321
0.392122
0.475559
0.564992
0.659286
0.757421
0.857977
0.949846
1.01988
1.06824
1.10227
1.12636
1.14315
1.15398
1.15924
1.16078
1.16073
0.164867
0.178724
0.229931
0.295699
0.374973
0.460222
0.551719
0.648286
0.749107
0.853352
0.949558
1.0224
1.07342
1.10896
1.13338
1.15017
1.1608
1.16576
1.16727
1.16716
0.144548
0.159051
0.210628
0.277502
0.35803
0.444903
0.538282
0.636986
0.74049
0.848012
0.947466
1.02424
1.07835
1.11554
1.14091
1.15761
1.16774
1.17246
1.17365
1.17349
0.124542
0.139852
0.191807
0.25969
0.341294
0.429604
0.524696
0.625392
0.731225
0.841499
0.944763
1.02566
1.08279
1.12262
1.14917
1.16574
1.17504
1.17895
1.17982
1.17961
0.105001
0.121052
0.173443
0.242267
0.324788
0.414334
0.510942
0.613414
0.721312
0.834216
0.940927
1.0255
1.0869
1.12998
1.15843
1.17503
1.18289
1.18537
1.18554
1.18537
0.0860527
0.102652
0.155542
0.225256
0.308581
0.39917
0.497068
0.60109
0.71083
0.826048
0.935723
1.02454
1.09026
1.13747
1.16885
1.18636
1.19251
1.19122
1.19045
1.19112
0.0677371
0.0847455
0.138159
0.208705
0.292747
0.384201
0.483148
0.588478
0.699844
0.816976
0.929161
1.02195
1.0925
1.14468
1.18043
1.20026
1.2056
1.20003
1.19455
1.19252
0.0500669
0.0674129
0.121347
0.19266
0.27735
0.369517
0.469294
0.575658
0.688361
0.807096
0.921668
1.01802
1.0931
1.15114
1.1929
1.21742
1.22635
1.2147
1.21131
1.21585
0.033048
0.0507325
0.105176
0.177177
0.262442
0.355191
0.455613
0.56277
0.676489
0.7967
0.91323
1.01194
1.09158
1.15569
1.20494
1.23731
1.25379
1.22935
1.18559
1.14508
0.0167387
0.0346885
0.0896019
0.162177
0.247913
0.341099
0.441974
0.54967
0.664113
0.785465
0.903387
1.00414
1.08723
1.15718
1.21512
1.25881
1.29046
1.28704
1.30443
1.35752
0.00118859
0.0192407
0.0745392
0.147521
0.233572
0.327009
0.428104
0.536054
0.650899
0.772909
0.891716
0.993453
1.07848
1.15284
1.21523
1.26219
1.28699
1.27864
1.24419
1.25486
-0.0135757
0.00440768
0.0600213
0.133253
0.219486
0.31301
0.414134
0.522097
0.636993
0.759045
0.877858
0.9797
1.06447
1.1386
1.20004
1.24429
1.24294
1.19745
1.13769
1.12697
-0.0275536
-0.00979754
0.0460537
0.119372
0.20565
0.299098
0.400081
0.507815
0.622328
0.743855
0.862307
0.962992
1.04471
1.11295
1.16762
1.18458
1.15445
1.08304
1.01108
0.994524
-0.0407844
-0.0233734
0.0326172
0.105856
0.192045
0.285258
0.385933
0.493198
0.606965
0.727451
0.844457
0.942614
1.01859
1.07422
1.10428
1.09597
1.04597
0.94678
0.860852
0.84183
-0.0537277
-0.0367251
0.0193237
0.0923444
0.178323
0.271179
0.371399
0.477979
0.590688
0.709545
0.824205
0.918633
0.987208
1.02719
1.02314
0.990662
0.885704
0.765336
0.659261
0.634739
-0.0672817
-0.0506498
0.00546543
0.0782089
0.163914
0.256376
0.356052
0.461805
0.573249
0.690063
0.801602
0.890912
0.95218
0.969356
0.93425
0.849772
0.695176
0.543817
0.416294
0.390679
-0.0819632
-0.065558
-0.00926569
0.0632224
0.148633
0.240715
0.339803
0.444626
0.554598
0.668881
0.776339
0.859901
0.910079
0.900429
0.844596
0.696784
0.495627
0.281886
0.101417
0.054819
-0.0978678
-0.0815346
-0.0249405
0.0473563
0.132511
0.224233
0.322697
0.4265
0.534825
0.646282
0.748731
0.826758
0.862105
0.820399
0.731104
0.540691
0.304936
0.0115759
-0.314282
-0.458942
-0.115069
-0.0986788
-0.0416537
0.0305373
0.115493
0.206873
0.304685
0.407377
0.513923
0.622277
0.71902
0.790851
0.809042
0.734804
0.596617
0.385442
0.143934
-0.208536
-0.806485
-1.38419
-0.13362
-0.117063
-0.0594843
0.0127026
0.0975768
0.188657
0.285821
0.387374
0.492078
0.597251
0.688098
0.751978
0.752548
0.658607
0.465669
0.223567
0.0110478
-0.23569
-0.812195
-2.37053
-0.153508
-0.136787
-0.0785033
-0.00625697
0.0785966
0.169391
0.265877
0.366215
0.468961
0.570691
0.655693
0.710515
0.691772
0.598118
0.366791
0.118913
-0.0384947
-0.0857292
-0.088645
-0.486859
-0.174642
-0.157914
-0.098886
-0.0266403
0.0581859
0.148609
0.244271
0.343192
0.443636
0.541419
0.620998
0.666092
0.630267
0.549541
0.314624
0.0994141
-0.0206036
-0.0333514
0.0160695
-0.0266216
-0.196984
-0.180321
-0.120603
-0.048484
0.0362651
0.126198
0.220865
0.318144
0.415975
0.509327
0.584037
0.619821
0.576376
0.498049
0.279264
0.105387
0.0178173
0.00981252
-0.0377895
-0.0452424
-0.220441
-0.203715
-0.143587
-0.0717906
0.0128929
0.102171
0.195657
0.291055
0.385918
0.474626
0.544851
0.571427
0.527625
0.436977
0.251384
0.114742
0.0369193
0.0679259
0.0446194
0.042626
-0.244867
-0.227807
-0.167743
-0.0964275
-0.0117886
0.0766239
0.168736
0.262077
0.353697
0.437763
0.503634
0.520226
0.484939
0.369209
0.215784
0.120394
0.0681274
0.028956
0.0516508
0.0440498
-0.269683
-0.252291
-0.192953
-0.122223
-0.0375134
0.0497679
0.14036
0.231445
0.319489
0.399157
0.461177
0.467031
0.441655
0.304262
0.174884
0.106924
0.116297
0.0540042
0.0785259
0.0723212
-0.29437
-0.276838
-0.218979
-0.148692
-0.0639658
0.0218752
0.110853
0.199647
0.283715
0.359265
0.418415
0.415713
0.39196
0.250343
0.141095
0.0820549
0.111633
0.0781982
0.0766231
0.0757773
-0.318288
-0.301054
-0.244896
-0.175126
-0.090781
-0.0065914
0.0807302
0.167097
0.246948
0.318511
0.375822
0.366585
0.335634
0.203999
0.119455
0.0761228
0.0589871
0.0708725
0.0663936
0.0695521
-0.34085
-0.32434
-0.269757
-0.200661
-0.117549
-0.0350625
0.0505898
0.134606
0.210279
0.277316
0.334313
0.319654
0.277752
0.168842
0.105158
0.0785474
0.0322916
0.0685246
0.0624278
0.0701317
-0.360987
-0.345586
-0.292644
-0.224513
-0.143756
-0.062651
0.0212548
0.102823
0.174795
0.236247
0.293473
0.273477
0.219946
0.141734
0.0969597
0.0930445
0.0288763
0.0853687
0.0755714
0.0829279
-0.377649
-0.363738
-0.312889
-0.246116
-0.168204
-0.0883643
-0.00635388
0.0727671
0.141677
0.196646
0.254563
0.229156
0.159028
0.121753
0.126888
0.168935
0.13941
0.118789
0.101264
0.0984697
-0.389618
-0.377625
-0.329539
-0.2647
-0.18939
-0.111128
-0.0312199
0.0456906
0.112353
0.160222
0.217787
0.190234
0.0925385
0.0844025
0.16708
0.205747
0.178946
0.142673
0.124304
0.111186
-0.395912
-0.386072
-0.341506
-0.278889
-0.205906
-0.129748
-0.0520227
0.0227591
0.0879622
0.13029
0.182527
0.160812
0.0137391
-0.0841011
-0.100286
-0.137091
-0.13806
-0.118813
-0.105907
-0.0965432
-0.395838
-0.38798
-0.347309
-0.287355
-0.216838
-0.142942
-0.0674034
0.00574295
0.0703071
0.111296
0.153199
0.141279
-0.0602974
-0.371435
-0.733802
-0.937503
-0.981541
-0.934395
-0.835926
-0.75791
-0.388402
-0.381205
-0.345258
-0.288701
-0.221044
-0.14952
-0.0759564
-0.00376013
0.0617861
0.106094
0.139868
0.13857
-0.0648632
-0.431459
-0.905575
-1.13035
-1.14835
-1.03431
-0.943001
-0.884312
-0.370199
-0.3627
-0.333299
-0.28194
-0.217787
-0.148657
-0.0766079
-0.00417575
0.0652299
0.118742
0.15671
0.182636
0.106949
-0.00089002
-0.155085
-0.178077
-0.100265
-0.00987412
0.0992375
0.185708
-0.335428
-0.328568
-0.30999
-0.266713
-0.206869
-0.140042
-0.0688992
0.00548774
0.0819576
0.153051
0.213115
0.313977
0.441142
0.689253
0.905703
1.10467
1.28238
1.39585
1.45534
1.48596
-0.289057
-0.285037
-0.278894
-0.244398
-0.189786
-0.124548
-0.0536061
0.0240008
0.109743
0.204298
0.301349
0.453705
0.713665
1.12548
1.52514
1.85743
2.09048
2.22962
2.29424
2.31624
-0.25308
-0.252682
-0.247528
-0.220592
-0.17072
-0.106327
-0.0332386
0.0478089
0.140609
0.250971
0.371253
0.507928
0.812468
1.20518
1.58785
1.91591
2.1562
2.29691
2.35874
2.37538
-0.22181
-0.222745
-0.21718
-0.198724
-0.152567
-0.0881725
-0.0126801
0.0695414
0.162244
0.271492
0.388406
0.481223
0.727943
1.04242
1.33754
1.59252
1.79434
1.91642
1.97285
1.98963
-0.19168
-0.191421
-0.191236
-0.179839
-0.133789
-0.0700053
0.00514684
0.0860381
0.172631
0.26972
0.378176
0.440981
0.62041
0.871062
1.10267
1.2976
1.45449
1.55493
1.60015
1.61244
-0.16522
-0.164669
-0.169883
-0.157831
-0.112466
-0.0503303
0.021844
0.0987037
0.176913
0.257633
0.356501
0.40576
0.521328
0.712095
0.895678
1.04044
1.15346
1.23092
1.26561
1.27355
-0.11912
-0.118977
-0.126153
-0.114644
-0.0769542
-0.0215817
0.0433846
0.112245
0.181011
0.246232
0.333446
0.379055
0.446344
0.58641
0.729157
0.836286
0.916783
0.972728
0.997238
1.00401
-0.046615
-0.0485592
-0.051372
-0.0438147
-0.0169018
0.0241763
0.0747583
0.130676
0.188461
0.241626
0.314487
0.35825
0.396739
0.499056
0.605323
0.682486
0.739812
0.779878
0.797669
0.803732
0.0422813
0.0406934
0.0390097
0.0435616
0.0595433
0.0847361
0.117409
0.157292
0.202926
0.245244
0.302487
0.340766
0.366667
0.443275
0.518817
0.571291
0.613903
0.645567
0.658175
0.661761
0.130376
0.129127
0.127867
0.129419
0.136091
0.148285
0.165544
0.189899
0.223155
0.253369
0.295915
0.327899
0.348071
0.407157
0.461108
0.495207
0.525119
0.546221
0.556128
0.559507
0.20266
0.201726
0.200503
0.199479
0.200024
0.203352
0.21014
0.222344
0.242969
0.262717
0.291153
0.319528
0.333603
0.379762
0.417977
0.442782
0.461243
0.47327
0.478633
0.479462
0.253288
0.252695
0.251342
0.248492
0.244823
0.242835
0.243704
0.247981
0.258396
0.270702
0.287928
0.310211
0.321418
0.354111
0.379828
0.397499
0.409071
0.41388
0.414956
0.413976
0.282901
0.282424
0.281134
0.277649
0.272003
0.267238
0.264726
0.264448
0.269018
0.276373
0.287047
0.299894
0.311177
0.329708
0.3454
0.355882
0.362332
0.363983
0.362724
0.361473
0.297728
0.297323
0.296155
0.292895
0.287239
0.281604
0.277253
0.274596
0.276095
0.279352
0.286396
0.291731
0.298594
0.308913
0.318666
0.325092
0.32796
0.329079
0.327882
0.325907
0.303402
0.303064
0.302038
0.299453
0.294724
0.289729
0.285143
0.281415
0.280743
0.280863
0.284357
0.285522
0.286351
0.292739
0.300097
0.304994
0.306991
0.30546
0.303775
0.301862
0.304495
0.304225
0.303363
0.301419
0.297733
0.293843
0.289803
0.285921
0.284065
0.282174
0.282432
0.281456
0.280438
0.284275
0.289346
0.292042
0.292237
0.288884
0.286265
0.285062
0.303306
0.303106
0.302437
0.301013
0.298268
0.295318
0.291997
0.288742
0.286712
0.283664
0.281208
0.278592
0.276472
0.28185
0.286316
0.287136
0.287249
0.288158
0.287444
0.285741
0.301163
0.301013
0.300573
0.299488
0.297469
0.295486
0.293138
0.290227
0.288197
0.284632
0.281064
0.276227
0.270944
0.28087
0.288823
0.292543
0.297286
0.301567
0.303249
0.300311
0.298396
0.298281
0.298016
0.297309
0.296038
0.294725
0.29383
0.291483
0.290106
0.286204
0.281073
0.275829
0.270491
0.280923
0.292481
0.300437
0.305986
0.306485
0.306438
0.305336
0.295231
0.295183
0.295129
0.294626
0.293935
0.293328
0.293929
0.293288
0.292376
0.290087
0.288981
0.282339
0.278288
0.286129
0.293988
0.298642
0.2979
0.295895
0.295586
0.295708
0.290521
0.29062
0.290926
0.291338
0.291674
0.291489
0.292082
0.295245
0.292601
0.297288
0.30131
0.293132
0.289443
0.29579
0.299079
0.301717
0.304948
0.309394
0.312432
0.311264
0.28245
0.282584
0.283017
0.28403
0.284978
0.28646
0.286784
0.29177
0.295887
0.302027
0.309699
0.305149
0.299335
0.30483
0.312687
0.325872
0.344552
0.356057
0.359367
0.355362
0.27078
0.271179
0.271345
0.272481
0.273739
0.276852
0.280097
0.286473
0.294037
0.305274
0.315501
0.323211
0.313131
0.315457
0.323309
0.334679
0.346918
0.355962
0.35827
0.352312
0.253304
0.253837
0.254834
0.256924
0.259496
0.263527
0.268221
0.275349
0.285937
0.298759
0.313255
0.326928
0.318715
0.307649
0.2994
0.298178
0.291168
0.284515
0.286555
0.285414
0.227107
0.227836
0.22926
0.232347
0.236655
0.242573
0.250178
0.257963
0.267895
0.283433
0.304782
0.303715
0.29936
0.275141
0.260775
0.248686
0.238998
0.225244
0.223665
0.225707
0.190721
0.191706
0.193209
0.19652
0.201232
0.207965
0.216222
0.224689
0.234687
0.242127
0.261513
0.273844
0.266435
0.243464
0.241953
0.235694
0.24253
0.246696
0.231446
0.238121
0.141765
0.142623
0.145205
0.149933
0.155954
0.162854
0.169047
0.174115
0.175789
0.178097
0.19979
0.216367
0.193124
0.193702
0.208698
0.222494
0.242448
0.256981
0.235775
0.237448
0.0849236
0.084959
0.0857741
0.0895399
0.0964201
0.104749
0.110997
0.112565
0.102608
0.101573
0.128783
0.148712
0.109403
0.104421
0.12447
0.141589
0.142068
0.157851
0.155336
0.15238
0.0281032
0.0276933
0.0275054
0.0275573
0.0270851
0.0247463
0.0163035
0.00450435
-0.00140524
0.0249634
0.0575198
0.072076
0.0507032
0.0366112
0.0286481
0.0177253
0.00907501
0.0215253
0.0269651
0.0261824
-0.816697
0.0426381
0.314171
0.596489
0.784803
0.947413
1.08222
1.21906
1.36641
1.44465
0.180465
0.596873
0.61884
0.811261
0.941518
1.058
1.15891
1.24807
1.27707
1.23379
0.570929
0.790643
0.830165
0.968965
1.05915
1.14239
1.21099
1.26226
1.26539
1.27848
0.808401
0.956267
0.992437
1.09819
1.15583
1.21647
1.26258
1.29562
1.30516
1.3285
0.993001
1.09603
1.12614
1.1971
1.24146
1.28444
1.31734
1.34198
1.35213
1.38341
1.13809
1.2089
1.23936
1.28396
1.32064
1.35158
1.37643
1.39733
1.41179
1.43986
1.25899
1.31066
1.33659
1.36538
1.39374
1.41797
1.43829
1.4577
1.4728
1.49915
1.36374
1.40169
1.42297
1.44403
1.46537
1.48512
1.50273
1.52097
1.53591
1.55954
1.45863
1.48754
1.50468
1.52032
1.5368
1.5531
1.56878
1.5858
1.59941
1.62172
1.54741
1.56821
1.58332
1.59671
1.61047
1.62438
1.63793
1.65254
1.66407
1.68373
1.63358
1.64944
1.66339
1.67535
1.68737
1.69903
1.71016
1.72183
1.72949
1.74631
1.71907
1.73199
1.74578
1.75745
1.76802
1.77775
1.78652
1.79475
1.79831
1.80959
1.80836
1.81936
1.83283
1.84204
1.84947
1.85667
1.86385
1.87038
1.8714
1.87882
1.90679
1.91153
1.91956
1.92405
1.92734
1.9318
1.9378
1.94554
1.94938
1.95926
2.02009
2.0064
1.99896
1.99335
1.99069
1.99209
1.99855
2.01094
2.02572
2.05538
2.14103
2.08528
2.05443
2.03735
2.0292
2.02917
2.0379
2.05745
2.08942
2.15861
)
;

boundaryField
{
    wall-4
    {
        type            zeroGradient;
    }
    pressure-outlet-7
    {
        type            fixedValue;
        value           uniform 0;
    }
    velocity-inlet-6
    {
        type            zeroGradient;
    }
    velocity-inlet-5
    {
        type            zeroGradient;
    }
    frontAndBackPlanes
    {
        type            empty;
    }
}


// ************************************************************************* //
