/*--------------------------------*- C++ -*----------------------------------*\
  =========                 |
  \\      /  F ield         | OpenFOAM: The Open Source CFD Toolbox
   \\    /   O peration     | Website:  https://openfoam.org
    \\  /    A nd           | Version:  9
     \\/     M anipulation  |
\*---------------------------------------------------------------------------*/
FoamFile
{
    format      ascii;
    class       surfaceScalarField;
    location    "34";
    object      phi;
}
// * * * * * * * * * * * * * * * * * * * * * * * * * * * * * * * * * * * * * //

dimensions      [0 3 -1 0 0 0 0];

internalField   nonuniform List<scalar> 
4262
(
0.107138
0.47085
0.0955773
0.705147
0.0693882
0.858492
0.0473813
1.02077
0.0310292
1.21487
0.0198243
1.44942
0.0123784
1.73331
0.00718493
2.07623
0.00330608
2.48912
-0.000235683
2.98583
-0.00378818
2.98584
-0.00769368
2.48915
-0.0128822
2.07622
-0.0201243
1.73311
-0.0311014
1.4492
-0.0472746
1.21469
-0.0691438
1.02063
-0.0953659
0.858525
-0.107109
0.705329
0.470879
0.112891
0.357959
0.135301
0.682737
0.120393
0.8734
0.0977898
1.04337
0.0744559
1.2382
0.0527997
1.47108
0.0346
1.75151
0.0204532
2.09038
0.00908054
2.5005
-0.00106731
2.99598
-0.011244
2.99602
-0.0223922
2.5003
-0.0362318
2.09006
-0.0542501
1.75112
-0.0759707
1.47092
-0.0995434
1.23826
-0.12244
1.04353
-0.136497
0.872582
-0.113396
0.682227
0.357484
0.0921145
0.265844
0.125126
0.649726
0.12137
0.877155
0.105231
1.05951
0.0866273
1.25681
0.0674334
1.49027
0.0484646
1.77048
0.0304703
2.10837
0.0141225
2.51684
-0.00164999
3.01175
-0.0171891
3.01156
-0.0331981
2.51631
-0.0508843
2.10775
-0.0697009
1.76994
-0.0883726
1.48959
-0.105987
1.25588
-0.120766
1.05831
-0.125445
0.877262
-0.0923791
0.649161
0.265105
0.0640105
0.201834
0.104861
0.608876
0.10662
0.875396
0.0952969
1.07084
0.0815683
1.27054
0.0670013
1.50484
0.0507828
1.7867
0.0335493
2.1256
0.0158679
2.53452
-0.0026735
3.0303
-0.0209826
3.02987
-0.0381867
2.53351
-0.0548229
2.12439
-0.0701889
1.78531
-0.0840258
1.50343
-0.0975963
1.26945
-0.109111
1.06982
-0.106368
0.874519
-0.0645973
0.607391
0.200507
0.0374683
0.164365
0.0807867
0.565557
0.0911938
0.864989
0.0840405
1.07799
0.0715546
1.28302
0.0598408
1.51656
0.0470443
1.79949
0.0323504
2.1403
0.0156401
2.55123
-0.00339916
3.04934
-0.0222393
3.04871
-0.0385273
2.5498
-0.0525388
2.1384
-0.0647464
1.79751
-0.0759966
1.51468
-0.0878676
1.28132
-0.0942362
1.07619
-0.0827424
0.863025
-0.0381873
0.562836
0.16232
0.0195576
0.144808
0.0574515
0.527664
0.0729823
0.849458
0.0708968
1.08007
0.0620293
1.29189
0.0511042
1.52748
0.0399872
1.81061
0.02765
2.15264
0.0128887
2.566
-0.00456813
3.06679
-0.0216499
3.06579
-0.0354799
2.56363
-0.04673
2.14965
-0.0569247
1.80771
-0.0669847
1.52474
-0.0749647
1.2893
-0.0761519
1.07738
-0.0594094
0.846282
-0.020206
0.523632
0.142114
0.0106345
0.134173
0.0423131
0.495985
0.0584286
0.833343
0.058788
1.07971
0.0526716
1.298
0.0433833
1.53677
0.0333817
1.82061
0.0224448
2.16357
0.00984158
2.5786
-0.00557249
3.08221
-0.0206641
3.08088
-0.0324363
2.5754
-0.0424373
2.15965
-0.0511635
1.81644
-0.059402
1.53297
-0.0644047
1.2943
-0.0627957
1.07577
-0.0449304
0.828417
-0.0114325
0.490135
0.130681
0.00653099
0.127642
0.0329281
0.469588
0.0493054
0.816965
0.0510563
1.07796
0.046246
1.30282
0.0380977
1.54492
0.0285984
1.83011
0.0179416
2.17423
0.00618371
2.59036
-0.00741164
3.0958
-0.0204179
3.09389
-0.0309888
2.58597
-0.0400916
2.16875
-0.0480474
1.82439
-0.0547356
1.53966
-0.057983
1.29755
-0.0546113
1.0724
-0.0361496
0.809955
-0.00754629
0.461531
0.123135
0.00476736
0.122875
0.0266588
0.447696
0.0425669
0.801057
0.0449923
1.07554
0.040875
1.30693
0.0338236
1.55197
0.0251751
1.83876
0.0150528
2.18435
0.00365537
2.60175
-0.00878938
3.10825
-0.0205874
3.10569
-0.0305448
2.59593
-0.0389651
2.17717
-0.0460565
1.83148
-0.0515371
1.54514
-0.0539627
1.29997
-0.0493537
1.06779
-0.0305678
0.791169
-0.00595868
0.436922
0.117176
0.00370568
0.119169
0.0214613
0.429941
0.036688
0.785831
0.0397091
1.07252
0.035824
1.31082
0.0290658
1.55873
0.0208572
1.84697
0.0111459
2.19406
0.000211787
2.61269
-0.0114715
3.11993
-0.0224476
3.11666
-0.0314809
2.60496
-0.0390025
2.18469
-0.0446278
1.83711
-0.0488853
1.5494
-0.0503581
1.30145
-0.0446835
1.06211
-0.0261365
0.772622
-0.00518194
0.415968
0.111995
0.00277054
0.116399
0.0166136
0.416098
0.0302302
0.772214
0.0334073
1.06934
0.029887
1.31434
0.0236568
1.56496
0.0161084
1.85452
0.00720961
2.20296
-0.00284565
2.62274
-0.0136598
3.13074
-0.0235687
3.12657
-0.0315399
2.61293
-0.0377551
2.19091
-0.0428384
1.84219
-0.0466097
1.55317
-0.0474166
1.30225
-0.0406464
1.05534
-0.0224614
0.754438
-0.00461751
0.398124
0.107377
0.00200893
0.11439
0.0124799
0.405627
0.0244942
0.7602
0.0277002
1.06613
0.0242297
1.31781
0.0181101
1.57108
0.0108344
1.86179
0.00260907
2.21119
-0.0067557
2.63211
-0.0172931
3.14128
-0.0265264
3.13581
-0.0331839
2.61959
-0.0380595
2.19578
-0.0418395
1.84597
-0.0445961
1.55593
-0.0443385
1.302
-0.0367115
1.04772
-0.0194469
0.737173
-0.00419721
0.382874
0.10318
0.00132176
0.113068
0.00902871
0.39792
0.0191156
0.750113
0.0216605
1.06359
0.0180716
1.3214
0.0119926
1.57716
0.00501765
1.86877
-0.00269118
2.2189
-0.0114527
2.64087
-0.0213594
3.15119
-0.0297667
3.14421
-0.0350552
2.62488
-0.0384667
2.1992
-0.0414278
1.84893
-0.0432701
1.55777
-0.0423899
1.30112
-0.0341578
1.03949
-0.0174738
0.720489
-0.00405133
0.369452
0.0991285
0.000577879
0.11249
0.00529591
0.393202
0.0129693
0.74244
0.0152608
1.0613
0.0116778
1.32498
0.00538326
1.58345
-0.0019114
1.87606
-0.0097179
2.2267
-0.0180025
2.64915
-0.0264933
3.15968
-0.0330872
3.15081
-0.0370771
2.62887
-0.039712
2.20183
-0.0419121
1.85113
-0.0425169
1.55838
-0.0405004
1.2991
-0.0314394
1.03042
-0.0156067
0.704656
-0.00390653
0.357751
0.095222
-0.000393572
0.112884
0.00121946
0.391589
0.0066471
0.737012
0.00767512
1.06027
0.00423445
1.32842
-0.00154469
1.58923
-0.00861354
1.88313
-0.0164979
2.23459
-0.0246086
2.65727
-0.0321114
3.16718
-0.0376317
3.15633
-0.0407773
2.63201
-0.0424805
2.20353
-0.0429971
1.85165
-0.0422214
1.5576
-0.038923
1.2958
-0.0291111
1.02061
-0.0139337
0.689479
-0.00361428
0.347432
0.0916077
-0.00143263
0.114316
-0.00233412
0.39249
0.00020575
0.734472
0.000569344
1.05991
-0.00331053
1.3323
-0.00930638
1.59523
-0.0165631
1.89039
-0.0245952
2.24262
-0.0329711
2.66564
-0.0403731
3.17458
-0.0449113
3.16087
-0.046587
2.63369
-0.0466841
2.20363
-0.0454291
1.85039
-0.0432451
1.55542
-0.0380527
1.29061
-0.0271803
1.00974
-0.0127715
0.67507
-0.00345035
0.338111
0.0881573
-0.00270964
0.117026
-0.00584744
0.395628
-0.00727485
0.735899
-0.00881989
1.06145
-0.0128408
1.33632
-0.018754
1.60114
-0.0259486
1.89758
-0.0341111
2.25078
-0.0423923
2.67392
-0.0493418
3.18153
-0.0529346
3.16446
-0.0532008
2.63396
-0.0512137
2.20164
-0.0484258
1.84761
-0.0446688
1.55166
-0.0382688
1.28421
-0.0267292
0.9982
-0.0126279
0.660969
-0.00352941
0.329012
0.0846279
-0.00387269
0.120899
-0.0103298
0.402085
-0.0147183
0.740288
-0.0182696
1.065
-0.0234888
1.34154
-0.0305087
1.60816
-0.0385686
1.90564
-0.0470083
2.25922
-0.0550245
2.68194
-0.0610606
3.18757
-0.0627747
3.16617
-0.0608901
2.63207
-0.0574829
2.19824
-0.0534026
1.84353
-0.0477261
1.54598
-0.0395308
1.27601
-0.0268645
0.985534
-0.0130026
0.647107
-0.00379675
0.319806
0.0808312
-0.00530114
0.1262
-0.0150532
0.411837
-0.0231738
0.748409
-0.0292277
1.07106
-0.0355528
1.34787
-0.0437207
1.61633
-0.0528358
1.91476
-0.0621682
2.26855
-0.0704519
2.69022
-0.0753958
3.19251
-0.0749274
3.1657
-0.0709964
2.62814
-0.0652318
2.19247
-0.0587883
1.83708
-0.0513797
1.53857
-0.0419674
1.2666
-0.0286512
0.972218
-0.0143496
0.632805
-0.00422483
0.309682
0.0766063
-0.00642037
0.13262
-0.0185401
0.423957
-0.0302949
0.760163
-0.039403
1.08016
-0.0482191
1.35668
-0.0583386
1.62645
-0.06911
1.92553
-0.0797332
2.27918
-0.0884017
2.69889
-0.0928618
3.19697
-0.0908886
3.16373
-0.0847209
2.62197
-0.0767404
2.18449
-0.068433
1.82877
-0.0593449
1.52949
-0.0478992
1.25515
-0.0325698
0.956888
-0.0167374
0.616973
-0.00496713
0.297911
0.0716392
-0.00864358
0.141264
-0.0247244
0.440038
-0.0406815
0.77612
-0.0529199
1.0924
-0.0637726
1.36753
-0.0760267
1.6387
-0.0888227
1.93832
-0.101028
2.29138
-0.11085
2.70871
-0.115213
3.20134
-0.11089
3.15941
-0.101998
2.61308
-0.09145
2.17394
-0.0804334
1.81776
-0.0689696
1.51802
-0.0556165
1.2418
-0.038411
0.939683
-0.0201474
0.598709
-0.00593116
0.283695
0.065708
-0.0108387
0.152103
-0.0308403
0.460039
-0.0511557
0.796436
-0.067466
1.10871
-0.0824076
1.38248
-0.098054
1.65435
-0.113451
1.95372
-0.127611
2.30554
-0.137602
2.7187
-0.140257
3.20399
-0.134156
3.15331
-0.123141
2.60207
-0.110193
2.161
-0.0973006
1.80487
-0.0836963
1.50442
-0.0670012
1.22511
-0.0457908
0.918472
-0.0239321
0.576851
-0.00698201
0.266745
0.058726
-0.0153516
0.167454
-0.0421365
0.486824
-0.0681235
0.822423
-0.0888253
1.12942
-0.106927
1.40058
-0.125638
1.67306
-0.144177
1.97226
-0.160201
2.32157
-0.171101
2.7296
-0.173349
3.20624
-0.1646
3.14456
-0.149781
2.58725
-0.133268
2.14448
-0.116399
1.788
-0.0989649
1.48698
-0.0784561
1.2046
-0.0537005
0.893717
-0.0281169
0.551267
-0.00801691
0.246645
0.0507091
-0.0191735
0.186628
-0.0538317
0.521482
-0.0880361
0.856627
-0.114737
1.15612
-0.138489
1.42433
-0.162176
1.69674
-0.183473
1.99356
-0.200932
2.33902
-0.21118
2.73985
-0.210109
3.20517
-0.197319
3.13177
-0.179757
2.56968
-0.160655
2.12538
-0.141069
1.76841
-0.120017
1.46593
-0.0943025
1.17888
-0.0635363
0.862951
-0.0325078
0.520238
-0.0089162
0.223054
0.0417929
-0.0325898
0.219217
-0.0794508
0.568344
-0.121898
0.899074
-0.155202
1.18942
-0.184443
1.45357
-0.210874
1.72318
-0.233811
2.01649
-0.251162
2.35638
-0.259914
2.7486
-0.256319
3.20157
-0.240452
3.1159
-0.218557
2.54779
-0.194262
2.10109
-0.168892
1.74304
-0.141756
1.4388
-0.110244
1.14737
-0.0741009
0.826807
-0.0378596
0.483997
-0.0100725
0.195266
0.0317204
-0.0469774
0.266195
-0.117423
0.638789
-0.175171
0.956822
-0.214776
1.22903
-0.248016
1.48681
-0.276517
1.75168
-0.298738
2.03872
-0.313384
2.37102
-0.317176
2.7524
-0.306511
3.19091
-0.282826
3.09222
-0.255388
2.52035
-0.227486
2.07318
-0.19915
1.71471
-0.167946
1.40759
-0.130225
1.10965
-0.086315
0.782897
-0.0415171
0.439199
-0.00990665
0.163656
0.0218138
-0.032789
0.298984
-0.0920444
0.698045
-0.145077
1.00985
-0.189264
1.27321
-0.230288
1.52783
-0.265525
1.78691
-0.299541
2.07273
-0.329901
2.40138
-0.352263
2.77476
-0.360681
3.19933
-0.351062
3.0826
-0.328244
2.49753
-0.294759
2.0397
-0.251614
1.67156
-0.202287
1.35827
-0.147654
1.05502
-0.0886493
0.723892
-0.036832
0.387382
-0.0080813
0.134905
0.0137325
-0.0112563
0.31024
-0.0425829
0.729371
-0.0805553
1.04783
-0.11679
1.30945
-0.152087
1.56313
-0.185685
1.82051
-0.217169
2.10421
-0.243769
2.42798
-0.261594
2.79258
-0.264057
3.20179
-0.246586
3.06513
-0.214749
2.4657
-0.176324
2.00127
-0.136939
1.63218
-0.0963331
1.31766
-0.0560223
1.01471
-0.0230573
0.690927
-0.00400862
0.368333
0.000447614
0.130449
0.0141801
0.0019756
0.308264
-0.019929
0.751276
-0.0475137
1.07541
-0.0758759
1.33781
-0.10454
1.5918
-0.133399
1.84937
-0.161077
2.13189
-0.184335
2.45124
-0.199224
2.80747
-0.199769
3.20233
-0.181435
3.04679
-0.152271
2.43653
-0.118976
1.96798
-0.0812056
1.59441
-0.0421225
1.27858
-0.00858069
0.981164
0.0116364
0.67071
0.0133575
0.366612
0.00518703
0.13862
0.0193671
0.00246555
0.305799
-0.00862985
0.762371
-0.0286859
1.09547
-0.052143
1.36127
-0.0762317
1.61588
-0.100746
1.87389
-0.124466
2.15561
-0.144298
2.47107
-0.156014
2.81919
-0.153243
3.19956
-0.133884
3.02743
-0.106544
2.40919
-0.0728266
1.93426
-0.0376908
1.55927
-0.00853711
1.24942
0.0122141
0.960413
0.021629
0.661295
0.017653
0.370588
0.00632711
0.149945
0.0256942
0.00464983
0.301149
-0.00341935
0.770441
-0.0205455
1.11259
-0.0398744
1.3806
-0.0600718
1.63608
-0.0810618
1.89488
-0.101605
2.17616
-0.119016
2.48848
-0.129409
2.82958
-0.127729
3.19788
-0.11124
3.01094
-0.0847828
2.38273
-0.0558653
1.90534
-0.0286095
1.53201
-0.00296439
1.22378
0.0161265
0.941322
0.0224905
0.654931
0.0165481
0.376531
0.00558419
0.160909
0.0312784
0.00566531
0.295484
0.000388571
0.775717
-0.0148278
1.12781
-0.0326625
1.39843
-0.050918
1.65434
-0.0696024
1.91356
-0.0878899
2.19444
-0.103409
2.504
-0.112485
2.83866
-0.109382
3.19478
-0.0925134
2.99408
-0.0705233
2.36074
-0.0463654
1.88119
-0.0210721
1.50672
0.000411792
1.20229
0.0147197
0.927014
0.0195296
0.650121
0.013098
0.382962
0.00411844
0.169889
0.0353969
0.00381844
0.291665
-0.000155279
0.779691
-0.0131619
1.14082
-0.0292137
1.41448
-0.0459942
1.67112
-0.0632166
1.93078
-0.0802187
2.21145
-0.0949917
2.51877
-0.104194
2.84786
-0.102445
3.19303
-0.0884407
2.98007
-0.0672355
2.33954
-0.0443145
1.85826
-0.0239745
1.48638
-0.00462781
1.18295
0.00851292
0.913874
0.0123021
0.646332
0.00885046
0.386414
0.00286175
0.175878
0.0382586
0.00251521
0.28915
-0.000894366
0.783101
-0.0127863
1.15271
-0.0278703
1.42957
-0.0438257
1.68707
-0.0601228
1.94708
-0.0762964
2.22762
-0.0905391
2.53302
-0.0993291
2.85665
-0.098663
3.19237
-0.086018
2.96743
-0.0678867
2.32141
-0.0477774
1.83816
-0.0268351
1.46544
-0.0114044
1.16752
-0.000286369
0.902755
0.0043044
0.641741
0.00236874
0.38835
0.000921778
0.177325
0.0391804
-0.000175133
0.289325
-0.00378267
0.786708
-0.0142861
1.16321
-0.0278346
1.44311
-0.0430307
1.70227
-0.0588657
1.96291
-0.0748009
2.24355
-0.0892926
2.54751
-0.0996358
2.86699
-0.10131
3.19404
-0.0896176
2.95574
-0.0717323
2.30352
-0.0526588
1.81908
-0.0367107
1.44949
-0.0219143
1.15272
-0.0115727
0.892414
-0.00602144
0.63619
-0.00321188
0.38554
-0.000933425
0.175046
0.038247
-0.000707855
0.290033
-0.00574844
0.791749
-0.0157815
1.17325
-0.0285636
1.4559
-0.0432093
1.71691
-0.0586054
1.97831
-0.0742879
2.25924
-0.0887369
2.56196
-0.0988579
2.87711
-0.0996831
3.19486
-0.0903625
2.94641
-0.0753535
2.28851
-0.0595899
1.80332
-0.0432636
1.43316
-0.0293131
1.13877
-0.0180058
0.881107
-0.0103735
0.628558
-0.00624356
0.38141
-0.00185835
0.170661
0.0363886
-0.00264224
0.292675
-0.00803897
0.797145
-0.0174857
1.18269
-0.0295464
1.46796
-0.0435381
1.73091
-0.058679
1.99345
-0.0745591
2.27512
-0.0899395
2.57734
-0.102652
2.88983
-0.108972
3.20118
-0.10253
2.93997
-0.086695
2.27268
-0.0673841
1.78401
-0.0515767
1.41736
-0.0370823
1.12427
-0.02583
0.869854
-0.0169852
0.619713
-0.00830341
0.372728
-0.00250617
0.164864
0.0338824
-0.00391369
0.296589
-0.00952062
0.802752
-0.0188253
1.192
-0.0305746
1.47971
-0.0441369
1.74447
-0.0590017
2.00832
-0.0749985
2.29111
-0.0908132
2.59315
-0.103468
2.90248
-0.108743
3.20646
-0.102751
2.93398
-0.0905204
2.26045
-0.0760261
1.76951
-0.0581221
1.39945
-0.0438804
1.11003
-0.0306304
0.856604
-0.0194505
0.608533
-0.010467
0.363745
-0.00305405
0.157451
0.0308284
-0.00441239
0.301001
-0.0107889
0.809129
-0.0199746
1.20118
-0.0313073
1.49104
-0.0444518
1.75761
-0.0591291
2.02299
-0.0752241
2.30721
-0.0915864
2.60951
-0.106764
2.91766
-0.11799
3.21769
-0.116274
2.93226
-0.102267
2.24644
-0.0822892
1.74954
-0.0656367
1.3828
-0.0493633
1.09376
-0.0362699
0.843511
-0.0241402
0.596403
-0.0112495
0.350854
-0.00312602
0.149327
0.0277024
-0.00449095
0.305492
-0.0114067
0.816045
-0.0206982
1.21047
-0.0318552
1.5022
-0.0446949
1.77045
-0.0590869
2.03738
-0.0752134
2.32334
-0.0923177
2.62662
-0.108476
2.93382
-0.118845
3.22805
-0.118354
2.93177
-0.109425
2.23751
-0.0945141
1.73462
-0.0732485
1.36153
-0.0553787
1.07589
-0.0387898
0.826922
-0.0241063
0.58172
-0.0119241
0.338672
-0.00302121
0.140424
0.0246811
-0.00454843
0.310041
-0.0118765
0.823373
-0.0210387
1.21964
-0.0319069
1.51306
-0.0444821
1.78303
-0.0587295
2.05163
-0.0749452
2.33955
-0.0925487
2.64422
-0.11019
2.95146
-0.125636
3.2435
-0.131087
2.93722
-0.120651
2.22708
-0.100595
1.71457
-0.0808614
1.3418
-0.0591632
1.05419
-0.0419677
0.809727
-0.0269718
0.566724
-0.0115799
0.32328
-0.00261581
0.13146
0.0220653
-0.00459031
0.314631
-0.0120297
0.830812
-0.0211041
1.22871
-0.0317948
1.52376
-0.044116
1.79535
-0.0581156
2.06563
-0.0742862
2.35572
-0.0923198
2.66226
-0.111113
2.97025
-0.127004
3.25939
-0.132418
2.94264
-0.126946
2.2216
-0.113066
1.70069
-0.0886495
1.31738
-0.0642552
1.0298
-0.0402981
0.785769
-0.0211727
0.547599
-0.0092729
0.31138
-0.00179694
0.123984
0.0202684
-0.0046289
0.31926
-0.0120656
0.838249
-0.0208404
1.23748
-0.0312035
1.53412
-0.0432666
1.80741
-0.0571098
2.07948
-0.0732636
2.37188
-0.0915711
2.68056
-0.111397
2.99008
-0.130905
3.2789
-0.143061
2.9548
-0.138634
2.21718
-0.120252
1.68231
-0.0969587
1.29409
-0.0669343
0.999773
-0.0399557
0.758791
-0.017815
0.525458
-0.00448198
0.298047
-0.00216606
0.121668
0.0181023
-0.00458079
0.323841
-0.0118929
0.845561
-0.0204585
1.24605
-0.0305555
1.54422
-0.0422957
1.81915
-0.0558412
2.09302
-0.0718426
2.38788
-0.0903834
2.6991
-0.111007
3.0107
-0.131423
3.29931
-0.143143
2.96652
-0.143977
2.21801
-0.133847
1.67218
-0.107265
1.26751
-0.0731838
0.965691
-0.0316339
0.717241
0.00695482
0.486869
0.026103
0.278899
0.0223505
0.125421
0.0404528
-0.00445305
0.328294
-0.0116037
0.852711
-0.0198222
1.25427
-0.0295231
1.55392
-0.0409172
1.83055
-0.0542257
2.10633
-0.0700906
2.40374
-0.0886648
2.71768
-0.109815
3.03185
-0.132441
3.32194
-0.149662
2.98374
-0.154821
2.22317
-0.141995
1.65935
-0.118319
1.24383
-0.0778722
0.925245
-0.0317368
0.671106
0.0197876
0.435345
0.0382779
0.260409
0.0167197
0.146979
0.0571725
-0.00424558
0.332539
-0.0111888
0.859655
-0.019154
1.26223
-0.0285123
1.56327
-0.0395364
1.84157
-0.0524653
2.11926
-0.0680612
2.41934
-0.0866183
2.73623
-0.108358
3.05359
-0.132461
3.34604
-0.150497
3.00177
-0.158411
2.23108
-0.15659
1.65753
-0.134177
1.22142
-0.0943174
0.885385
-0.0249796
0.601768
0.078145
0.33222
0.172259
0.166295
0.175699
0.143539
0.232871
-0.00408223
0.336622
-0.0109074
0.86648
-0.0187336
1.27006
-0.0280204
1.57256
-0.0392086
1.85276
-0.0526156
2.13266
-0.0691067
2.43583
-0.0892033
2.75633
-0.113528
3.07792
-0.141621
3.37414
-0.1668
3.02695
-0.182551
2.24683
-0.181189
1.65617
-0.164807
1.20504
-0.123067
0.843645
-0.0757073
0.554408
-0.103899
0.360412
-0.362548
0.424943
-0.931127
0.712118
0.895672
-1.59393
-0.00387923
0.340501
-0.0104959
0.873097
-0.0181573
1.27772
-0.0272968
1.5817
-0.0383385
1.8638
-0.0517658
2.14609
-0.0685898
2.45265
-0.0895649
2.77731
-0.11572
3.10407
-0.148085
3.4065
-0.178724
3.05759
-0.198624
2.26673
-0.215784
1.67333
-0.214737
1.20399
-0.203926
0.832834
-0.284295
0.634776
-0.690025
0.766142
-1.419
1.15392
-2.03157
1.32469
1.21914
-2.35504
-0.00366596
0.344167
-0.00999624
0.879427
-0.0173552
1.28508
-0.0262388
1.59058
-0.0371408
1.8747
-0.0506567
2.15961
-0.0678324
2.46983
-0.0896596
2.79913
-0.117616
3.13203
-0.152597
3.44148
-0.187619
3.09261
-0.219646
2.29876
-0.240194
1.69388
-0.245934
1.20973
-0.333698
0.920598
-0.748992
1.05007
-1.51819
1.53534
-2.0963
1.73202
-2.33913
1.56753
1.33493
-2.45492
-0.00344919
0.347616
-0.00944507
0.885423
-0.0165601
1.2922
-0.0252371
1.59926
-0.0359288
1.88539
-0.0493899
2.17307
-0.0667868
2.48723
-0.0893125
2.82166
-0.118786
3.1615
-0.158277
3.48098
-0.202365
3.1367
-0.238195
2.33459
-0.276701
1.73238
-0.36599
1.29902
-0.696382
1.25099
-1.41952
1.77321
-2.01595
2.13177
-2.25856
1.97463
-2.37352
1.68248
1.40087
-2.43946
-0.00318005
0.350796
-0.00877896
0.891022
-0.015511
1.29893
-0.0238635
1.60761
-0.0344177
1.89595
-0.0478821
2.18653
-0.0654802
2.50482
-0.0886817
2.84486
-0.119944
3.19276
-0.162319
3.52335
-0.209834
3.18421
-0.26022
2.38498
-0.312892
1.78505
-0.491069
1.4772
-1.08024
1.84016
-1.77094
2.46392
-2.10056
2.46139
-2.25207
2.12615
-2.33553
1.76594
1.46687
-2.40152
-0.00308199
0.353878
-0.00857606
0.896516
-0.0153244
1.30568
-0.0237508
1.61604
-0.0345134
1.90671
-0.0481791
2.2002
-0.0662226
2.52287
-0.0902609
2.8689
-0.122913
3.22541
-0.168942
3.56938
-0.226913
3.24219
-0.279942
2.43801
-0.374145
1.87926
-0.751046
1.8541
-1.47505
2.56416
-1.95779
2.94666
-2.16008
2.66368
-2.26764
2.2337
-2.34499
1.84329
1.53137
-2.4095
-0.00313934
0.357017
-0.00885447
0.902231
-0.0158932
1.31271
-0.0246965
1.62484
-0.0359831
1.918
-0.0503326
2.21455
-0.0692233
2.54176
-0.0944706
2.89415
-0.129278
3.26022
-0.17926
3.61936
-0.237842
3.30077
-0.30587
2.50603
-0.496763
2.07015
-1.0355
2.39284
-1.66462
3.19327
-1.94858
3.23062
-2.0977
2.8128
-2.21315
2.34916
-2.30739
1.93753
1.59421
-2.37023
-0.0031481
0.360165
-0.00914807
0.908231
-0.0166665
1.32023
-0.0260051
1.63418
-0.0377678
1.92976
-0.0526933
2.22947
-0.0723957
2.56146
-0.0987992
2.92055
-0.135132
3.29656
-0.187439
3.67167
-0.254432
3.36776
-0.34717
2.59877
-0.621518
2.3445
-1.24827
3.01959
-1.74545
3.69045
-1.95564
3.44081
-2.09884
2.95599
-2.22484
2.47516
-2.33807
2.05076
1.65402
-2.39787
-0.00308952
0.363255
-0.00932189
0.914463
-0.0171918
1.3281
-0.0269725
1.64396
-0.0393194
1.94211
-0.055003
2.24516
-0.0756092
2.58207
-0.103234
2.94817
-0.14161
3.33493
-0.197924
3.72798
-0.267395
3.43723
-0.391051
2.72243
-0.766123
2.71957
-1.39478
3.64825
-1.7578
4.05347
-1.93404
3.61706
-2.03937
3.06132
-2.1315
2.56729
-2.20182
2.12108
1.64789
-2.1957
-0.00296511
0.36622
-0.00945204
0.92095
-0.017888
1.33654
-0.0282949
1.65437
-0.0411815
1.95499
-0.0574584
2.26143
-0.0788711
2.60348
-0.107638
2.97694
-0.147504
3.3748
-0.204324
3.7848
-0.285177
3.51808
-0.455585
2.89284
-0.894994
3.15898
-1.44965
4.20291
-1.71745
4.32127
-1.8753
3.77491
-1.97207
3.15809
-1.97716
2.57238
-1.91381
2.05773
1.62164
-1.88755
-0.00264696
0.368867
-0.00937582
0.927679
-0.0180835
1.34525
-0.0288387
1.66513
-0.0422189
1.96837
-0.0590068
2.27822
-0.0808466
2.62532
-0.109946
3.00604
-0.150205
3.41506
-0.207974
3.84257
-0.294661
3.60477
-0.493081
3.09126
-0.967234
3.63313
-1.41634
4.65202
-1.59064
4.49556
-1.66126
3.84553
-1.66872
3.16555
-1.52466
2.42832
-1.0276
1.56067
0.594037
-0.00225321
0.37112
-0.00911321
0.934539
-0.0184545
1.35459
-0.030041
1.67671
-0.0443164
1.98265
-0.0622302
2.29614
-0.0857352
2.64882
-0.117345
3.03765
-0.161376
3.45909
-0.22362
3.90481
-0.326404
3.70755
-0.576356
3.34121
-1.10342
4.16019
-1.47044
5.01904
-1.573
4.59812
-1.57386
3.84638
-1.4752
3.06688
-1.23899
2.19212
-0.644183
0.965862
-0.0501455
-0.00177202
0.372892
-0.00846518
0.941232
-0.0179815
1.3641
-0.0300924
1.68882
-0.0453391
1.9979
-0.0646296
2.31543
-0.0899907
2.67419
-0.124096
3.07175
-0.171901
3.50689
-0.242099
3.97501
-0.363871
3.82933
-0.664587
3.64193
-1.21327
4.70888
-1.4873
5.29306
-1.55177
4.66259
-1.5343
3.82892
-1.33581
2.8684
-0.797339
1.65364
-0.11575
0.284272
-0.165895
-0.00106767
0.37396
-0.00743031
0.947595
-0.0174847
1.37416
-0.0304604
1.7018
-0.0464585
2.01389
-0.0667648
2.33573
-0.0936604
2.70108
-0.130266
3.10836
-0.181775
3.5584
-0.257339
4.05058
-0.400299
3.97229
-0.759308
4.00093
-1.29514
5.24471
-1.48125
5.47918
-1.51099
4.69233
-1.42947
3.74739
-1.11535
2.55428
-0.327397
0.865686
0.0299988
-0.073123
-0.135896
-0.000194273
0.374154
-0.00560913
0.95301
-0.0155742
1.38412
-0.028899
1.71512
-0.0457092
2.0307
-0.0672933
2.35732
-0.0959567
2.72974
-0.13469
3.14709
-0.188755
3.61247
-0.273889
4.13571
-0.443641
4.14204
-0.857405
4.4147
-1.33214
5.71945
-1.45626
5.60329
-1.46556
4.70164
-1.26015
3.54198
-0.711927
2.00606
-0.0679068
0.221666
0.0336205
-0.17465
-0.102276
0.00161767
0.372537
-0.0026442
0.957271
-0.0131956
1.39468
-0.0274762
1.7294
-0.0446751
2.0479
-0.0670055
2.37965
-0.0967376
2.75948
-0.137316
3.18767
-0.193678
3.66883
-0.285628
4.22766
-0.47708
4.33349
-0.9403
4.87792
-1.33049
6.10963
-1.40328
5.67609
-1.36722
4.66557
-1.08107
3.25583
-0.34922
1.27421
-0.00818595
-0.119367
0.0104496
-0.193286
-0.0918262
0.00347094
0.369066
0.00117198
0.95957
-0.00898345
1.40483
-0.0229576
1.74338
-0.0405475
2.06549
-0.0638861
2.40299
-0.0948803
2.79047
-0.136642
3.22943
-0.195111
3.7273
-0.295221
4.32777
-0.511296
4.54957
-0.998135
5.36476
-1.28472
6.39621
-1.32543
5.7168
-1.21297
4.55311
-0.81289
2.85575
-0.0969021
0.55822
0.0433094
-0.259579
0.0248812
-0.174858
-0.0669451
0.00576823
0.363297
0.00493446
0.960404
-0.00410287
1.41387
-0.0180002
1.75728
-0.0355081
2.083
-0.0589528
2.42643
-0.0900765
2.82159
-0.132731
3.27209
-0.192653
3.78722
-0.297312
4.43243
-0.53144
4.78369
-1.00802
5.84133
-1.21347
6.60167
-1.23587
5.7392
-1.04115
4.3584
-0.496149
2.31075
-0.00218333
0.0642549
0.014802
-0.276564
0.0164165
-0.176472
-0.0505285
0.00855067
0.354747
0.0105795
0.958375
0.00415537
1.42029
-0.00813402
1.76956
-0.0259216
2.10079
-0.0495561
2.45007
-0.0807212
2.85276
-0.122678
3.31405
-0.182596
3.84714
-0.291981
4.54181
-0.542163
5.03387
-0.982314
6.28148
-1.11577
6.73512
-1.09543
5.71886
-0.864045
4.12701
-0.310872
1.75758
-0.0711279
-0.175489
-0.0422755
-0.305417
-0.0120241
-0.206724
-0.0625526
0.0127134
0.342033
0.018935
0.952154
0.0143511
1.42488
0.00323977
1.78068
-0.0144169
2.11845
-0.0365772
2.47223
-0.066053
2.88224
-0.106909
3.3549
-0.165509
3.90574
-0.275399
4.6517
-0.522197
5.28067
-0.898707
6.65799
-0.982667
6.81908
-0.955346
5.69154
-0.70053
3.8722
-0.15823
1.21528
-0.0776526
-0.256066
-0.0469373
-0.336132
-0.0166802
-0.236981
-0.0792328
0.0177934
0.32424
0.0294905
0.940457
0.028753
1.42561
0.0194241
1.79001
0.00387504
2.13399
-0.0162759
2.49238
-0.0440329
2.90999
-0.0817009
3.39257
-0.136017
3.96006
-0.241311
4.757
-0.468969
5.50833
-0.768303
6.95733
-0.829188
6.87997
-0.745768
5.60812
-0.450685
3.57712
-0.00791954
0.77251
0.0166564
-0.280642
0.0115213
-0.330997
0.0122135
-0.237673
-0.0670193
0.0245898
0.29965
0.0437813
0.921265
0.047275
1.42212
0.0403039
1.79698
0.0282696
2.14603
0.0106706
2.50998
-0.013548
2.93421
-0.0465888
3.42561
-0.0949068
4.00837
-0.189017
4.85111
-0.38011
5.69942
-0.580871
7.15809
-0.629666
6.92876
-0.557881
5.53633
-0.226368
3.2456
0.104011
0.442132
0.0523072
-0.228938
0.0453272
-0.324017
0.0446776
-0.237023
-0.0223417
0.032367
0.267283
0.061077
0.892555
0.071923
1.41127
0.0701523
1.79875
0.0617152
2.15447
0.0473074
2.52438
0.0276342
2.95388
0.00100195
3.45224
-0.0384994
4.04787
-0.104292
4.9169
-0.242268
5.8374
-0.367476
7.2833
-0.444357
7.00564
-0.480978
5.57295
-0.391386
3.15601
-0.395808
0.446554
-0.394727
-0.23002
-0.244886
-0.473858
-0.0746199
-0.407289
-0.0969616
0.0416465
0.225637
0.0831175
0.851084
0.102772
1.39162
0.106565
1.79495
0.103102
2.15793
0.0937459
2.53374
0.081601
2.96603
0.0638213
3.47002
0.0379451
4.07375
0.00867361
4.94617
-0.0454596
5.89153
-0.105516
7.34335
-0.181254
7.08138
-0.323946
5.71565
-0.503036
3.3351
-0.780295
0.723813
-0.775662
-0.234653
-0.567601
-0.681919
-0.265314
-0.709577
-0.362275
0.0507348
0.174902
0.108491
0.793328
0.141357
1.35875
0.15361
1.7827
0.156829
2.15471
0.152918
2.53765
0.148406
2.97054
0.143142
3.47529
0.140363
4.07653
0.14058
4.94596
0.201122
5.83099
0.266411
7.27806
0.264195
7.0836
0.195867
5.78397
-0.0800483
3.61102
-0.555065
1.19883
-0.749083
-0.040634
-0.656043
-0.774959
-0.350399
-1.01522
-0.712675
0.0550347
0.119867
0.135443
0.712919
0.186424
1.30777
0.210064
1.75906
0.221483
2.14329
0.22552
2.53361
0.231224
2.96484
0.239926
3.46659
0.261417
4.05504
0.307033
4.90034
0.492395
5.64563
0.804693
6.96577
1.08667
6.80162
1.35393
5.51671
1.17192
3.79303
0.591527
1.77922
0.115885
0.435008
-0.143958
-0.515116
-0.188492
-0.970687
-0.901167
0.0499749
0.0698923
0.161568
0.601326
0.239923
1.22942
0.27906
1.71992
0.300477
2.12187
0.312977
2.52111
0.328468
2.94934
0.352239
3.44282
0.401441
4.00584
0.507915
4.79387
0.828662
5.32488
1.45994
6.33449
1.87
6.39156
2.18123
5.20548
2.12675
3.8475
1.64508
2.2609
1.17025
0.909837
0.634395
0.0207376
0.229582
-0.565873
-0.671585
0.0374968
0.0323955
0.186414
0.452409
0.295659
1.12017
0.357473
1.65811
0.391172
2.08818
0.416233
2.49605
0.439746
2.92583
0.477301
3.40526
0.549799
3.93334
0.69973
4.64393
1.09229
4.93232
1.83828
5.5885
2.24832
5.98152
2.4849
4.96889
2.48437
3.84804
2.06814
2.67713
1.51024
1.46773
0.954663
0.576318
0.426089
-0.0372999
-0.245496
0.0292661
0.00312931
0.2073
0.274375
0.362776
0.964696
0.451319
1.56957
0.497521
2.04197
0.532566
2.46101
0.561906
2.89649
0.607569
3.3596
0.67999
3.86092
0.826814
4.49711
1.12738
4.63175
1.82551
4.89038
2.20691
5.60012
2.38346
4.79234
2.36417
3.86734
2.08596
2.95534
1.56434
1.98935
1.00162
1.13904
0.415611
0.548712
0.170115
0.0284985
-0.0253692
0.191402
0.111471
0.418367
0.737731
0.549397
1.43854
0.614349
1.97702
0.659744
2.41561
0.693675
2.86256
0.730454
3.32282
0.779934
3.81144
0.8864
4.39064
1.05368
4.46447
1.52531
4.41875
1.9463
5.17914
2.0036
4.73503
1.92354
3.9474
1.69786
3.18102
1.27924
2.40796
0.799322
1.61896
0.336256
1.01178
0.506371
0.0273075
-0.0526767
0.130465
0.00831407
0.377782
0.490413
0.540762
1.27556
0.612094
1.90569
0.638579
2.38913
0.648916
2.85222
0.643352
3.32838
0.6358
3.81899
0.635091
4.39135
0.666501
4.43306
0.842846
4.2424
1.06957
4.95241
1.0649
4.7397
0.979343
4.03296
0.845425
3.31493
0.642909
2.61048
0.388088
1.87378
0.15189
1.24798
0.65826
0.0208911
-0.0735678
0.069903
-0.0406978
0.221145
0.339171
0.359371
1.13733
0.437114
1.82795
0.470637
2.35561
0.489669
2.83319
0.495192
3.32286
0.492582
3.8216
0.484791
4.39914
0.481962
4.43589
0.583752
4.14061
0.74976
4.7864
0.752056
4.73741
0.671673
4.11334
0.564102
3.42251
0.423004
2.75158
0.24825
2.04853
0.0858525
1.41037
0.744113
0.0212774
-0.0948451
0.0425393
-0.0619597
0.0947432
0.286967
0.186685
1.04539
0.258655
1.75598
0.304141
2.31012
0.336375
2.80096
0.353843
3.30539
0.359977
3.81547
0.359655
4.39947
0.34538
4.45017
0.3938
4.09219
0.504093
4.67611
0.503815
4.73768
0.441212
4.17594
0.354692
3.50903
0.251134
2.85513
0.131054
2.16861
0.0288708
1.51256
0.772984
0.00955655
-0.104402
-0.000955835
-0.0514474
-0.0142568
0.300268
0.027779
1.00335
0.0866571
1.6971
0.143915
2.25286
0.193076
2.7518
0.227336
3.27113
0.250997
3.7918
0.259242
4.39122
0.241711
4.4677
0.258393
4.07551
0.324603
4.6099
0.318474
4.74381
0.269272
4.22515
0.202168
3.57613
0.127835
2.92947
0.0503403
2.2461
-0.0103442
1.57324
0.762639
-0.0107681
-0.0936335
-0.0528266
-0.00938892
-0.0976214
0.345063
-0.098978
1.00471
-0.0511108
1.64923
0.0117849
2.18997
0.0696763
2.6939
0.122189
3.21862
0.158705
3.75529
0.170667
4.37926
0.158498
4.47987
0.165248
4.06876
0.198425
4.57672
0.184681
4.75756
0.145909
4.26392
0.0974958
3.62454
0.0479485
2.97901
-0.00346816
2.29752
-0.0331933
1.60297
0.729446
-0.0301169
-0.0635166
-0.0900644