/*--------------------------------*- C++ -*----------------------------------*\
  =========                 |
  \\      /  F ield         | OpenFOAM: The Open Source CFD Toolbox
   \\    /   O peration     | Website:  https://openfoam.org
    \\  /    A nd           | Version:  9
     \\/     M anipulation  |
\*---------------------------------------------------------------------------*/
FoamFile
{
    format      ascii;
    class       volScalarField;
    location    "8";
    object      p;
}
// * * * * * * * * * * * * * * * * * * * * * * * * * * * * * * * * * * * * * //

dimensions      [0 2 -2 0 0 0 0];

internalField   nonuniform List<scalar> 
2200
(
0.439464
0.418049
0.402498
0.387084
0.373104
0.361255
0.351523
0.344058
0.338758
0.336025
0.336232
0.33936
0.344943
0.352615
0.362496
0.374448
0.388497
0.403954
0.41953
0.440957
0.370653
0.367637
0.365379
0.362342
0.357886
0.352139
0.346231
0.340863
0.336698
0.3343
0.33454
0.337354
0.341811
0.347395
0.35345
0.359293
0.363814
0.366901
0.36919
0.372216
0.328821
0.329676
0.333079
0.33556
0.336882
0.337104
0.336166
0.334284
0.332286
0.330825
0.331114
0.333022
0.335326
0.337432
0.338534
0.338439
0.337204
0.334775
0.331411
0.33057
0.308319
0.309784
0.313106
0.316136
0.318999
0.321665
0.323476
0.324404
0.324607
0.324569
0.324857
0.325453
0.325643
0.324993
0.323374
0.320828
0.318041
0.315061
0.31178
0.310329
0.300073
0.301572
0.304454
0.307208
0.309964
0.312399
0.314317
0.31591
0.317044
0.317855
0.318215
0.318062
0.31743
0.31618
0.314474
0.312168
0.309501
0.306798
0.303957
0.302466
0.299713
0.30076
0.302755
0.304995
0.307327
0.309227
0.310798
0.31213
0.313198
0.314018
0.314421
0.314296
0.313806
0.312907
0.311626
0.30994
0.307765
0.305605
0.303638
0.302596
0.301156
0.301626
0.302542
0.303833
0.305397
0.306865
0.308264
0.309445
0.310412
0.311129
0.311579
0.311675
0.311407
0.310761
0.309753
0.308567
0.307185
0.305999
0.305119
0.304636
0.299882
0.299952
0.30016
0.30057
0.301261
0.302063
0.303083
0.304227
0.305328
0.306281
0.30695
0.30715
0.306916
0.306362
0.305769
0.305246
0.304727
0.304415
0.304268
0.304209
0.296191
0.29619
0.29621
0.296313
0.296593
0.296993
0.297628
0.298495
0.29954
0.300661
0.301598
0.302045
0.302046
0.301883
0.301709
0.3016
0.301516
0.301525
0.301579
0.301583
0.292294
0.29228
0.292356
0.292533
0.292818
0.293201
0.293743
0.294469
0.295403
0.296534
0.297606
0.298372
0.298746
0.298942
0.299039
0.299083
0.29908
0.299078
0.299081
0.299082
0.288417
0.288457
0.288556
0.288734
0.289085
0.289523
0.290135
0.290951
0.291984
0.293248
0.294524
0.295517
0.296169
0.296605
0.296852
0.296975
0.297015
0.297021
0.297011
0.297003
0.28406
0.284085
0.284191
0.284364
0.284655
0.285108
0.285775
0.286706
0.28794
0.28948
0.291117
0.292412
0.293359
0.293988
0.294377
0.294615
0.294754
0.294835
0.294873
0.294871
0.279105
0.279112
0.279222
0.279415
0.279726
0.280213
0.280951
0.282021
0.283497
0.285404
0.287505
0.289235
0.29049
0.291353
0.291927
0.292302
0.292541
0.292687
0.292762
0.292772
0.27369
0.273701
0.273825
0.274063
0.274449
0.275048
0.275946
0.277246
0.279056
0.281444
0.284095
0.286357
0.288004
0.289135
0.289897
0.290398
0.290714
0.290902
0.290995
0.291005
0.267807
0.267828
0.26798
0.268274
0.268757
0.269508
0.270633
0.272262
0.274533
0.277546
0.280913
0.283798
0.285893
0.287338
0.288315
0.288954
0.289356
0.289592
0.289708
0.289717
0.261275
0.261303
0.261497
0.261866
0.262474
0.263421
0.264841
0.266899
0.26977
0.273582
0.277848
0.281488
0.284128
0.285964
0.287204
0.288014
0.288524
0.288826
0.288975
0.288987
0.253883
0.253918
0.254163
0.254631
0.255401
0.256608
0.258416
0.261037
0.264688
0.269521
0.274912
0.279495
0.282817
0.285131
0.286692
0.287712
0.288354
0.288734
0.28892
0.288935
0.245349
0.245398
0.245724
0.246341
0.24735
0.248907
0.251233
0.254591
0.259249
0.265384
0.272187
0.277939
0.282102
0.284997
0.286947
0.288223
0.289029
0.289507
0.289741
0.289759
0.235456
0.235519
0.235932
0.236722
0.238021
0.240042
0.243058
0.247396
0.253369
0.261165
0.269726
0.276919
0.282113
0.285723
0.288154
0.28974
0.290737
0.291322
0.291607
0.291627
0.223514
0.223621
0.224207
0.225296
0.227051
0.229721
0.23367
0.239302
0.246978
0.256872
0.267603
0.276556
0.283006
0.287488
0.290507
0.292482
0.293731
0.294476
0.294841
0.294868
0.209311
0.20942
0.210157
0.21158
0.21391
0.217486
0.222739
0.23013
0.240031
0.252561
0.265937
0.27701
0.284979
0.29053
0.294281
0.296736
0.298279
0.299181
0.299613
0.299634
0.191272
0.191543
0.192691
0.194755
0.198016
0.202897
0.209954
0.219696
0.232462
0.248256
0.264803
0.27839
0.288171
0.295014
0.299667
0.302737
0.304692
0.305863
0.306445
0.306491
0.168891
0.169161
0.170709
0.173657
0.178369
0.18529
0.194989
0.207944
0.224373
0.244136
0.264416
0.280929
0.292833
0.301237
0.307031
0.310913
0.313408
0.314887
0.315585
0.315602
0.139118
0.139968
0.142657
0.147272
0.154309
0.164224
0.177646
0.194838
0.215842
0.240312
0.264863
0.28468
0.299008
0.309232
0.316409
0.321315
0.324562
0.32659
0.327631
0.32766
0.0998423
0.101101
0.105551
0.113306
0.12455
0.139277
0.157894
0.180545
0.207087
0.236993
0.26631
0.289764
0.306791
0.319118
0.327994
0.334334
0.338704
0.341492
0.343047
0.342948
0.0477358
0.048541
0.0574184
0.0710296
0.0889942
0.110592
0.136117
0.165584
0.198586
0.234538
0.268964
0.296254
0.316157
0.330802
0.341589
0.349534
0.355408
0.359479
0.361301
0.360973
-0.025615
-0.0195824
-0.000131843
0.0234144
0.0500159
0.0797635
0.113234
0.150208
0.190294
0.232979
0.273197
0.305051
0.328629
0.346451
0.360159
0.370804
0.379195
0.386125
0.389899
0.390225
-0.113893
-0.0934129
-0.0599514
-0.0255699
0.0100588
0.0486778
0.0903744
0.134921
0.182344
0.232199
0.278922
0.316145
0.344132
0.365784
0.382961
0.396955
0.408218
0.416955
0.425698
0.427574
-0.177326
-0.157625
-0.114912
-0.0732019
-0.0286658
0.0188669
0.068523
0.120561
0.175112
0.231766
0.284506
0.326407
0.357864
0.382156
0.401298
0.416604
0.429618
0.43846
0.446959
0.448861
-0.224442
-0.206558
-0.160147
-0.114492
-0.0632045
-0.00853983
0.0479493
0.106847
0.167919
0.230771
0.288833
0.334542
0.368445
0.394224
0.414177
0.429687
0.442616
0.451821
0.45943
0.461141
-0.262989
-0.244571
-0.196209
-0.148448
-0.0923292
-0.0329757
0.0288534
0.093525
0.160304
0.228768
0.291613
0.340569
0.376375
0.403167
0.423599
0.439313
0.451962
0.461262
0.468757
0.470306
-0.295707
-0.276614
-0.225968
-0.176088
-0.1167
-0.0544616
0.0114332
0.0807434
0.152476
0.226098
0.293482
0.34554
0.383171
0.410973
0.43193
0.447934
0.460477
0.469876
0.477108
0.478936
-0.324051
-0.304895
-0.25239
-0.200036
-0.138
-0.0735346
-0.00437787
0.0686673
0.144718
0.223105
0.294926
0.350138
0.389691
0.418604
0.440152
0.456461
0.469021
0.47844
0.485551
0.487371
-0.349184
-0.330043
-0.276815
-0.222053
-0.157929
-0.0911866
-0.0191691
0.0570429
0.136932
0.219787
0.296073
0.35462
0.396241
0.426346
0.448533
0.46515
0.477779
0.487199
0.494226
0.496024
-0.372339
-0.352617
-0.29934
-0.242959
-0.17727
-0.108288
-0.0337063
0.0453554
0.128754
0.215868
0.296704
0.358828
0.402786
0.434311
0.457269
0.474276
0.487059
0.496495
0.503429
0.505213
-0.393868
-0.373981
-0.3203
-0.262893
-0.19604
-0.125163
-0.0483913
0.0332506
0.119898
0.211168
0.296814
0.362983
0.409642
0.442772
0.466631
0.484098
0.497059
0.50654
0.513415
0.515155
-0.414304
-0.394384
-0.340117
-0.28192
-0.214119
-0.141776
-0.0632359
0.020651
0.110266
0.205565
0.296176
0.36671
0.416525
0.451703
0.476703
0.494729
0.507964
0.517509
0.524215
0.525875
-0.434003
-0.413847
-0.359054
-0.300166
-0.231535
-0.158072
-0.0781466
0.00759056
0.0998025
0.1989
0.294634
0.370145
0.423733
0.461325
0.487676
0.506441
0.519942
0.529592
0.536287
0.537888
-0.453103
-0.432534
-0.377303
-0.317773
-0.248415
-0.174072
-0.093083
-0.00589209
0.0885336
0.191238
0.292344
0.373241
0.431
0.47147
0.499573
0.519029
0.532831
0.542476
0.549086
0.550642
-0.471581
-0.450602
-0.394944
-0.334809
-0.264848
-0.189818
-0.108047
-0.0197778
0.0764329
0.182322
0.288561
0.375227
0.437914
0.48193
0.512147
0.532811
0.547012
0.556721
0.563149
0.5645
-0.489389
-0.468011
-0.41194
-0.351257
-0.280834
-0.205305
-0.123029
-0.0340484
0.0634874
0.172195
0.283879
0.376947
0.444895
0.492936
0.525819
0.547752
0.562212
0.571858
0.57799
0.57906
-0.506424
-0.484676
-0.428202
-0.367055
-0.296314
-0.220471
-0.137963
-0.0486153
0.0498284
0.160993
0.277833
0.377433
0.451201
0.503513
0.539715
0.56376
0.579047
0.588375
0.593623
0.594115
-0.522601
-0.50052
-0.443659
-0.382134
-0.311198
-0.235218
-0.152738
-0.0633722
0.0354901
0.148426
0.269924
0.376362
0.45659
0.514351
0.554593
0.581683
0.59771
0.605717
0.609227
0.60828
-0.537886
-0.515497
-0.458272
-0.396442
-0.325409
-0.249455
-0.167256
-0.078241
0.0205515
0.134786
0.261106
0.374656
0.461227
0.523516
0.568054
0.599086
0.618256
0.625816
0.626165
0.622432
-0.552275
-0.529592
-0.472019
-0.409946
-0.338897
-0.263115
-0.181419
-0.0930921
0.00521046
0.120228
0.250489
0.371211
0.464502
0.531982
0.581138
0.6183
0.643545
0.650583
0.642332
0.643803
-0.565735
-0.542802
-0.484889
-0.422624
-0.351629
-0.276138
-0.195124
-0.107788
-0.0104274
0.104629
0.238349
0.366067
0.465662
0.537854
0.59076
0.634794
0.66965
0.680152
0.644909
0.584076
-0.578301
-0.555146
-0.496939
-0.434548
-0.363713
-0.288647
-0.208526
-0.122544
-0.0267184
0.08772
0.224509
0.359388
0.465488
0.541385
0.596415
0.645212
0.694212
0.737839
0.777048
0.832893
-0.589991
-0.5667
-0.508273
-0.445855
-0.375305
-0.30083
-0.221858
-0.137674
-0.0440929
0.0688095
0.207463
0.349974
0.463377
0.54165
0.593878
0.634429
0.66965
0.704571
0.703869
0.705157
-0.600836
-0.577486
-0.518879
-0.45653
-0.386348
-0.312599
-0.234993
-0.152982
-0.0622705
0.0481565
0.187494
0.338256
0.457646
0.532719
0.576067
0.603777
0.607286
0.580471
0.534254
0.528656
-0.610882
-0.587545
-0.528788
-0.466604
-0.396848
-0.323949
-0.247903
-0.168399
-0.0812665
0.0255472
0.164441
0.32376
0.450671
0.515533
0.545808
0.546608
0.507914
0.440442
0.367278
0.358009
-0.620137
-0.596924
-0.538047
-0.476113
-0.406824
-0.334873
-0.260555
-0.183898
-0.100965
0.000884305
0.138005
0.305649
0.439359
0.495689
0.494862
0.459181
0.404603
0.293522
0.195464
0.17757
-0.628928
-0.605907
-0.546972
-0.485321
-0.416532
-0.345598
-0.273145
-0.1997
-0.121471
-0.0259322
0.107326
0.283087
0.426895
0.474479
0.430899
0.358474
0.236242
0.0914861
-0.0356093
-0.0632821
-0.63789
-0.615
-0.556012
-0.494589
-0.426332
-0.356433
-0.285968
-0.216123
-0.143504
-0.0557376
0.0714469
0.255572
0.413985
0.437908
0.357058
0.225458
0.0223971
-0.165768
-0.316049
-0.348958
-0.647242
-0.624383
-0.565278
-0.50397
-0.43624
-0.367382
-0.299031
-0.233181
-0.167323
-0.0885688
0.0284427
0.219783
0.39584
0.394602
0.270198
0.0659625
-0.212019
-0.48475
-0.701617
-0.763429
-0.656886
-0.63398
-0.574663
-0.513379
-0.446124
-0.378305
-0.31216
-0.250696
-0.192595
-0.124237
-0.0234026
0.173142
0.36645
0.334929
0.159826
-0.121533
-0.456848
-0.852478
-1.2544
-1.40027
-0.666772
-0.643712
-0.584106
-0.522763
-0.455887
-0.389071
-0.325184
-0.268555
-0.219636
-0.165604
-0.0877155
0.112507
0.318633
0.236986
0.0108081
-0.326747
-0.68966
-1.19039
-1.91435
-2.56112
-0.676903
-0.653535
-0.593523
-0.532023
-0.46538
-0.399468
-0.337866
-0.286298
-0.24816
-0.217243
-0.161852
0.0285376
0.249104
0.115652
-0.182676
-0.567414
-0.917868
-1.33054
-2.13407
-4.09635
-0.687218
-0.663394
-0.602858
-0.541063
-0.474489
-0.409336
-0.350057
-0.303665
-0.277122
-0.270459
-0.257556
-0.0942578
0.149059
-0.0186897
-0.38084
-0.777793
-1.06934
-1.25834
-1.42317
-1.95225
-0.697568
-0.673232
-0.612071
-0.549848
-0.483201
-0.418605
-0.36159
-0.320905
-0.306787
-0.333025
-0.3878
-0.279216
-0.00959869
-0.184338
-0.553073
-0.90582
-1.10781
-1.19886
-1.2169
-1.29429
-0.707743
-0.682893
-0.62102
-0.558216
-0.491312
-0.427019
-0.371842
-0.337409
-0.33673
-0.408898
-0.560251
-0.539934
-0.23573
-0.397561
-0.71664
-0.99016
-1.10586
-1.13237
-1.14113
-1.20704
-0.717569
-0.692179
-0.629487
-0.565934
-0.498548
-0.434228
-0.380226
-0.351507
-0.366556
-0.496066
-0.761991
-0.854702
-0.547966
-0.635536
-0.897686
-1.09652
-1.12665
-1.03489
-1.08663
-1.12909
-0.726915
-0.700932
-0.637277
-0.572788
-0.504587
-0.439796
-0.386147
-0.361119
-0.394423
-0.574076
-0.963885
-1.17535
-0.925965
-0.856573
-1.09937
-1.31563
-1.37836
-1.26724
-1.29421
-1.32474
-0.735726
-0.709032
-0.644274
-0.578563
-0.509162
-0.443204
-0.388777
-0.364598
-0.409641
-0.626171
-1.1195
-1.42984
-1.18399
-1.0251
-1.29053
-1.63985
-1.92938
-1.93881
-1.7995
-1.78161
-0.744331
-0.716567
-0.650381
-0.583162
-0.51205
-0.444059
-0.387551
-0.361225
-0.41274
-0.643024
-1.17355
-1.499
-1.22503
-1.10265
-1.39158
-1.84635
-2.25499
-2.29056
-2.07397
-2.00408
-0.75262
-0.723492
-0.655692
-0.586557
-0.513258
-0.442425
-0.382286
-0.350631
-0.396162
-0.606767
-1.09118
-1.33666
-1.06655
-1.0207
-1.2404
-1.54763
-1.89671
-1.88631
-1.71955
-1.61386
-0.760986
-0.730257
-0.660316
-0.588933
-0.513033
-0.43837
-0.372888
-0.33222
-0.356404
-0.518757
-0.88012
-0.985357
-0.694639
-0.601603
-0.677327
-0.805235
-0.941181
-0.932899
-0.865875
-0.817966
-0.770762
-0.736179
-0.664466
-0.590887
-0.511609
-0.432423
-0.360084
-0.306609
-0.30017
-0.390278
-0.582628
-0.521355
-0.210484
-0.04269
0.035462
0.0254258
-0.0282343
-0.0327173
-0.00459615
0.0110986
-0.781214
-0.743567
-0.669497
-0.592378
-0.509314
-0.425429
-0.345352
-0.27696
-0.236343
-0.245265
-0.266517
-0.0595115
0.215081
0.406722
0.523708
0.562115
0.572322
0.595958
0.614384
0.622748
-0.788655
-0.752194
-0.674181
-0.593468
-0.50696
-0.418199
-0.330009
-0.246749
-0.1741
-0.111784
-0.0117347
0.27063
0.501357
0.681911
0.796226
0.863244
0.910246
0.945687
0.962609
0.966601
-0.79261
-0.758897
-0.675703
-0.593503
-0.504417
-0.410766
-0.315004
-0.218883
-0.121104
-0.00990965
0.154799
0.440666
0.664053
0.833289
0.942862
1.0162
1.0671
1.10217
1.12105
1.12661
-0.794045
-0.760723
-0.67452
-0.592547
-0.500474
-0.402294
-0.300723
-0.194413
-0.0793275
0.0606226
0.252383
0.506371
0.721547
0.874645
0.977359
1.04874
1.09885
1.13453
1.15661
1.16429
-0.790116
-0.757815
-0.671588
-0.589314
-0.493063
-0.392051
-0.286797
-0.173378
-0.04818
0.104492
0.299162
0.518262
0.705573
0.840132
0.936191
1.00561
1.05621
1.09365
1.11952
1.12849
-0.776019
-0.745642
-0.663636
-0.579161
-0.480674
-0.379287
-0.272139
-0.155213
-0.0261427
0.127701
0.313451
0.501002
0.658067
0.775287
0.863786
0.930203
0.980588
1.01883
1.0473
1.05668
-0.748946
-0.722091
-0.643395
-0.557519
-0.461671
-0.362466
-0.255254
-0.138709
-0.0101712
0.137861
0.3054
0.467212
0.600012
0.70202
0.781311
0.842974
0.8914
0.928711
0.957526
0.967207
-0.701268
-0.680459
-0.606074
-0.524158
-0.433696
-0.337565
-0.234525
-0.122306
0.000216924
0.134855
0.288126
0.426065
0.536598
0.623475
0.692253
0.747148
0.791647
0.827011
0.854952
0.865429
-0.631022
-0.615087
-0.547808
-0.473475
-0.391183
-0.30305
-0.208418
-0.105895
0.00573566
0.13006
0.262644
0.377324
0.467751
0.538922
0.595372
0.64066
0.677739
0.707683
0.73187
0.742204
-0.518869
-0.50744
-0.456499
-0.39779
-0.329908
-0.255423
-0.174281
-0.0855314
0.0126715
0.12215
0.235297
0.332203
0.407296
0.46535
0.510309
0.545211
0.572423
0.593349
0.609618
0.616852
-0.362381
-0.356046
-0.330311
-0.297022
-0.249272
-0.194665
-0.13235
-0.0604105
0.0220848
0.115448
0.211664
0.293823
0.356704
0.404393
0.440097
0.466562
0.485807
0.498682
0.507789
0.51073
-0.219028
-0.216367
-0.207535
-0.191507
-0.163574
-0.129729
-0.0866319
-0.0316082
0.0337619
0.110169
0.189764
0.257388
0.308292
0.345978
0.372906
0.391595
0.404144
0.41136
0.416452
0.417899
-0.112616
-0.111199
-0.106818
-0.0997396
-0.0867374
-0.0684327
-0.0407018
-0.00199855
0.0468247
0.10722
0.171283
0.225647
0.265852
0.294752
0.314452
0.327354
0.33566
0.340506
0.343236
0.344325
-0.0382896
-0.0386946
-0.0377109
-0.0347625
-0.0279997
-0.0173902
-5.72237e-05
0.0255297
0.0607137
0.106983
0.157209
0.199998
0.231143
0.252911
0.267375
0.276686
0.282648
0.286112
0.288206
0.288928
0.00617003
0.00499696
0.00426564
0.00528651
0.00917921
0.0166587
0.0287315
0.0468279
0.072638
0.107541
0.146288
0.179499
0.203508
0.22017
0.231305
0.238514
0.242769
0.244889
0.245691
0.245692
0.0307929
0.0298452
0.0285008
0.0282664
0.0304244
0.0358588
0.044523
0.0592916
0.0794228
0.106324
0.136425
0.162305
0.181092
0.194192
0.202885
0.208472
0.211275
0.212428
0.212598
0.212367
0.0447085
0.0439644
0.0432447
0.043077
0.0441424
0.0476723
0.0537446
0.0658827
0.0816428
0.102972
0.126836
0.147304
0.162155
0.172426
0.179017
0.183184
0.185123
0.185916
0.186069
0.185891
0.054244
0.0537415
0.0536141
0.0537083
0.0544769
0.0569485
0.0610559
0.0702976
0.0821195
0.0989095
0.117849
0.134038
0.145652
0.153525
0.158442
0.161564
0.163065
0.16375
0.163957
0.163845
0.0609597
0.0606357
0.0606536
0.0607833
0.0614779
0.06346
0.0664898
0.0734332
0.0820695
0.0949242
0.109648
0.122244
0.131188
0.137196
0.140934
0.14336
0.144553
0.14511
0.145295
0.145215
0.0646498
0.0644246
0.0644082
0.0644707
0.065011
0.0665731
0.0689299
0.0744717
0.0809016
0.0906881
0.101984
0.111679
0.118559
0.123202
0.1261
0.128008
0.12892
0.129329
0.129456
0.12939
0.0657314
0.0655729
0.0655373
0.0655759
0.0659768
0.0671495
0.0689429
0.0733451
0.0782893
0.085883
0.0946085
0.102105
0.107437
0.111045
0.113282
0.114775
0.115454
0.115747
0.11583
0.115774
0.0650389
0.0649356
0.0649161
0.0649796
0.0653196
0.0662424
0.0677368
0.0706757
0.0746506
0.0806304
0.0874444
0.0932835
0.0974282
0.100225
0.101955
0.103051
0.103572
0.103794
0.103855
0.103812
0.0631274
0.0630616
0.063057
0.0631359
0.0634271
0.0641422
0.0653085
0.0674394
0.0705081
0.0751624
0.0804777
0.0850209
0.0882335
0.0903949
0.091732
0.092531
0.0929347
0.0931057
0.0931511
0.0931173
0.0602732
0.060228
0.0602269
0.0603002
0.0605387
0.0610901
0.0620044
0.0636084
0.0659745
0.0695641
0.0736859
0.0772029
0.0796844
0.0813518
0.082385
0.0829877
0.0832939
0.0834207
0.0834521
0.0834243
0.056647
0.0566134
0.0566114
0.0566705
0.0568575
0.0572779
0.0579927
0.0592141
0.0610574
0.063819
0.067006
0.0697219
0.0716372
0.0729229
0.0737284
0.0741847
0.0744148
0.0745067
0.0745271
0.0745045
0.0524316
0.0524053
0.0524036
0.0524508
0.0525973
0.0529186
0.053473
0.0544053
0.0558444
0.0579683
0.0604329
0.0625295
0.0640068
0.0649962
0.0656195
0.0659636
0.066136
0.0662031
0.066216
0.0661972
0.0477707
0.0477505
0.0477483
0.0477838
0.0478963
0.0481408
0.0485697
0.0492856
0.0503831
0.0520211
0.0539251
0.0555383
0.0566757
0.0574451
0.057908
0.058172
0.058303
0.0583535
0.0583629
0.058347
0.0427541
0.042738
0.042737
0.0427654
0.0428525
0.0430386
0.043367
0.0439084
0.0447621
0.0460107
0.0474707
0.048707
0.0495782
0.0501801
0.0505294
0.0507274
0.0508245
0.0508587
0.0508631
0.050851
0.0374886
0.0374757
0.0374737
0.0374938
0.0375594
0.0377008
0.0379524
0.0383659
0.0390188
0.0399728
0.0410794
0.0420133
0.0426625
0.0431563
0.0434074
0.0435516
0.043622
0.0436463
0.0436484
0.0436377
0.0320134
0.0320035
0.0320007
0.032013
0.0320592
0.0321616
0.0323474
0.0326569
0.0331404
0.0338469
0.034691
0.035397
0.0358964
0.0362591
0.0364536
0.0365627
0.0366141
0.0366304
0.0366305
0.0366219
0.0263786
0.02637
0.0263674
0.0263765
0.0264106
0.0264854
0.0266194
0.0268403
0.0272174
0.0277244
0.0283564
0.0288884
0.0292516
0.0295114
0.0296516
0.0297283
0.0297628
0.0297721
0.0297704
0.0297637
0.0206414
0.0206353
0.0206314
0.0206355
0.0206575
0.0207093
0.020805
0.0209815
0.0212387
0.0216114
0.0220533
0.0224267
0.0226791
0.0228503
0.0229635
0.0230151
0.0230379
0.0230423
0.0230397
0.0230336
0.0148145
0.0148098
0.0148059
0.0148064
0.0148181
0.0148481
0.0149214
0.0150303
0.015199
0.0154444
0.0157394
0.015983
0.0161516
0.0162689
0.016339
0.0163745
0.0163871
0.0163876
0.0163851
0.0163808
0.00892421
0.00891705
0.00891159
0.00891011
0.00891524
0.00893454
0.00897118
0.00903382
0.00913166
0.00927153
0.00943295
0.00956927
0.00966788
0.00973339
0.0097707
0.00978892
0.00979407
0.00979381
0.00979008
0.00978532
0.00299099
0.00298879
0.00298248
0.00297368
0.00297038
0.00297459
0.00298638
0.00300808
0.00304195
0.00308929
0.00314393
0.00319333
0.00322652
0.00324636
0.00325664
0.00326062
0.00325924
0.00325293
0.00324623
0.0032446
-1.72236
-0.701682
-0.430902
-0.106388
0.115882
0.309879
0.474997
0.643613
0.822531
0.903583
-0.603834
-0.116401
-0.0684787
0.149729
0.307455
0.44883
0.573017
0.682195
0.72438
0.674984
-0.138254
0.118877
0.187388
0.337802
0.449429
0.54903
0.63158
0.69269
0.70301
0.710923
0.147706
0.32221
0.368808
0.487738
0.558848
0.628585
0.682545
0.719834
0.732356
0.754192
0.363365
0.485518
0.513479
0.600309
0.647974
0.69719
0.735161
0.762335
0.774737
0.805386
0.525435
0.606424
0.636139
0.690741
0.730791
0.765179
0.793236
0.816016
0.832475
0.859347
0.655639
0.711775
0.740743
0.774385
0.806711
0.833691
0.855342
0.875036
0.889636
0.915268
0.767849
0.809581
0.832859
0.856757
0.879908
0.900434
0.918195
0.935604
0.950011
0.973688
0.868301
0.899127
0.917039
0.933197
0.95007
0.96629
0.982088
1.00005
1.01427
1.03694
0.958675
0.980276
0.995869
1.00878
1.02279
1.03772
1.05247
1.0687
1.08104
1.10056
1.04752
1.06367
1.07742
1.08947
1.10199
1.11404
1.1256
1.13773
1.14568
1.16269
1.13477
1.14714
1.16118
1.17313
1.18387
1.19375
1.20239
1.20984
1.21386
1.22546
1.22311
1.23408
1.24814
1.25798
1.26568
1.27287
1.27991
1.28638
1.28744
1.2952
1.3213
1.32619
1.33485
1.34035
1.34386
1.34832
1.35415
1.36165
1.36506
1.37425
1.4352
1.42173
1.41459
1.40881
1.40601
1.4074
1.41392
1.42646
1.44117
1.47025
1.55678
1.50111
1.46972
1.4519
1.44375
1.44386
1.45272
1.47226
1.50411
1.57398
)
;

boundaryField
{
    wall-4
    {
        type            zeroGradient;
    }
    pressure-outlet-7
    {
        type            fixedValue;
        value           uniform 0;
    }
    velocity-inlet-6
    {
        type            zeroGradient;
    }
    velocity-inlet-5
    {
        type            zeroGradient;
    }
    frontAndBackPlanes
    {
        type            empty;
    }
}


// ************************************************************************* //
