/*--------------------------------*- C++ -*----------------------------------*\
  =========                 |
  \\      /  F ield         | OpenFOAM: The Open Source CFD Toolbox
   \\    /   O peration     | Website:  https://openfoam.org
    \\  /    A nd           | Version:  9
     \\/     M anipulation  |
\*---------------------------------------------------------------------------*/
FoamFile
{
    format      ascii;
    class       surfaceScalarField;
    location    "8";
    object      phi;
}
// * * * * * * * * * * * * * * * * * * * * * * * * * * * * * * * * * * * * * //

dimensions      [0 3 -1 0 0 0 0];

internalField   nonuniform List<scalar> 
4262
(
0.107844
0.470144
0.0959319
0.705498
0.0683298
0.859905
0.045582
1.02151
0.0295538
1.21454
0.0185388
1.44923
0.0111742
1.73323
0.00618155
2.07603
0.00272432
2.4887
-4.06668e-05
2.98506
-0.00282236
2.98507
-0.00630464
2.48873
-0.0113172
2.07605
-0.0186831
1.73323
-0.029678
1.44921
-0.0456816
1.21452
-0.0684082
1.02149
-0.095975
0.85987
-0.10787
0.705481
0.470118
0.112528
0.357616
0.134649
0.683377
0.119223
0.875331
0.094568
1.04617
0.0695561
1.23956
0.0478668
1.47092
0.0307311
1.75036
0.0178314
2.08893
0.00816759
2.49836
-0.000618692
2.99384
-0.00941357
2.99387
-0.0189557
2.49827
-0.0317337
2.08883
-0.0486918
1.75019
-0.070244
1.47077
-0.0951109
1.23939
-0.11963
1.04601
-0.134953
0.875193
-0.112677
0.683205
0.357441
0.081348
0.276268
0.111309
0.653416
0.109102
0.877538
0.0963245
1.05894
0.0802621
1.25562
0.0632149
1.48797
0.0460784
1.7675
0.0298401
2.10517
0.0147226
2.51348
-0.00105822
3.00962
-0.0166847
3.0095
-0.0314022
2.51299
-0.047308
2.10473
-0.0642197
1.7671
-0.0810405
1.48759
-0.096971
1.25532
-0.109648
1.05869
-0.111717
0.877262
-0.0815282
0.653017
0.275913
0.046118
0.23015
0.0742951
0.625239
0.0774071
0.874426
0.0721162
1.06423
0.0641424
1.26359
0.0548573
1.49726
0.0432312
1.77913
0.0297511
2.11865
0.0146908
2.52854
-0.00138895
3.0257
-0.0173157
3.02542
-0.0320341
2.5277
-0.0454135
2.11811
-0.0568456
1.77853
-0.0658224
1.49656
-0.0734072
1.2629
-0.0782868
1.06357
-0.0747967
0.873772
-0.0463178
0.624538
0.229595
0.0207776
0.209372
0.0412421
0.604775
0.0478147
0.867853
0.0479793
1.06407
0.0453805
1.26619
0.0404562
1.50218
0.0334325
1.78615
0.0242047
2.12787
0.0122861
2.54046
-0.00185291
3.03984
-0.0159691
3.03954
-0.027655
2.53939
-0.0361725
2.12663
-0.0424525
1.78481
-0.046774
1.50089
-0.0490079
1.26514
-0.0485851
1.06314
-0.0418599
0.867047
-0.0210913
0.603769
0.208504
0.00459883
0.204774
0.0160585
0.593315
0.024825
0.859087
0.0310613
1.05783
0.0340209
1.26323
0.0331226
1.50308
0.0288302
1.79044
0.0210846
2.13562
0.0103035
2.55124
-0.00273924
3.05289
-0.0153964
3.0522
-0.0254818
2.54947
-0.0322691
2.13342
-0.0358343
1.78838
-0.0362388
1.50129
-0.0328063
1.2617
-0.0261178
1.05645
-0.0168989
0.857828
-0.00497065
0.591841
0.203533
-0.00145646
0.20623
0.00262211
0.589236
0.00981149
0.851897
0.0174954
1.05015
0.0227182
1.25801
0.0240059
1.50179
0.0216175
1.79283
0.0159572
2.14128
0.00746501
2.55973
-0.0035816
3.06393
-0.0143117
3.06293
-0.0221904
2.55735
-0.0271676
2.13839
-0.0288078
1.79002
-0.0265414
1.49902
-0.0203415
1.2555
-0.0117962
1.04791
-0.00364962
0.849681
0.00105928
0.587132
0.204593
-0.00117531
0.207405
-0.000128862
0.58819
0.00429457
0.847474
0.00968487
1.04476
0.0138566
1.25384
0.0157438
1.4999
0.0149726
1.7936
0.0112733
2.14498
0.004693
2.56631
-0.0043013
3.07293
-0.0132367
3.07186
-0.0193723
2.56349
-0.0220311
2.14105
-0.0214977
1.78948
-0.0183541
1.49588
-0.0130056
1.25016
-0.0065168
1.04142
-0.00109347
0.844258
0.000783858
0.585255
0.205376
-0.000182082
0.207588
0.000251073
0.587757
0.00289037
0.844835
0.00608495
1.04157
0.00859212
1.25133
0.00968466
1.49881
0.00895821
1.79433
0.0061505
2.14779
0.00125347
2.57121
-0.00550352
3.07968
-0.0117127
3.07807
-0.0153941
2.56717
-0.0165476
2.14221
-0.0156557
1.78859
-0.0131836
1.49341
-0.00947762
1.24645
-0.00527955
1.03722
-0.00181112
0.840789
-0.00033739
0.583781
0.205039
-0.000225923
0.207813
-0.000183658
0.587714
0.00108204
0.843569
0.00282637
1.03982
0.00428686
1.24987
0.00492468
1.49817
0.00428736
1.79497
0.00203868
2.15004
-0.0018512
2.5751
-0.00708804
3.08492
-0.0114602
3.08244
-0.0132706
2.56898
-0.0137152
2.14265
-0.0125239
1.7874
-0.0101955
1.49108
-0.00724043
1.24349
-0.00416587
1.03415
-0.00165307
0.838277
-0.000477221
0.582605
0.204562
-0.000624769
0.208438
-0.00102355
0.588113
-0.00080435
0.84335
-0.000174951
1.03919
0.000443625
1.24925
0.000571135
1.49805
-0.000170152
1.79571
-0.00201857
2.15188
-0.00501587
2.5781
-0.00887101
3.08878
-0.0118044
3.08538
-0.0125976
2.56977
-0.0121021
2.14216
-0.01054
1.78584
-0.00825688
1.4888
-0.00569786
1.24093
-0.00325854
1.03171
-0.00131797
0.836336
-0.000314477
0.581602
0.204247
-0.000730316
0.209169
-0.00141963
0.588803
-0.0017121
0.843642
-0.00192258
1.0394
-0.0022546
1.24958
-0.00294057
1.49873
-0.00411387
1.79688
-0.00591011
2.15368
-0.00832492
2.58051
-0.0109472
3.0914
-0.0125599
3.08699
-0.0127395
2.56995
-0.0115118
2.14093
-0.00962526
1.78395
-0.00742436
1.4866
-0.00519134
1.2387
-0.0031736
1.02969
-0.00153159
0.834694
-0.000455257
0.580525
0.203792
-0.000774394
0.209943
-0.0017931
0.589821
-0.00251622
0.844365
-0.00334036
1.04023
-0.00445469
1.2507
-0.00584975
1.50013
-0.00756676
1.7986
-0.00960425
2.15572
-0.0118339
2.58274
-0.0137323
3.0933
-0.0143264
3.08758
-0.0136925
2.56932
-0.0120043
2.13924
-0.00985898
1.78181
-0.00762571
1.48436
-0.00549537
1.23657
-0.00360251
1.0278
-0.00198629
0.833078
-0.000709022
0.579248
0.203083
-0.000975179
0.210918
-0.00238207
0.591228
-0.00370723
0.84569
-0.00514881
1.04167
-0.00683881
1.25239
-0.00881646
1.5021
-0.0110687
1.80085
-0.0134881
2.15814
-0.0157987
2.58505
-0.0173429
3.09484
-0.0171169
3.08736
-0.0156887
2.56789
-0.0135219
2.13707
-0.0110185
1.7793
-0.0085382
1.48188
-0.00624491
1.23428
-0.00421313
1.02577
-0.00242204
0.831287
-0.000895679
0.577722
0.202187
-0.00129121
0.212209
-0.003168
0.593105
-0.00506673
0.847589
-0.00712597
1.04373
-0.0094704
1.25473
-0.0121204
1.50475
-0.0150183
1.80375
-0.0179718
2.16109
-0.0205631
2.58765
-0.0219892
3.09627
-0.0212696
3.08664
-0.0190431
2.56567
-0.016131
2.13416
-0.0130495
1.77622
-0.0101011
1.47893
-0.00742753
1.2316
-0.00506609
1.0234
-0.00295307
0.829174
-0.0010998
0.575868
0.201088
-0.00166884
0.213878
-0.00410798
0.595544
-0.00659503
0.850076
-0.00932013
1.04645
-0.0124315
1.25784
-0.0159173
1.50824
-0.0196615
1.80749
-0.0233627
2.16479
-0.0264375
2.59072
-0.0278683
3.0977
-0.0266118
3.08538
-0.0235622
2.56262
-0.0197973
2.1304
-0.0159432
1.77237
-0.0123252
1.47532
-0.0090863
1.22837
-0.00623923
1.02056
-0.00367139
0.826606
-0.00137705
0.573574
0.19971
-0.00214992
0.216028
-0.00530661
0.598701
-0.00858451
0.853354
-0.0121753
1.05004
-0.0162304
1.2619
-0.0207218
1.51273
-0.0254789
1.81225
-0.0301017
2.16942
-0.033809
2.59443
-0.0352978
3.09919
-0.0334244
3.08351
-0.0294381
2.55863
-0.0246577
2.12562
-0.0198396
1.76755
-0.0153541
1.47083
-0.01135
1.22436
-0.00782002
1.01703
-0.00461648
0.823402
-0.00173636
0.570694
0.197974
-0.00276076
0.218789
-0.00677032
0.60271
-0.0108867
0.85747
-0.015459
1.05462
-0.02071
1.26715
-0.0265401
1.51856
-0.0326894
1.8184
-0.0385727
2.1753
-0.0431544
2.59901
-0.0447793
3.10081
-0.0421466
3.08087
-0.0369611
2.55344
-0.0308555
2.11951
-0.0247487
1.76144
-0.0190965
1.46518
-0.0140846
1.21935
-0.00970134
1.01264
-0.00573656
0.819437
-0.00215946
0.567117
0.195815
-0.00369111
0.22248
-0.00904421
0.608063
-0.0145628
0.862989
-0.020565
1.06062
-0.0272429
1.27383
-0.0345734
1.52589
-0.0422286
1.82605
-0.0494809
2.18255
-0.0549846
2.60451
-0.056657
3.10248
-0.053049
3.07727
-0.0464097
2.5468
-0.0387297
2.11183
-0.031115
1.75383
-0.0240983
1.45816
-0.0178648
1.21312
-0.0123577
1.00714
-0.00731356
0.814393
-0.0027386
0.562542
0.193076
-0.00466959
0.22715
-0.0112245
0.614618
-0.0180357
0.8698
-0.0256769
1.06826
-0.0344915
1.28264
-0.044189
1.53559
-0.054207
1.83607
-0.0634672
2.19181
-0.0702308
2.61128
-0.0719412
3.10419
-0.0670292
3.07235
-0.0584533
2.53823
-0.0486322
2.10201
-0.0388908
1.74409
-0.029899
1.44917
-0.0219432
1.20516
-0.0150178
1.00021
-0.00882541
0.808201
-0.00331841
0.557035
0.189758
-0.00670057
0.23385
-0.0161447
0.624062
-0.0253924
0.879048
-0.035326
1.07819
-0.0462598
1.29358
-0.0581486
1.54748
-0.0703334
1.84826
-0.0814309
2.20291
-0.0892199
2.61907
-0.0906047
3.10558
-0.0839817
3.06573
-0.0731077
2.52735
-0.0608828
2.08978
-0.0488995
1.7321
-0.0379396
1.43821
-0.0282563
1.19548
-0.0196985
0.991653
-0.0117262
0.800229
-0.00434783
0.549657
0.18541
-0.00824479
0.242095
-0.0193527
0.63517
-0.0313231
0.891018
-0.0446367
1.09151
-0.059634
1.30857
-0.0756093
1.56345
-0.0913656
1.86401
-0.105042
2.21659
-0.114002
2.62802
-0.114698
3.10627
-0.105726
3.05676
-0.0918687
2.5135
-0.0764313
2.07435
-0.0611643
1.71684
-0.0469733
1.42402
-0.0342968
1.1828
-0.0232028
0.980559
-0.0134465
0.790472
-0.00503744
0.541247
0.180372
-0.0132214
0.255316
-0.0302289
0.652178
-0.0456878
0.906477
-0.0624269
1.10824
-0.0807506
1.3269
-0.100165
1.58287
-0.118962
1.88281
-0.134753
2.23238
-0.144243
2.63752
-0.143531
3.10556
-0.131554
3.04478
-0.114185
2.49613
-0.0952301
2.05539
-0.0767516
1.69836
-0.0597936
1.40706
-0.0447778
1.16779
-0.0314785
0.96726
-0.0188627
0.777857
-0.00698937
0.529374
0.173383
-0.0167962
0.272113
-0.0380949
0.673477
-0.0604345
0.928817
-0.0844598
1.13227
-0.109676
1.35211
-0.134301
1.60749
-0.156675
1.90518
-0.173976
2.24968
-0.182952
2.64649
-0.179601
3.10221
-0.163567
3.02875
-0.14199
2.47455
-0.118854
2.03226
-0.0961382
1.67564
-0.0748221
1.38574
-0.0552507
1.14821
-0.0376236
0.949633
-0.0217877
0.762021
-0.0078155
0.515402
0.165567
-0.0321963
0.304309
-0.0644673
0.705748
-0.0925127
0.956862
-0.122132
1.16189
-0.151787
1.38177
-0.180553
1.63626
-0.20526
1.92989
-0.222757
2.26717
-0.229812
2.65355
-0.22248
3.09488
-0.20147
3.00774
-0.175078
2.44816
-0.147361
2.00454
-0.120363
1.64864
-0.0952712
1.36065
-0.0726985
1.12564
-0.051978
0.928912
-0.0320746
0.742117
-0.011257
0.494584
0.15431
-0.0432959
0.347605
-0.0965443
0.758996
-0.138756
0.999074
-0.17833
1.20146
-0.213982
1.41742
-0.245161
1.66744
-0.269318
1.95405
-0.284226
2.28208
-0.286816
2.65614
-0.273366
3.08143
-0.246035
2.98041
-0.214352
2.41648
-0.182142
1.97233
-0.151084
1.61759
-0.121727
1.33129
-0.0942019
1.09812
-0.0682477
0.902958
-0.0406429
0.714512
-0.0135417
0.467483
0.140769
-0.026721
0.374326
-0.069802
0.802077
-0.113688
1.04296
-0.15665
1.24443
-0.198911
1.45968
-0.238044
1.70657
-0.272926
1.98893
-0.301583
2.31074
-0.319772
2.67433
-0.321079
3.08274
-0.301864
2.96119
-0.269862
2.38448
-0.230793
1.93326
-0.188413
1.57521
-0.145301
1.28818
-0.103039
1.05585
-0.0632082
0.863128
-0.0297482
0.681052
-0.00725625
0.444991
0.133513
0.00225538
0.37207
-0.0215083
0.825841
-0.0557627
1.07721
-0.0926606
1.28132
-0.129307
1.49633
-0.164156
1.74142
-0.195944
2.02072
-0.221376
2.33617
-0.236555
2.6895
-0.235634
3.08181
-0.216019
2.94158
-0.185831
2.35429
-0.15078
1.89821
-0.114543
1.53897
-0.079531
1.25317
-0.0474672
1.02379
-0.0185576
0.834218
0.00150984
0.660985
0.00607543
0.440426
0.139588
0.00298191
0.369089
-0.00971295
0.838535
-0.0325643
1.10007
-0.0593111
1.30807
-0.0885102
1.52553
-0.11777
1.77068
-0.145045
2.04799
-0.167017
2.35814
-0.180108
2.70259
-0.178984
3.08069
-0.161816
2.92441
-0.136555
2.32903
-0.108696
1.87035
-0.0813044
1.51158
-0.0558552
1.22772
-0.0330212
1.00096
-0.0144968
0.815694
2.58517e-05
0.646462
0.00382343
0.436628
0.143411
0.00621419
0.362874
-0.00402876
0.848778
-0.0229124
1.11895
-0.0439654
1.32912
-0.0661763
1.54774
-0.0897878
1.79429
-0.112411
2.07062
-0.131153
2.37688
-0.142602
2.71404
-0.141975
3.08006
-0.127785
2.91022
-0.107194
2.30844
-0.0850585
1.84821
-0.0638614
1.49038
-0.0447079
1.20857
-0.0279808
0.984229
-0.0142819
0.801995
-0.00452201
0.636702
0.000235671
0.43187
0.143647
0.0071268
0.355748
0.000383901
0.855521
-0.0167005
1.13603
-0.034973
1.3474
-0.0536624
1.56643
-0.0732706
1.8139
-0.0919861
2.08933
-0.107963
2.39286
-0.118061
2.72414
-0.118048
3.08005
-0.106357
2.89853
-0.0891449
2.29122
-0.0706982
1.82977
-0.0531903
1.47287
-0.0376063
1.19298
-0.0242947
0.970918
-0.0134199
0.79112
-0.00527482
0.628557
-0.000773794
0.427369
0.142873
0.00521815
0.350529
0.000853214
0.859886
-0.0132271
1.15011
-0.029157
1.36333
-0.0458851
1.58316
-0.0629569
1.83097
-0.0790372
2.10541
-0.0931071
2.40693
-0.102406
2.73344
-0.103171
3.08082
-0.0934902
2.88885
-0.0786391
2.27637
-0.0625786
1.81371
-0.0473483
1.45764
-0.0338423
1.17948
-0.0223332
0.959409
-0.0128652
0.781652
-0.00573296
0.621425
-0.00113715
0.422773
0.141736
0.00247862
0.348051
-0.00134985
0.863715
-0.0126457
1.16141
-0.0258358
1.37652
-0.040743
1.59806
-0.05602
1.84625
-0.0706632
2.12005
-0.0837381
2.42001
-0.0928389
2.74254
-0.0945852
3.08256
-0.0866658
2.88093
-0.0736062
2.26331
-0.0591414
1.79924
-0.045228
1.44373
-0.0327978
1.16705
-0.0221158
0.948727
-0.0131541
0.772691
-0.0061683
0.614439
-0.00157777
0.418183
0.140158
-0.000312399
0.348363
-0.00463659
0.868039
-0.0135746
1.17035
-0.0245353
1.38748
-0.037603
1.61113
-0.0513189
1.85996
-0.0650474
2.13378
-0.077643
2.4326
-0.087065
2.75196
-0.0902014
3.0857
-0.0840757
2.8748
-0.0723209
2.25156
-0.0587238
1.78565
-0.0454151
1.43042
-0.0333064
1.15494
-0.0227666
0.938187
-0.0139007
0.763825
-0.00685066
0.607389
-0.00201314
0.413345
0.138145
-0.00180905
0.350172
-0.0065558
0.872786
-0.0144633
1.17826
-0.0241822
1.39719
-0.0357937
1.62274
-0.0482271
1.8724
-0.0612451
2.1468
-0.0737041
2.44506
-0.0838779
2.76214
-0.08875
3.09057
-0.0846289
2.87068
-0.0742681
2.2412
-0.0613062
1.77268
-0.0479827
1.4171
-0.0356696
1.14263
-0.0248748
0.927392
-0.0155605
0.75451
-0.00792689
0.599756
-0.00251496
0.407933
0.13563
-0.00273805
0.35291
-0.00767014
0.877718
-0.0149181
1.1855
-0.023988
1.40626
-0.0346098
1.63336
-0.0461678
1.88396
-0.0586573
2.15929
-0.071122
2.45753
-0.0821434
2.77316
-0.0889281
3.09736
-0.0869554
2.86871
-0.0775894
2.23183
-0.0648351
1.75993
-0.0514225
1.40368
-0.0387005
1.1299
-0.0272971
0.915989
-0.017482
0.744695
-0.00926311
0.591537
-0.00310509
0.401775
0.132525
-0.0032551
0.356165
-0.00827718
0.88274
-0.0150884
1.19231
-0.0236859
1.41486
-0.0336033
1.64328
-0.0445876
1.89494
-0.0566846
2.17139
-0.0692613
2.4701
-0.0813567
2.78525
-0.0906459
3.10664
-0.0919584
2.87002
-0.084864
2.22474
-0.0723514
1.74742
-0.0578726
1.3892
-0.0437763
1.11581
-0.0311181
0.90333
-0.020204
0.733781
-0.0110648
0.582398
-0.00394776
0.394658
0.128577
-0.00345004
0.359615
-0.00851096
0.887801
-0.0150668
1.19887
-0.0232275
1.42302
-0.0325906
1.65264
-0.0431322
1.90548
-0.0549433
2.1832
-0.0677102
2.48287
-0.0808354
2.79838
-0.0922133
3.11802
-0.0956634
2.87347
-0.0895166
2.21859
-0.078051
1.73595
-0.0635922
1.37475
-0.0488981
1.10111
-0.0352799
0.889712
-0.0230194
0.721521
-0.0124268
0.571805
-0.00445327
0.386685
0.124124
-0.00349965
0.363115
-0.00854486
0.892846
-0.0149038
1.20523
-0.0226329
1.43075
-0.0315108
1.66152
-0.0416308
1.9156
-0.053175
2.19474
-0.0661174
2.49581
-0.0803141
2.81258
-0.0945862
3.13229
-0.103141
2.88203
-0.101072
2.21652
-0.0891476
1.72403
-0.0734937
1.35909
-0.0567455
1.08437
-0.041018
0.873985
-0.0280416
0.708544
-0.0165346
0.560298
-0.00605454
0.376205
0.11807
-0.00348586
0.366601
-0.00847833
0.897838
-0.0146383
1.21139
-0.0219579
1.43807
-0.0303764
1.66994
-0.0400607
1.92529
-0.0513257
2.20601
-0.0643895
2.50888
-0.0795517
2.82774
-0.0962416
3.14898
-0.107405
2.89319
-0.107265
2.21638
-0.0988042
1.71557
-0.0823523
1.34264
-0.0636275
1.06564
-0.0466217
0.856979
-0.0303904
0.692313
-0.0165626
0.54647
-0.00635189
0.365994
0.111718
-0.00345241
0.370053
-0.00840716
0.902793
-0.0142989
1.21728
-0.0212105
1.44498
-0.029166
1.6779
-0.0383894
1.93451
-0.0492812
2.2169
-0.0622598
2.52185
-0.078071
2.84355
-0.0969675
3.16788
-0.113075
2.9093
-0.117556
2.22086
-0.109736
1.70775
-0.0950124
1.32792
-0.0753505
1.04598
-0.0532631
0.834891
-0.0360763
0.675126
-0.0216246
0.532019
-0.0082544
0.352624
0.103463
-0.0034232
0.373477
-0.00830368
0.907674
-0.013902
1.22288
-0.0204262
1.45151
-0.0279021
1.68537
-0.0366314
1.94324
-0.0470793
2.22735
-0.0598695
2.53464
-0.07633
2.86001
-0.0979252
3.18948
-0.11873
2.9301
-0.128316
2.23045
-0.124318
1.70375
-0.107256
1.31085
-0.0833704
1.02209
-0.0601824
0.811704
-0.039622
0.654566
-0.0216961
0.514093
-0.00746207
0.33839
0.0960012
-0.00339845
0.376875
-0.00818519
0.91246
-0.0134506
1.22814
-0.0195828
1.45764
-0.0265784
1.69237
-0.0348001
1.95146
-0.0447316
2.23728
-0.0571713
2.54708
-0.0738907
2.87673
-0.0973623
3.21295
-0.122413
2.95515
-0.136988
2.24502
-0.136675
1.70344
-0.12293
1.29711
-0.103121
1.00228
-0.0774991
0.786081
-0.0495377
0.626604
-0.0265895
0.491144
-0.00756831
0.319369
0.0884329
-0.00337607
0.380251
-0.00802076
0.917105
-0.0129744
1.2331
-0.0187331
1.4634
-0.0252429
1.69888
-0.03293
1.95915
-0.0422677
2.24662
-0.0541743
2.55899
-0.0708126
2.89337
-0.0954969
3.23763
-0.125221
2.98488
-0.14683
2.26663
-0.152555
1.70916
-0.144719
1.28927
-0.12136
0.978925
-0.0833233
0.748045
-0.0430002
0.586281
-0.0127419
0.460886
0.00537189
0.301255
0.0938048
-0.0033044
0.383555
-0.00782668
0.921627
-0.0124686
1.23774
-0.0178535
1.46878
-0.0238924
1.70492
-0.031036
1.96629
-0.0397161
2.2553
-0.050989
2.57026
-0.0672835
2.90966
-0.0934495
3.2638
-0.127202
3.01863
-0.153915
2.29334
-0.16499
1.72024
-0.157033
1.28132
-0.132382
0.954274
-0.102672
0.718334
-0.0608638
0.544473
-0.0110361
0.411058
0.00473618
0.285483
0.098541
-0.00324919
0.386805
-0.00761174
0.92599
-0.0119786
1.24211
-0.0170055
1.47381
-0.0225872
1.7105
-0.0291959
1.9729
-0.0372027
2.2633
-0.0477214
2.58078
-0.0635402
2.92548
-0.0905454
3.2908
-0.128023
3.05611
-0.163598
2.32892
-0.183963
1.7406
-0.180113
1.27747
-0.164387
0.938548
-0.127173
0.681121
-0.0479226
0.465223
0.0636291
0.299507
0.128246
0.220866
0.226787
-0.00326563
0.39007
-0.00755125
0.930276
-0.0118031
1.24636
-0.0167104
1.47872
-0.0221848
1.71597
-0.0286934
1.97941
-0.036576
2.27119
-0.047076
2.59128
-0.0633752
2.94178
-0.0931046
3.32053
-0.139016
3.10202
-0.185655
2.37556
-0.210155
1.7651
-0.217431
1.28474
-0.207668
0.928786
-0.19501
0.668462
-0.218918
0.489132
-0.391028
0.471617
-0.883221
0.713059
0.87287
-1.5293
-0.00325774
0.393328
-0.00742246
0.93444
-0.0115
1.25044
-0.016195
1.48341
-0.021425
1.7212
-0.0276289
1.98561
-0.0350837
2.27864
-0.0450581
2.60126
-0.0610223
2.95774
-0.091934
3.35144
-0.144407
3.15449
-0.201976
2.43313
-0.248317
1.81144
-0.280349
1.31677
-0.30318
0.951617
-0.371775
0.737058
-0.674104
0.791461
-1.33936
1.13687
-1.95431
1.32802
1.22613
-2.30757
-0.00320317
0.396531
-0.00722696
0.938464
-0.0111331
1.25434
-0.0156258
1.48791
-0.0206385
1.72621
-0.0265356
1.99151
-0.0335072
2.28561
-0.0427804
2.61053
-0.0581657
2.97313
-0.0902264
3.3835
-0.15003
3.21429
-0.223614
2.50671
-0.28832
1.87615
-0.319714
1.34817
-0.397297
1.0292
-0.718057
1.05782
-1.43949
1.5129
-2.04176
1.73914
-2.29721
1.58346
1.35147
-2.42255
-0.00313726
0.399668
-0.00702169
0.942348
-0.0107439
1.25806
-0.0150483
1.49221
-0.0198294
1.731
-0.0253831
1.99706
-0.0318121
2.29204
-0.0402373
2.61895
-0.054317
2.98721
-0.0862673
3.41546
-0.151447
3.27947
-0.242309
2.59757
-0.326437
1.96028
-0.414915
1.43664
-0.686287
1.30057
-1.34942
1.72095
-1.96643
2.12991
-2.22333
1.99604
-2.34708
1.70721
1.42269
-2.41829
-0.00302988
0.402698
-0.00671283
0.946031
-0.0102812
1.26163
-0.0144166
1.49635
-0.0189911
1.73557
-0.0242186
2.00229
-0.0300797
2.2979
-0.037475
2.62635
-0.0496529
2.99939
-0.0802924
3.44609
-0.151307
3.35049
-0.26858
2.71485
-0.36751
2.05921
-0.531294
1.60043
-1.01177
1.78105
-1.69773
2.4069
-2.0551
2.48728
-2.22057
2.16151
-2.31382
1.80046
1.49435
-2.38548
-0.00306391
0.405762
-0.00679819
0.949766
-0.0104051
1.26524
-0.0145041
1.50044
-0.0189705
1.74004
-0.0239896
2.00731
-0.0292674
2.30318
-0.0354398
2.63252
-0.0456359
3.00958
-0.0739612
3.47442
-0.152124
3.42865
-0.28079
2.84351
-0.414019
2.19244
-0.717799
1.90421
-1.36134
2.42459
-1.88733
2.93289
-2.11356
2.71351
-2.23815
2.2861
-2.32433
1.88664
1.56417
-2.39415
-0.00331929
0.409082
-0.00732407
0.95377
-0.0111442
1.26906
-0.0154058
1.50471
-0.0199517
1.74458
-0.0248528
2.01221
-0.0295636
2.30789
-0.0342543
2.63721
-0.0410916
3.01642
-0.0654159
3.49874
-0.149826
3.51306
-0.303633
2.99732
-0.511833
2.40064
-0.93695
2.32933
-1.54749
3.03513
-1.88129
3.26669
-2.05606
2.88828
-2.18242
2.41246
-2.28279
1.987
1.63891
-2.35753
-0.00367316
0.412755
-0.00806006
0.958157
-0.0121166
1.27312
-0.0165732
1.50916
-0.0212233
1.74923
-0.0259797
2.01697
-0.0299753
2.31189
-0.0325561
2.63979
-0.0351288
3.01899
-0.0533601
3.51698
-0.134752
3.59445
-0.314486
3.17705
-0.592317
2.67847
-1.0909
2.82791
-1.62181
3.56605
-1.86452
3.5094
-2.02892
3.05268
-2.19447
2.57801
-2.34156
2.1341
1.71773
-2.42038
-0.00405714
0.416812
-0.00881742
0.962918
-0.0132149
1.27751
-0.0179612
1.51391
-0.0227941
1.75407
-0.0274325
2.02161
-0.0306003
2.31506
-0.0308101
2.64
-0.0278547
3.01604
-0.0355815
3.5247
-0.10493
3.6638
-0.312721
3.38484
-0.659934
3.02568
-1.18407
3.35204
-1.61856
4.00054
-1.8361
3.72693
-1.9866
3.20318
-2.13165
2.72305
-2.23424
2.2367
1.72389
-2.24041
-0.00452313
0.421335
-0.00984515
0.96824
-0.0146464
1.28232
-0.0197315
1.51899
-0.0247747
1.75911
-0.0293058
2.02614
-0.0316334
2.31738
-0.0287237
2.63709
-0.0183973
3.00571
-0.00538011
3.51169
-0.0528325
3.71125
-0.292582
3.62459
-0.684821
3.41792
-1.18537
3.85259
-1.55196
4.36713
-1.79062
3.9656
-1.94049
3.35305
-1.97448
2.75705
-1.97413
2.23635
1.77981
-2.03005
-0.00494914
0.426284
-0.0108621
0.974153
-0.0161955
1.28765
-0.0217522
1.52455
-0.02708
1.76444
-0.0314546
2.03051
-0.0326711
2.3186
-0.0259926
2.63042
-0.0059696
2.98569
0.0486019
3.45711
0.0223162
3.73754
-0.243092
3.89
-0.665486
3.84031
-1.13367
4.32077
-1.41667
4.65013
-1.55057
4.09949
-1.61215
3.41463
-1.52148
2.66638
-1.07733
1.7922
0.702477
-0.00549968
0.431784
-0.0122386
0.980892
-0.0182813
1.29369
-0.0245262
1.5308
-0.0304891
1.7704
-0.0351565
2.03518
-0.0354789
2.31892
-0.0255253
2.62046
0.0130271
2.94714
0.113592
3.35655
0.110015
3.74112
-0.198882
4.1989
-0.69068
4.33211
-1.15228
4.78237
-1.3651
4.86296
-1.42917
4.16355
-1.38952
3.37498
-1.20851
2.48538
-0.742588
1.32628
-0.0401108
-0.00606726
0.437851
-0.0136168
0.988441
-0.0206095
1.30068
-0.0278951
1.53808
-0.0349073
1.77741
-0.0403154
2.04059
-0.0399281
2.31853
-0.0254829
2.60602
0.037452
2.8842
0.174687
3.21931
0.198167
3.71764
-0.146038
4.5431
-0.68469
4.87076
-1.13292
5.2306
-1.3088
5.03884
-1.3665
4.22125
-1.2494
3.25788
-0.874111
2.11009
-0.164169
0.616337
-0.20428
-0.00679026
0.444641
-0.0155725
0.997223
-0.0237254
1.30884
-0.0322296
1.54659
-0.0406279
1.78581
-0.0473422
2.0473
-0.0471297
2.31832
-0.0266688
2.58556
0.0576467
2.79989
0.213949
3.06301
0.251168
3.68042
-0.095054
4.88932
-0.663128
5.43884
-1.08704
5.65451
-1.24154
5.19335
-1.28245
4.26215
-1.10621
3.08165
-0.47644
1.48031
0.0434886
0.0964082
-0.160791
-0.00748988
0.452131
-0.0175321
1.00727
-0.0272867
1.31859
-0.0377389
1.55704
-0.048343
1.79641
-0.0574845
2.05644
-0.0593063
2.32014
-0.0359953
2.56224
0.0524389
2.71145
0.195269
2.92018
0.224045
3.65164
-0.084855
5.19822
-0.66859
6.02257
-1.05428
6.0402
-1.20518
5.34425
-1.20691
4.26388
-0.968172
2.84291
-0.279222
0.791364
-0.0454742
-0.13734
-0.206265
-0.00823686
0.460368
-0.0201245
1.01915
-0.0319116
1.33038
-0.0446906
1.56982
-0.0583465
1.81007
-0.0712908
2.06939
-0.0780816
2.32693
-0.0619301
2.54609
0.00138172
2.64814
0.0638181
2.85774
0.0563486
3.65911
-0.197534
5.45211
-0.753766
6.5788
-1.0476
6.33403
-1.17068
5.46733
-1.14015
4.23335
-0.779606
2.48237
-0.274834
0.286591
-0.123602
-0.288572
-0.329867
-0.00884846
0.469217
-0.0226867
1.03299
-0.0371737
1.34487
-0.0535267
1.58617
-0.0716707
1.82821
-0.0907242
2.08844
-0.107026
2.34324
-0.111715
2.55078
-0.103511
2.63994
-0.115599
2.86983
-0.183977
3.72749
-0.470003
5.73813
-0.879986
6.98879
-1.02422
6.47826
-1.06001
5.50312
-0.953942
4.12729
-0.571571
2.1
-0.382091
0.0971113
-0.180211
-0.490452
-0.510077
-0.00906654
0.478283
-0.0255211
1.04945
-0.0434286
1.36277
-0.0638962
1.60664
-0.0878847
1.8522
-0.115797
2.11635
-0.14734
2.37478
-0.184968
2.58841
-0.248768
2.70374
-0.363499
2.98456
-0.518908
3.8829
-0.779089
5.99831
-0.934855
7.14455
-0.90805
6.45146
-0.77027
5.36534
-0.498606
3.85563
-0.204177
1.80557
-0.169103
0.0620379
-0.0942736
-0.565282
-0.604351
-0.00922792
0.487511
-0.0283808
1.0686
-0.0503821
1.38477
-0.0764502
1.6327
-0.108028
1.88378
-0.147339
2.15566
-0.198588
2.42603
-0.274583
2.66441
-0.415552
2.8447
-0.644379
3.21339
-0.875493
4.11401
-1.00515
6.12797
-0.918487
7.05789
-0.705826
6.23879
-0.373108
5.03262
0.00475891
3.47776
0.259321
1.55101
0.207064
0.114295
0.0812383
-0.439456
-0.523113
-0.00848362
0.495995
-0.0303006
1.09042
-0.0569292
1.4114
-0.0888791
1.66465
-0.128782
1.92368
-0.181495
2.20838
-0.255531
2.50006
-0.372992
2.78187
-0.583112
3.05482
-0.910679
3.54096
-1.19891
4.40225
-1.19045
6.11951
-0.901025
6.76847
-0.537391
5.87516
-0.0372963
4.53252
0.443997
2.99647
0.617871
1.37713
0.456073
0.276094
0.200059
-0.183442
-0.323053
-0.00646638
0.502461
-0.0316093
1.11556
-0.063693
1.44349
-0.10197
1.70293
-0.150789
1.9725
-0.216922
2.27451
-0.312286
2.59543
-0.464611
2.93419
-0.722875
3.31309
-1.11496
3.93305
-1.43446
4.72174
-1.3186
6.00365
-0.894258
6.34412
-0.389856
5.37076
0.206163
3.93651
0.636496
2.56613
0.718654
1.29497
0.507549
0.487199
0.214802
0.109305
-0.108251
-0.00327702
0.505738
-0.0308893
1.14317
-0.0658134
1.47841
-0.109928
1.74705
-0.167178
2.02975
-0.244808
2.35214
-0.356121
2.70674
-0.529315
3.10739
-0.807252
3.59102
-1.21106
4.33685
-1.50103
5.01171
-1.26491
5.76753
-0.740806
5.82002
-0.148111
4.77806
0.382349
3.40605
0.69314
2.25534
0.676248
1.31186
0.450637
0.712809
0.183185
0.376757
0.0749339
-0.0025863
0.508324
-0.0298814
1.17047
-0.0668972
1.51543
-0.115184
1.79533
-0.17827
2.09284
-0.261206
2.43508
-0.378799
2.82433
-0.554719
3.28331
-0.821352
3.85766
-1.18419
4.69969
-1.39869
5.22621
-1.07233
5.44118
-0.477598
5.22528
0.095468
4.205
0.469683
3.03183
0.61878
2.10624
0.54089
1.38975
0.336311
0.917388
0.127404
0.585664
0.202338
0.00323836
0.505086
-0.0203847
1.19409
-0.0595134
1.55456
-0.110881
1.8467
-0.175224
2.15718
-0.258772
2.51862
-0.374461
2.94002
-0.537231
3.44608
-0.767828
4.08825
-1.05343
4.98529
-1.18192
5.35471
-0.857369
5.11662
-0.290884
4.6588
0.178619
3.7355
0.421801
2.78865
0.479317
2.04873
0.387176
1.4819
0.222779
1.08179
0.074551
0.733892
0.276889
0.0115529
0.493533
-0.00474424
1.21039
-0.0455251
1.59534
-0.0965775
1.89775
-0.156971
2.21757
-0.237114
2.59877
-0.34366
3.04657
-0.484288
3.5867
-0.666157
4.27012
-0.866902
5.18604
-0.9222
5.41
-0.658245
4.85267
-0.215955
4.21651
0.12482
3.39472
0.283782
2.62969
0.308714
2.0238
0.237632
1.55298
0.127909
1.19151
0.0368901
0.824911
0.313779
0.0207501
0.472783
0.0125818
1.21855
-0.0204892
1.62841
-0.0637022
1.94097
-0.119045
2.27292
-0.192115
2.67184
-0.2847
3.13915
-0.400396
3.7024
-0.534119
4.40385
-0.659891
5.31181
-0.668405
5.41852
-0.476096
4.66036
-0.182898
3.92331
0.0363008
3.17552
0.14053
2.52546
0.159056
2.00527
0.120972
1.59106
0.0624514
1.25003
0.0166424
0.87072
0.330421
0.0348977
0.437885
0.0415688
1.21188
0.0182367
1.65174
-0.0175339
1.97674
-0.0661285
2.32151
-0.124688
2.7304
-0.198164
3.21263
-0.2868
3.79104
-0.380383
4.49743
-0.451438
5.38286
-0.437144
5.40422
-0.308746
4.53196
-0.135039
3.7496
-0.00746238
3.04794
0.0568706
2.46112
0.0748553
1.98729
0.059595
1.60632
0.0329879
1.27664
0.0107845
0.892924
0.341206
0.0530779
0.384807
0.0807497
1.18421
0.0717641
1.66072
0.0469104
2.00159
0.0120331
2.35639
-0.0307603
2.77319
-0.082716
3.26458
-0.144137
3.85246
-0.205072
4.55836
-0.241577
5.41937
-0.223564
5.38621
-0.147371
4.45577
-0.0565783
3.65881
0.00717487
2.98419
0.0383624
2.42994
0.0469989
1.97865
0.0400778
1.61324
0.026873
1.28984
0.0119188
0.907878
0.353125
0.0746057
0.310202
0.126427
1.13239
0.137394
1.64976
0.130381
2.0086
0.113139
2.37363
0.0911718
2.79516
0.0620442
3.29371
0.0271389
3.88736
-0.00596441
4.59147
-0.0201895
5.4336
-0.00718682
5.37321
0.0288997
4.41968
0.0654959
3.62222
0.0861741
2.96351
0.090492
2.42562
0.0831216
1.98602
0.0685552
1.62781
0.0492124
1.30918
0.0235126
0.933578
0.376637
0.0912014
0.219
0.185265
1.03833
0.230457
1.60457
0.245997
1.99306
0.248047
2.37158
0.246472
2.79673
0.240597
3.29959
0.230812
3.89715
0.22043
4.60185
0.216185
5.43784
0.225346
5.36405
0.236361
4.40867
0.238029
3.62055
0.225813
2.97573
0.201873
2.44956
0.169619
2.01827
0.132686
1.66474
0.0920521
1.34982
0.0424696
0.98316
0.419107
0.0487477
0.170252
0.141204
0.94587
0.203964
1.54181
0.239431
1.9576
0.26077
2.35024
0.272859
2.78464
0.276352
3.29609
0.273178
3.90032
0.264305
4.61072
0.251579
5.45057
0.240234
5.37539
0.227182
4.42172
0.208396
3.63933
0.184054
3.00007
0.15593
2.47768
0.125314
2.04889
0.093506
1.69655
0.0599922
1.38333
0.022999
1.02015
0.442106
-0.0133325
0.183585
0.0204031
0.912135
0.0610696
1.50114
0.101244
1.91742
0.136143
2.31534
0.163741
2.75705
0.184874
3.27496
0.199507
3.88569
0.203816
4.60641
0.198512
5.45587
0.187333
5.38657
0.17138
4.43767
0.149804
3.66091
0.124358
3.02552
0.0971887
2.50485
0.0694587
2.07662
0.0431949
1.72281
0.0187261
1.4078
2.27958e-05
1.03886
0.442129
-0.0377344
0.221319
-0.0331219
0.907522
-0.00622218
1.47424
0.0244608
1.88674
0.0571379
2.28267
0.0885034
2.72568
0.116445
3.24702
0.137138
3.865
0.148928
4.59462
0.150623
5.45418
0.141995
5.3952
0.12664
4.45303
0.106385
3.68116
0.0833317
3.04857
0.0598807
2.5283
0.0373908
2.09911
0.0174957
1.74271
0.00039485
1.4249
-0.00776427
1.04702
0.434364
-0.0413635
0.262683
-0.0501826
0.916341
-0.0319212
1.45598
-0.00747844
1.8623
0.0183332
2.25686
0.0443789
2.69963
0.0700573
3.22134
0.091553
3.8435
0.106562
4.57961
0.111641
5.4491
0.105666
5.40117
0.0925222
4.46617
0.0750886
3.6986
0.0560228
3.06764
0.0374378
2.54689
0.0199109
2.11664
0.00354326
1.75908
-0.0106027
1.43905
-0.0138145
1.05023
0.42055
-0.0338444
0.296527
-0.0526561
0.935153
-0.0416227
1.44495
-0.0204473
1.84112
0.00209792
2.23431
0.0240678
2.67766
0.0440937
3.20132
0.0620007
3.82559
0.0760847
4.56553
0.0820462
5.44314
0.0779412
5.40528