/*--------------------------------*- C++ -*----------------------------------*\
  =========                 |
  \\      /  F ield         | OpenFOAM: The Open Source CFD Toolbox
   \\    /   O peration     | Website:  https://openfoam.org
    \\  /    A nd           | Version:  9
     \\/     M anipulation  |
\*---------------------------------------------------------------------------*/
FoamFile
{
    format      ascii;
    class       volScalarField;
    location    "17";
    object      p;
}
// * * * * * * * * * * * * * * * * * * * * * * * * * * * * * * * * * * * * * //

dimensions      [0 2 -2 0 0 0 0];

internalField   nonuniform List<scalar> 
2200
(
0.404126
0.382652
0.366776
0.351154
0.336621
0.324197
0.313939
0.30586
0.300156
0.297163
0.297451
0.300944
0.307007
0.315351
0.325794
0.338352
0.352974
0.368648
0.384558
0.406049
0.336484
0.333235
0.330357
0.326296
0.320887
0.314505
0.308005
0.302166
0.297735
0.295262
0.295542
0.298543
0.303357
0.309483
0.316186
0.322706
0.328215
0.33235
0.335272
0.338534
0.296395
0.296661
0.298778
0.300199
0.300721
0.299983
0.298055
0.295487
0.293022
0.291453
0.291767
0.293899
0.296795
0.299671
0.30182
0.302718
0.302311
0.300973
0.298919
0.298676
0.273661
0.275138
0.277941
0.280622
0.283268
0.285453
0.28672
0.287024
0.286581
0.286119
0.286502
0.287612
0.288529
0.288581
0.287571
0.28557
0.283054
0.280461
0.277717
0.276258
0.259551
0.26149
0.264455
0.267449
0.270434
0.273406
0.276065
0.27813
0.279396
0.280052
0.280502
0.280597
0.279904
0.278261
0.275908
0.273154
0.270324
0.267435
0.264536
0.262607
0.252633
0.254206
0.256435
0.259035
0.261773
0.264479
0.267062
0.269525
0.271661
0.273158
0.273656
0.273056
0.271638
0.269695
0.267476
0.265033
0.262483
0.260018
0.257864
0.256294
0.249476
0.250455
0.251874
0.254118
0.256571
0.258885
0.26098
0.26301
0.264997
0.266611
0.26723
0.26673
0.265627
0.264223
0.262557
0.260556
0.258321
0.256219
0.254869
0.253894
0.247757
0.248247
0.249222
0.251263
0.253542
0.255718
0.257653
0.259434
0.261061
0.262421
0.263209
0.263214
0.26263
0.261633
0.260235
0.258457
0.256443
0.254581
0.253682
0.2532
0.246962
0.247108
0.247774
0.249348
0.251176
0.25309
0.254979
0.256775
0.258368
0.259721
0.26068
0.260982
0.260606
0.259778
0.258626
0.257231
0.255741
0.254395
0.253832
0.253644
0.245898
0.245914
0.24628
0.247142
0.24822
0.249528
0.251082
0.252825
0.254571
0.256216
0.257448
0.25796
0.257782
0.257205
0.256549
0.255808
0.255126
0.25453
0.254275
0.254262
0.243509
0.2435
0.243697
0.24412
0.244717
0.245548
0.246628
0.248078
0.249791
0.251656
0.253253
0.25422
0.254636
0.2546
0.254405
0.254273
0.254157
0.254047
0.253993
0.253988
0.24028
0.240225
0.240415
0.240781
0.241391
0.242156
0.24312
0.244452
0.246092
0.248052
0.249962
0.251419
0.252396
0.252941
0.253197
0.253348
0.253371
0.253366
0.253361
0.253367
0.236761
0.236742
0.236946
0.237401
0.238072
0.238988
0.240213
0.241725
0.243599
0.245857
0.248158
0.24999
0.251247
0.252118
0.252691
0.252955
0.253035
0.253055
0.253063
0.253069
0.232827
0.232836
0.232997
0.233414
0.234139
0.235117
0.236505
0.238309
0.240597
0.24341
0.246351
0.24869
0.250328
0.251466
0.252246
0.252714
0.252982
0.253131
0.253198
0.253196
0.228142
0.228133
0.228318
0.228728
0.229402
0.230399
0.231871
0.233913
0.236658
0.240153
0.243937
0.24704
0.249273
0.250823
0.251917
0.252644
0.253115
0.253402
0.253534
0.253527
0.222505
0.222483
0.222736
0.223202
0.223984
0.22518
0.226895
0.229304
0.2326
0.236884
0.241622
0.245636
0.248548
0.250617
0.25207
0.25305
0.253698
0.25409
0.25427
0.254261
0.215995
0.215966
0.216262
0.216881
0.217878
0.219378
0.221539
0.224563
0.228664
0.233987
0.239877
0.244912
0.248582
0.251213
0.25302
0.254234
0.255016
0.255472
0.255675
0.25566
0.208314
0.208296
0.208674
0.209506
0.210807
0.212705
0.215434
0.219247
0.224417
0.231104
0.238453
0.24469
0.249246
0.25248
0.254696
0.256196
0.257174
0.257756
0.258015
0.257997
0.199361
0.199334
0.19979
0.200768
0.202381
0.2048
0.208262
0.213091
0.219615
0.228011
0.237171
0.244886
0.250525
0.254523
0.257292
0.259176
0.260399
0.261112
0.26142
0.261387
0.188406
0.188399
0.189038
0.190335
0.19241
0.195476
0.199891
0.206052
0.214316
0.22485
0.236211
0.245716
0.252648
0.257557
0.260952
0.26325
0.264759
0.265658
0.266049
0.266015
0.175196
0.175158
0.175947
0.177593
0.180294
0.184339
0.190079
0.197999
0.208505
0.221686
0.235689
0.247313
0.255773
0.261772
0.265947
0.268794
0.270653
0.271739
0.272198
0.27214
0.158383
0.15844
0.159597
0.161863
0.165509
0.17089
0.178472
0.188803
0.202198
0.218636
0.235786
0.249897
0.260148
0.267435
0.272502
0.275956
0.278233
0.279571
0.280143
0.280077
0.137338
0.137331
0.138906
0.142091
0.147159
0.154603
0.164824
0.178359
0.195401
0.215759
0.236558
0.253502
0.265788
0.27456
0.280745
0.285014
0.287844
0.289517
0.2902
0.290077
0.109486
0.109859
0.112381
0.117083
0.124448
0.134993
0.148903
0.166656
0.188211
0.213189
0.238165
0.258306
0.272916
0.283424
0.290905
0.296149
0.299656
0.301698
0.302563
0.302417
0.0722836
0.0729168
0.0771053
0.0850264
0.0964574
0.111638
0.13074
0.153934
0.180922
0.211221
0.240826
0.264438
0.281562
0.293999
0.302994
0.309431
0.31391
0.316647
0.317764
0.31746
0.022709
0.0233257
0.0312411
0.0446543
0.0626754
0.0847127
0.110692
0.140506
0.173831
0.21006
0.244589
0.271848
0.291671
0.306229
0.316999
0.324936
0.330555
0.333919
0.335058
0.334646
-0.045032
-0.0412783
-0.0243326
-0.00159219
0.0252769
0.0556544
0.0894837
0.126743
0.167155
0.21002
0.250189
0.281872
0.305237
0.322767
0.336063
0.346255
0.353998
0.35899
0.360598
0.360419
-0.124738
-0.111517
-0.0824065
-0.0493664
-0.0127674
0.0261825
0.0681861
0.113284
0.161081
0.211001
0.257515
0.294353
0.321871
0.343043
0.359744
0.373
0.383654
0.3911
0.395231
0.395842
-0.190437
-0.173485
-0.13656
-0.0952465
-0.0499834
-0.00250243
0.0477466
0.100532
0.155446
0.212125
0.264513
0.305967
0.337112
0.361167
0.380232
0.39547
0.407313
0.416165
0.420262
0.420634
-0.239308
-0.22429
-0.182427
-0.135868
-0.0838695
-0.0291199
0.0284415
0.0881855
0.14979
0.212889
0.270752
0.316248
0.350119
0.375987
0.39611
0.411979
0.424284
0.432981
0.437053
0.437595
-0.279472
-0.265023
-0.220541
-0.170795
-0.11356
-0.0531019
0.0104951
0.0763458
0.14412
0.213114
0.275804
0.324405
0.360015
0.386798
0.407225
0.423149
0.435522
0.44419
0.448599
0.449107
-0.313958
-0.299261
-0.252779
-0.200704
-0.139384
-0.0745492
-0.00604953
0.0650635
0.13824
0.212278
0.278971
0.330095
0.367047
0.394486
0.415313
0.431397
0.443915
0.4526
0.457162
0.457516
-0.344157
-0.329447
-0.280892
-0.226516
-0.16202
-0.0938828
-0.021411
0.0541507
0.131942
0.210503
0.281077
0.334746
0.373027
0.401234
0.422423
0.438517
0.450955
0.459815
0.464059
0.46443
-0.371371
-0.356821
-0.30633
-0.249495
-0.182325
-0.111598
-0.0358749
0.0434475
0.125303
0.208101
0.282437
0.338495
0.378307
0.40728
0.428999
0.445355
0.457651
0.466512
0.470602
0.470915
-0.396285
-0.381879
-0.330076
-0.270841
-0.201226
-0.128185
-0.049665
0.0328954
0.118369
0.205141
0.283186
0.342197
0.383805
0.413752
0.435703
0.452031
0.464225
0.472881
0.477081
0.477482
-0.419805
-0.404978
-0.352619
-0.291379
-0.219465
-0.144114
-0.0630007
0.022444
0.111217
0.201878
0.28395
0.345843
0.388948
0.419674
0.442204
0.45882
0.471129
0.479691
0.483844
0.484206
-0.441892
-0.426867
-0.374116
-0.311412
-0.237458
-0.1598
-0.0761694
0.0119627
0.103845
0.198156
0.283931
0.348557
0.39385
0.425942
0.449025
0.465893
0.478226
0.486549
0.490763
0.491154
-0.46271
-0.447752
-0.394611
-0.330831
-0.255306
-0.175533
-0.0895157
0.00114902
0.0958452
0.193417
0.28272
0.350946
0.39879
0.432307
0.456114
0.473271
0.485717
0.494126
0.498105
0.498425
-0.482853
-0.467764
-0.414217
-0.349543
-0.272871
-0.191356
-0.103255
-0.0103054
0.086957
0.187723
0.280998
0.352744
0.403047
0.438523
0.463487
0.481179
0.493717
0.501717
0.505699
0.505981
-0.50274
-0.487043
-0.433106
-0.367565
-0.289999
-0.207147
-0.11734
-0.0223773
0.0773313
0.18118
0.278169
0.353465
0.407499
0.445393
0.471637
0.489695
0.502186
0.510205
0.513849
0.513939
-0.522307
-0.505808
-0.451469
-0.385015
-0.306627
-0.222714
-0.13152
-0.0348124
0.067107
0.173618
0.273915
0.353391
0.411032
0.452116
0.480363
0.499223
0.511521
0.518755
0.522077
0.522044
-0.541352
-0.524159
-0.469407
-0.402019
-0.32279
-0.237935
-0.14558
-0.0474254
0.0563363
0.16519
0.268804
0.352378
0.41392
0.458532
0.48958
0.509798
0.521805
0.528236
0.530609
0.530289
-0.559753
-0.542078
-0.486918
-0.418638
-0.338571
-0.252831
-0.159467
-0.0601294
0.0451423
0.156056
0.262505
0.349682
0.41554
0.464587
0.49958
0.522232
0.534275
0.538071
0.538063
0.537911
-0.577506
-0.559513
-0.503943
-0.43485
-0.354013
-0.267461
-0.173227
-0.0729165
0.0336041
0.14613
0.254726
0.34532
0.415656
0.469583
0.509527
0.536394
0.549974
0.551404
0.546653
0.543924
-0.594599
-0.576328
-0.520377
-0.450585
-0.369102
-0.281856
-0.186881
-0.0857503
0.0217944
0.135607
0.246091
0.339797
0.41405
0.473103
0.518987
0.552524
0.571745
0.569691
0.561857
0.566575
-0.611033
-0.592494
-0.536144
-0.465753
-0.383758
-0.295954
-0.200372
-0.0985662
0.00977055
0.124622
0.236469
0.331993
0.40971
0.473922
0.526241
0.567923
0.598302
0.591871
0.548079
0.497826
-0.626736
-0.607988
-0.551262
-0.480398
-0.398038
-0.309841
-0.213834
-0.111584
-0.00273438
0.112773
0.225466
0.322242
0.40244
0.47098
0.52982
0.581264
0.626858
0.653437
0.679192
0.730017
-0.641669
-0.622905
-0.565835
-0.494644
-0.41208
-0.323695
-0.227503
-0.12509
-0.0160752
0.0996832
0.212699
0.309811
0.391391
0.462616
0.523131
0.574062
0.61086
0.629271
0.612378
0.617738
-0.655773
-0.637197
-0.579834
-0.50845
-0.425798
-0.337391
-0.241222
-0.138886
-0.0300553
0.0854478
0.197933
0.294137
0.373872
0.444229
0.502383
0.546021
0.554351
0.521293
0.470462
0.464162
-0.669109
-0.650858
-0.593272
-0.521833
-0.439195
-0.350919
-0.254949
-0.152957
-0.0446829
0.0699428
0.181238
0.275947
0.352766
0.416222
0.466338
0.483981
0.455064
0.388658
0.318731
0.3114
-0.681723
-0.663864
-0.606169
-0.534825
-0.452304
-0.3643
-0.268706
-0.167293
-0.059919
0.0533796
0.16303
0.254235
0.325321
0.375062
0.401294
0.391179
0.344602
0.243941
0.156329
0.141433
-0.694069
-0.676633
-0.618907
-0.547784
-0.465477
-0.377852
-0.28276
-0.182109
-0.0759106
0.0355143
0.142217
0.229474
0.292919
0.327495
0.31933
0.280666
0.175243
0.050781
-0.0588017
-0.0807745
-0.70698
-0.689915
-0.632155
-0.561308
-0.479269
-0.392037
-0.297514
-0.197736
-0.0929005
0.0162695
0.119609
0.20197
0.257456
0.268863
0.225097
0.134255
-0.0296885
-0.187288
-0.31764
-0.342261
-0.720944
-0.70414
-0.646205
-0.575606
-0.493848
-0.406976
-0.313051
-0.21423
-0.11091
-0.00441301
0.0946851
0.171135
0.215582
0.199071
0.12805
-0.0308364
-0.247698
-0.473785
-0.661692
-0.708552
-0.735988
-0.719351
-0.661106
-0.590684
-0.509169
-0.422621
-0.329302
-0.231515
-0.12984
-0.0261878
0.067337
0.138241
0.166986
0.116968
0.00935487
-0.202469
-0.462187
-0.780462
-1.125
-1.26534
-0.752169
-0.735638
-0.676931
-0.606601
-0.525264
-0.439011
-0.346301
-0.249604
-0.149707
-0.0491589
0.0389744
0.103717
0.11594
0.0270385
-0.134738
-0.377995
-0.651177
-1.0403
-1.67497
-2.27165
-0.769479
-0.752985
-0.693734
-0.623396
-0.542123
-0.456116
-0.363964
-0.268392
-0.170349
-0.0728419
0.00970726
0.0652293
0.0638485
-0.0556734
-0.278495
-0.5637
-0.813863
-1.10464
-1.74721
-3.42906
-0.787962
-0.771414
-0.711568
-0.641165
-0.559878
-0.474084
-0.382488
-0.288056
-0.19198
-0.0976227
-0.0206425
0.0255226
0.00223641
-0.126753
-0.39352
-0.69635
-0.894721
-0.977294
-1.01921
-1.45351
-0.807559
-0.790872
-0.730554
-0.660205
-0.578865
-0.493328
-0.402378
-0.309255
-0.215483
-0.125074
-0.0534326
-0.0164051
-0.0610138
-0.180108
-0.45688
-0.732711
-0.895348
-0.931857
-0.888504
-0.939426
-0.82826
-0.811256
-0.750653
-0.680616
-0.59911
-0.513883
-0.423722
-0.331998
-0.240737
-0.154708
-0.0869998
-0.0593592
-0.117764
-0.233461
-0.503453
-0.735717
-0.863308
-0.897686
-0.929763
-0.948074
-0.84971
-0.832428
-0.77192
-0.702339
-0.620479
-0.5357
-0.446459
-0.35619
-0.267649
-0.186279
-0.122948
-0.10227
-0.173259
-0.292996
-0.541089
-0.737886
-0.850341
-0.833294
-0.858585
-0.85755
-0.871692
-0.85424
-0.794466
-0.725095
-0.642739
-0.558616
-0.470437
-0.381696
-0.295823
-0.219046
-0.160233
-0.147158
-0.224963
-0.362777
-0.581268
-0.747549
-0.84302
-0.843716
-0.84649
-0.852112
-0.893842
-0.876442
-0.817874
-0.748502
-0.665615
-0.582399
-0.495311
-0.407884
-0.324507
-0.252515
-0.197448
-0.191611
-0.276512
-0.441997
-0.620331
-0.749247
-0.823184
-0.869023
-0.830601
-0.838065
-0.916007
-0.898838
-0.84129
-0.771956
-0.688829
-0.606741
-0.520557
-0.434556
-0.353751
-0.286023
-0.234217
-0.23176
-0.333602
-0.522958
-0.656491
-0.744315
-0.761173
-0.82511
-0.790633
-0.797698
-0.937527
-0.9209
-0.86411
-0.794869
-0.712072
-0.631224
-0.545623
-0.461207
-0.382499
-0.318373
-0.27204
-0.264005
-0.393039
-0.613111
-0.694734
-0.694659
-0.665807
-0.715032
-0.743334
-0.753418
-0.957845
-0.941873
-0.885708
-0.81644
-0.735191
-0.655143
-0.569551
-0.486671
-0.40937
-0.346905
-0.309134
-0.291093
-0.458241
-0.727724
-0.800315
-0.716193
-0.705091
-0.729449
-0.77311
-0.779682
-0.975999
-0.961006
-0.905736
-0.836717
-0.757645
-0.676877
-0.59163
-0.510873
-0.434643
-0.37069
-0.342504
-0.30462
-0.512471
-0.863545
-1.12469
-1.16754
-1.16121
-1.13208
-1.11039
-1.08915
-0.991079
-0.9772
-0.923516
-0.855119
-0.777185
-0.695961
-0.611923
-0.532302
-0.456683
-0.389598
-0.375994
-0.317151
-0.552753
-0.985241
-1.55392
-2.02522
-2.16191
-2.09538
-1.95735
-1.85336
-1.00194
-0.98945
-0.937857
-0.870089
-0.792585
-0.711941
-0.629224
-0.548737
-0.473344
-0.402157
-0.394965
-0.335505
-0.560171
-0.969849
-1.55393
-2.10427
-2.24567
-2.11135
-1.98676
-1.9046
-1.00734
-0.996213
-0.947161
-0.880162
-0.80309
-0.723152
-0.641656
-0.560135
-0.483847
-0.410203
-0.388492
-0.330111
-0.468972
-0.652079
-0.862763
-1.00511
-0.984785
-0.894339
-0.77615
-0.664453
-1.0054
-0.995785
-0.949772
-0.88387
-0.807748
-0.728923
-0.648261
-0.566973
-0.487325
-0.403701
-0.356639
-0.290373
-0.243589
-0.0842063
0.113942
0.27539
0.435524
0.56156
0.634084
0.664627
-0.994517
-0.986429
-0.944612
-0.880483
-0.805823
-0.728721
-0.648839
-0.56834
-0.483195
-0.385535
-0.299993
-0.206946
0.00955804
0.37615
0.782998
1.11667
1.36159
1.50879
1.56859
1.58679
-0.972594
-0.965945
-0.929329
-0.868242
-0.796033
-0.721565
-0.644044
-0.56428
-0.475369
-0.366527
-0.228136
-0.109025
0.180607
0.578017
1.01331
1.3788
1.64434
1.79833
1.85636
1.86697
-0.939716
-0.934738
-0.903277
-0.846164
-0.777691
-0.707108
-0.634844
-0.559326
-0.474836
-0.365005
-0.199393
-0.0397363
0.22542
0.560374
0.943415
1.25661
1.50867
1.65584
1.71664
1.73149
-0.893416
-0.889658
-0.864268
-0.813495
-0.750901
-0.686137
-0.622362
-0.555197
-0.479364
-0.394185
-0.231501
-0.030919
0.164718
0.432414
0.743751
1.00525
1.22165
1.35222
1.41264
1.43185
-0.833622
-0.830706
-0.810749
-0.768115
-0.71522
-0.661111
-0.611073
-0.56204
-0.515881
-0.465138
-0.361092
-0.213644
-0.0128988
0.235086
0.493594
0.70886
0.880872
0.991199
1.04071
1.05948
-0.760205
-0.759389
-0.74491
-0.713569
-0.674375
-0.636173
-0.604783
-0.584205
-0.586452
-0.609327
-0.636814
-0.527766
-0.287152
-0.0295478
0.214514
0.410812
0.560475
0.645529
0.678755
0.689764
-0.679277
-0.68021
-0.672191
-0.654209
-0.630616
-0.609448
-0.598138
-0.607409
-0.661683
-0.775937
-0.931631
-0.84772
-0.578479
-0.299218
-0.0353735
0.165622
0.28883
0.348225
0.370679
0.375934
-0.600959
-0.601549
-0.598043
-0.59008
-0.580043
-0.57335
-0.578689
-0.609788
-0.703399
-0.892679
-1.16072
-1.1272
-0.774848
-0.502474
-0.231016
-0.0519849
0.0508838
0.098376
0.117407
0.123821
-0.518519
-0.519907
-0.519417
-0.517998
-0.516764
-0.520177
-0.535048
-0.573067
-0.679978
-0.877655
-1.18387
-1.10746
-0.814857
-0.538826
-0.331395
-0.202102
-0.116165
-0.0845181
-0.0684742
-0.0636227
-0.430486
-0.432408
-0.432734
-0.433533
-0.436549
-0.443256
-0.460122
-0.499421
-0.591903
-0.761395
-0.975518
-0.869668
-0.628099
-0.446138
-0.325443
-0.244129
-0.204683
-0.186222
-0.176018
-0.173522
-0.3382
-0.33991
-0.341264
-0.342425
-0.345309
-0.351362
-0.364591
-0.393293
-0.456898
-0.570874
-0.691335
-0.565395
-0.398393
-0.301562
-0.239977
-0.210203
-0.203803
-0.19967
-0.197466
-0.197295
-0.247989
-0.249262
-0.25076
-0.251895
-0.253208
-0.256275
-0.262887
-0.277752
-0.310513
-0.368908
-0.425208
-0.311292
-0.230253
-0.19196
-0.154362
-0.161044
-0.165522
-0.168588
-0.170485
-0.171615
-0.167047
-0.167867
-0.16923
-0.169997
-0.170157
-0.170221
-0.170376
-0.172758
-0.179659
-0.192502
-0.179469
-0.130501
-0.115081
-0.104369
-0.102779
-0.113113
-0.119277
-0.124315
-0.12711
-0.128453
-0.100181
-0.100655
-0.101706
-0.102338
-0.102044
-0.100493
-0.096771
-0.09111
-0.0817639
-0.0622592
-0.0304042
-0.0164926
-0.0275756
-0.0383753
-0.0537221
-0.0657636
-0.0733718
-0.0788739
-0.0817297
-0.0830563
-0.0489649
-0.0492109
-0.0499507
-0.0504709
-0.0501734
-0.0484991
-0.0439161
-0.0356187
-0.0216725
0.00276901
0.0342822
0.0358741
0.0182516
0.00183356
-0.0161025
-0.0278396
-0.0354518
-0.0404272
-0.0429798
-0.0441592
-0.0126198
-0.0127297
-0.0132402
-0.0136463
-0.0133822
-0.0121275
-0.00836412
-0.000912123
0.0118133
0.0322864
0.0560864
0.0536933
0.0375881
0.0226295
0.00764377
-0.00201112
-0.00832429
-0.012253
-0.0142915
-0.0152131
0.0114353
0.0113744
0.0110357
0.0107104
0.011028
0.0120243
0.0147266
0.0201521
0.0294971
0.0442348
0.0592015
0.0574486
0.0444061
0.0325627
0.0214651
0.0142248
0.0094603
0.0065225
0.00498905
0.00431778
0.0267136
0.0266526
0.026414
0.0261003
0.0263445
0.0271321
0.0291151
0.0327903
0.0388592
0.0481901
0.0564036
0.0551997
0.0453353
0.0367195
0.0289472
0.023691
0.0201477
0.0179223
0.0167795
0.016301
0.0361158
0.0360358
0.0357923
0.0353411
0.0352563
0.035607
0.0369421
0.0393894
0.0432544
0.0487465
0.0526861
0.0510966
0.0440294
0.0379243
0.0324938
0.0285953
0.0258551
0.0240857
0.0232075
0.0228655
0.0411256
0.0410349
0.0407231
0.0400667
0.0395605
0.0393335
0.0398768
0.0412514
0.0436768
0.0469065
0.0486061
0.0468629
0.0418547
0.0374423
0.0335263
0.0305388
0.0283577
0.0269158
0.0262229
0.0259717
0.0425149
0.0424299
0.0420749
0.0413217
0.0405804
0.0399651
0.0398148
0.0402159
0.0414705
0.0432661
0.0439385
0.0424009
0.0388863
0.0356625
0.0327996
0.0305297
0.028834
0.027692
0.0271538
0.0269671
0.0413268
0.0412557
0.0409253
0.0402271
0.0394824
0.0387814
0.03828
0.0380517
0.0383825
0.0390698
0.0391001
0.0377742
0.0352915
0.0329485
0.0308788
0.0292088
0.0279421
0.0270757
0.0266743
0.0265394
0.0386644
0.0386125
0.0383421
0.0377599
0.0371073
0.0364662
0.0358844
0.0354165
0.0352025
0.0351117
0.0346218
0.0333634
0.0315207
0.0298
0.0283
0.0270809
0.0261453
0.0254989
0.0252055
0.0251086
0.0352037
0.0351715
0.034948
0.0344503
0.033871
0.0332813
0.0326882
0.0321657
0.0317203
0.031256
0.0304888
0.0292916
0.0278527
0.0265453
0.0254154
0.0244934
0.0237792
0.0232813
0.0230611
0.022991
0.0311739
0.0311545
0.0309645
0.0305311
0.0300125
0.0294572
0.0288638
0.028324
0.0277926
0.0272269
0.026427
0.0253742
0.0242355
0.0232158
0.0223347
0.0216168
0.02106
0.0206697
0.0205018
0.0204508
0.026731
0.0267183
0.0265596
0.0261916
0.0257513
0.0252527
0.0246987
0.02417
0.0236092
0.0230449
0.022322
0.0214557
0.0205648
0.0197765
0.0190958
0.0185437
0.018116
0.0178134
0.0176852
0.0176466
0.0220378
0.0220305
0.0219094
0.0216172
0.0212696
0.0208535
0.0203825
0.0199126
0.0193777
0.0188477
0.0182153
0.0175214
0.016837
0.0162408
0.0157268
0.0153117
0.0149915
0.0147649
0.0146714
0.0146441
0.0172305
0.0172253
0.0171389
0.0169182
0.0166615
0.0163381
0.0159721
0.0155983
0.0151426
0.0146891
0.0141567
0.0136119
0.0130958
0.0126577
0.0122811
0.0119778
0.0117441
0.011578
0.0115105
0.0114907
0.0123755
0.0123741
0.0123159
0.0121568
0.0119714
0.0117364
0.0114736
0.0112033
0.0108594
0.0105231
0.0101229
0.00972982
0.00936226
0.00905684
0.0087943
0.00858169
0.00841761
0.00830169
0.00825566
0.00824346
0.00747286
0.00747289
0.00743968
0.00733567
0.00722565
0.00708121
0.00691312
0.00675084
0.00652365
0.00632412
0.0060752
0.00584355
0.0056226
0.00544383
0.00528556
0.00515531
0.00505301
0.00497953
0.00495245
0.00494492
0.00253933
0.00254047
0.00253106
0.00248514
0.00244925
0.00238714
0.00231124
0.00226515
0.00216514
0.00211278
0.00202236
0.00195171
0.00187102
0.00181545
0.00175793
0.0017102
0.00166845
0.00163272
0.00162209
0.00161922
-1.60895
-0.692038
-0.415884
-0.117398
0.0861157
0.263197
0.413689
0.56671
0.729164
0.806907
-0.563004
-0.120624
-0.084986
0.116627
0.259958
0.388291
0.500648
0.599118
0.633904
0.588067
-0.140051
0.0939955
0.145347
0.288406
0.388717
0.479746
0.555229
0.611404
0.617959
0.628908
0.116574
0.276186
0.314417
0.428132
0.491678
0.556952
0.607019
0.642196
0.653178
0.675791
0.314346
0.42468
0.454049
0.534178
0.579358
0.626115
0.661259
0.687014
0.698077
0.728727
0.466024
0.542483
0.57301
0.622793
0.660521
0.693535
0.719728
0.741136
0.756319
0.78397
0.592643
0.647131
0.673868
0.704905
0.734596
0.75988
0.781066
0.800932
0.81645
0.842538
0.700839
0.740359
0.762395
0.784374
0.806641
0.827087
0.845176
0.863742
0.878821
0.902306
0.798048
0.827658
0.845345
0.861399
0.878435
0.895096
0.910981
0.92816
0.941724
0.964022
0.887981
0.909195
0.924643
0.938297
0.952303
0.966402
0.979976
0.99462
1.00621
1.02592
0.974855
0.990864
1.00497
1.01707
1.02923
1.04097
1.05216
1.06393
1.07163
1.08844
1.06061
1.07362
1.08748
1.09924
1.10991
1.11974
1.12856
1.13681
1.14037
1.15163
1.15021
1.1612
1.17474
1.18399
1.19146
1.19862
1.20583
1.21244
1.21344
1.22086
1.24882
1.25357
1.26161
1.26607
1.26931
1.27376
1.27975
1.28754
1.29139
1.30127
1.36216
1.34842
1.34096
1.33527
1.33256
1.33397
1.34053
1.35298
1.36767
1.39731
1.48283
1.42726
1.39635
1.37928
1.37117
1.3712
1.37983
1.39922
1.4313
1.50046
)
;

boundaryField
{
    wall-4
    {
        type            zeroGradient;
    }
    pressure-outlet-7
    {
        type            fixedValue;
        value           uniform 0;
    }
    velocity-inlet-6
    {
        type            zeroGradient;
    }
    velocity-inlet-5
    {
        type            zeroGradient;
    }
    frontAndBackPlanes
    {
        type            empty;
    }
}


// ************************************************************************* //
