/*--------------------------------*- C++ -*----------------------------------*\
  =========                 |
  \\      /  F ield         | OpenFOAM: The Open Source CFD Toolbox
   \\    /   O peration     | Website:  https://openfoam.org
    \\  /    A nd           | Version:  9
     \\/     M anipulation  |
\*---------------------------------------------------------------------------*/
FoamFile
{
    format      ascii;
    class       volVectorField;
    location    "17";
    object      U;
}
// * * * * * * * * * * * * * * * * * * * * * * * * * * * * * * * * * * * * * //

dimensions      [0 1 -1 0 0 0 0];

internalField   nonuniform List<vector> 
2200
(
(0.878534 -0.0303464 0)
(1.00564 -0.051292 0)
(1.00281 -0.0353244 0)
(0.999836 -0.0243226 0)
(0.999513 -0.01652 0)
(0.999905 -0.0106784 0)
(1.00021 -0.00673323 0)
(1.00034 -0.00397374 0)
(1.00031 -0.00204885 0)
(1.00016 -0.000629009 0)
(1.00011 0.000741309 0)
(1.00033 0.00225254 0)
(1.00037 0.00416637 0)
(1.00025 0.00693473 0)
(0.999931 0.0108118 0)
(0.999528 0.016628 0)
(0.999861 0.0243967 0)
(1.00285 0.0353859 0)
(1.00564 0.0513086 0)
(0.878523 0.0303674 0)
(0.712623 -0.0327172 0)
(0.99676 -0.062754 0)
(1.03409 -0.0559432 0)
(1.02549 -0.0460168 0)
(1.01605 -0.0354706 0)
(1.00951 -0.0255597 0)
(1.00566 -0.017608 0)
(1.00347 -0.0114004 0)
(1.00223 -0.00621424 0)
(1.00192 -0.00180248 0)
(1.00185 0.00250595 0)
(1.00221 0.00682924 0)
(1.00342 0.0119278 0)
(1.00551 0.0179678 0)
(1.00935 0.0258981 0)
(1.01591 0.0357424 0)
(1.02533 0.0462379 0)
(1.03391 0.0560864 0)
(0.996634 0.0629006 0)
(0.712468 0.0327427 0)
(0.536201 -0.0238804 0)
(0.970399 -0.0567177 0)
(1.05629 -0.0542885 0)
(1.05263 -0.0487038 0)
(1.03699 -0.0404849 0)
(1.02476 -0.0321345 0)
(1.01582 -0.0238714 0)
(1.01009 -0.0160112 0)
(1.00692 -0.0089601 0)
(1.00565 -0.00257582 0)
(1.00566 0.0036242 0)
(1.00685 0.00988776 0)
(1.00988 0.0167738 0)
(1.01561 0.0246058 0)
(1.02458 0.0327317 0)
(1.03681 0.0410147 0)
(1.05243 0.0491488 0)
(1.05607 0.0546728 0)
(0.969937 0.0569369 0)
(0.535548 0.0239502 0)
(0.393861 -0.0132903 0)
(0.912536 -0.0456575 0)
(1.058 -0.0462947 0)
(1.06906 -0.0432673 0)
(1.05463 -0.0375711 0)
(1.0393 -0.0312821 0)
(1.02761 -0.0246003 0)
(1.01926 -0.0172557 0)
(1.01409 -0.00987384 0)
(1.01163 -0.00266287 0)
(1.01149 0.00420581 0)
(1.01376 0.0113464 0)
(1.01891 0.0185823 0)
(1.02723 0.0257186 0)
(1.03886 0.0322941 0)
(1.05418 0.0383817 0)
(1.06851 0.0439046 0)
(1.0572 0.0467646 0)
(0.9114 0.0459288 0)
(0.39255 0.0133643 0)
(0.312681 -0.00405498 0)
(0.850893 -0.0310524 0)
(1.05044 -0.0376492 0)
(1.07894 -0.0357783 0)
(1.06745 -0.0312301 0)
(1.05152 -0.0262317 0)
(1.03804 -0.0214292 0)
(1.0275 -0.0159355 0)
(1.02045 -0.00965129 0)
(1.01675 -0.00252805 0)
(1.01659 0.00459874 0)
(1.02004 0.0116012 0)
(1.02689 0.0176806 0)
(1.0373 0.022971 0)
(1.05067 0.0274387 0)
(1.06649 0.0322294 0)
(1.07787 0.036566 0)
(1.04914 0.0382361 0)
(0.848957 0.0313662 0)
(0.310759 0.0041191 0)
(0.271678 0.000389544 0)
(0.79629 -0.0188448 0)
(1.03655 -0.0291937 0)
(1.08405 -0.0293449 0)
(1.07648 -0.0256075 0)
(1.06024 -0.0210846 0)
(1.04705 -0.0169978 0)
(1.03644 -0.0126474 0)
(1.02841 -0.00774476 0)
(1.02362 -0.00184409 0)
(1.02347 0.00453074 0)
(1.0279 0.0101323 0)
(1.03556 0.0147073 0)
(1.04591 0.0187095 0)
(1.059 0.0226126 0)
(1.07523 0.026909 0)
(1.08256 0.030443 0)
(1.03447 0.0300287 0)
(0.793228 0.0192313 0)
(0.269046 -0.000313382 0)
(0.250246 0.00141793 0)
(0.748761 -0.0107225 0)
(1.01851 -0.0225208 0)
(1.08506 -0.0239422 0)
(1.08225 -0.0213177 0)
(1.06645 -0.0173991 0)
(1.05329 -0.0136218 0)
(1.04305 -0.00975757 0)
(1.03519 -0.00553192 0)
(1.03053 -0.000908157 0)
(1.0302 0.00443822 0)
(1.0343 0.00877885 0)
(1.04174 0.0126561 0)
(1.0518 0.0162229 0)
(1.06482 0.0195487 0)
(1.08041 0.0230842 0)
(1.08286 0.0253717 0)
(1.01524 0.0235231 0)
(0.744021 0.011156 0)
(0.246729 -0.00130126 0)
(0.240565 0.00125131 0)
(0.712802 -0.00481437 0)
(0.999645 -0.0152035 0)
(1.08271 -0.017251 0)
(1.08485 -0.0162133 0)
(1.06987 -0.0137239 0)
(1.05607 -0.011057 0)
(1.04537 -0.00793123 0)
(1.03772 -0.00414537 0)
(1.03361 -9.56761e-05 0)
(1.0331 0.00456192 0)
(1.03641 0.00836415 0)
(1.04348 0.0117255 0)
(1.05377 0.0141644 0)
(1.06726 0.0162654 0)
(1.082 0.0183267 0)
(1.07931 0.0188719 0)
(0.994891 0.0162528 0)
(0.706618 0.00527481 0)
(0.236086 -0.00112388 0)
(0.238611 0.000877424 0)
(0.692136 -0.000820861 0)
(0.984132 -0.00771285 0)
(1.07804 -0.00982539 0)
(1.08463 -0.0102578 0)
(1.07074 -0.0094278 0)
(1.05678 -0.00841468 0)
(1.04636 -0.00618067 0)
(1.03899 -0.00302081 0)
(1.03501 0.000758013 0)
(1.03441 0.00488384 0)
(1.03744 0.00822813 0)
(1.04415 0.0107529 0)
(1.05374 0.01219 0)
(1.06759 0.0126439 0)
(1.08084 0.0128113 0)
(1.07336 0.0117821 0)
(0.977617 0.00901984 0)
(0.684099 0.00141068 0)
(0.232858 -0.000724377 0)
(0.239956 0.000552566 0)
(0.683763 0.000636382 0)
(0.97367 -0.00307766 0)
(1.07368 -0.00508111 0)
(1.08398 -0.00611633 0)
(1.0722 -0.00631099 0)
(1.05906 -0.00585516 0)
(1.04905 -0.00435153 0)
(1.04169 -0.00186298 0)
(1.03747 0.0015932 0)
(1.03662 0.00519014 0)
(1.03937 0.00811402 0)
(1.04573 0.00990781 0)
(1.05546 0.0107249 0)
(1.06763 0.0103255 0)
(1.07878 0.00928983 0)
(1.06751 0.00752369 0)
(0.965552 0.00471719 0)
(0.673525 0.000129732 0)
(0.232877 -0.000313824 0)
(0.241984 0.00013429 0)
(0.681236 0.000626622 0)
(0.96837 -0.00127457 0)
(1.07059 -0.0031813 0)
(1.08313 -0.00440167 0)
(1.0732 -0.00483686 0)
(1.06203 -0.00447155 0)
(1.05319 -0.00288419 0)
(1.04653 -0.000560323 0)
(1.04234 0.00276101 0)
(1.04107 0.00599107 0)
(1.04315 0.00866073 0)
(1.04839 0.0100722 0)
(1.05584 0.0108393 0)
(1.06675 0.00990268 0)
(1.07616 0.00853364 0)
(1.06226 0.00641099 0)
(0.957228 0.00343631 0)
(0.66827 0.000379659 0)
(0.232768 3.92697e-05 0)
(0.243116 1.42699e-05 0)
(0.681011 0.000653771 0)
(0.964486 -0.000397222 0)
(1.06721 -0.00233907 0)
(1.08128 -0.00375632 0)
(1.07291 -0.00427218 0)
(1.06327 -0.00389119 0)
(1.0555 -0.00206361 0)
(1.04962 0.000551994 0)
(1.04571 0.00410458 0)
(1.04425 0.00737079 0)
(1.04558 0.0100672 0)
(1.04942 0.0112628 0)
(1.0555 0.0112495 0)
(1.06507 0.0104345 0)
(1.07207 0.008658 0)
(1.05625 0.0061019 0)
(0.95006 0.00300095 0)
(0.663941 0.000691831 0)
(0.231685 0.000148654 0)
(0.2446 0.000249523 0)
(0.681513 0.000880958 0)
(0.960682 0.000714888 0)
(1.0631 -0.000802908 0)
(1.07824 -0.00229481 0)
(1.072 -0.00316935 0)
(1.06341 -0.00256313 0)
(1.05641 -0.00083139 0)
(1.05087 0.00183834 0)
(1.04692 0.00539419 0)
(1.04517 0.00865811 0)
(1.04597 0.0112596 0)
(1.04905 0.0122149 0)
(1.0544 0.0121575 0)
(1.06159 0.0110655 0)
(1.06642 0.00862954 0)
(1.04895 0.0056157 0)
(0.942888 0.0024774 0)
(0.659758 0.000668715 0)
(0.22993 0.000159315 0)
(0.246783 0.000344537 0)
(0.683196 0.00115749 0)
(0.959532 0.00196765 0)
(1.05963 0.000624854 0)
(1.07605 -0.000479525 0)
(1.07176 -0.00121707 0)
(1.06481 -0.000487377 0)
(1.05865 0.00126286 0)
(1.05334 0.00395104 0)
(1.04907 0.00729769 0)
(1.04676 0.0103177 0)
(1.04687 0.012429 0)
(1.04902 0.013058 0)
(1.05309 0.012635 0)
(1.05815 0.0109778 0)
(1.06068 0.00827903 0)
(1.04172 0.0051265 0)
(0.936619 0.00220895 0)
(0.656379 0.000711921 0)
(0.228486 0.000177077 0)
(0.249943 0.000345432 0)
(0.687328 0.00150025 0)
(0.960044 0.00254738 0)
(1.0577 0.00228434 0)
(1.07476 0.00172691 0)
(1.07228 0.00141989 0)
(1.06709 0.00225088 0)
(1.06188 0.00396762 0)
(1.05687 0.00656514 0)
(1.05227 0.00962627 0)
(1.04908 0.0123102 0)
(1.0481 0.0137615 0)
(1.0489 0.0139901 0)
(1.0515 0.0129713 0)
(1.05453 0.0111251 0)
(1.05507 0.00844237 0)
(1.03489 0.00543999 0)
(0.930629 0.00269732 0)
(0.652435 0.00110392 0)
(0.226436 0.000281497 0)
(0.253001 0.000361611 0)
(0.691234 0.00168658 0)
(0.961636 0.0030266 0)
(1.05786 0.00337236 0)
(1.07475 0.00337075 0)
(1.07329 0.00384802 0)
(1.06917 0.00523694 0)
(1.06461 0.00728741 0)
(1.05979 0.00998804 0)
(1.05488 0.0128445 0)
(1.05089 0.0150666 0)
(1.04883 0.0157729 0)
(1.04839 0.0152964 0)
(1.04949 0.0137054 0)
(1.05091 0.0114216 0)
(1.04988 0.00858523 0)
(1.0288 0.0056981 0)
(0.925138 0.0031664 0)
(0.64817 0.00145097 0)
(0.223763 0.000351444 0)
(0.257514 0.000507663 0)
(0.698228 0.00222148 0)
(0.965402 0.00418394 0)
(1.0591 0.00523506 0)
(1.07595 0.00603265 0)
(1.07519 0.00709821 0)
(1.07165 0.00875131 0)
(1.0673 0.0110387 0)
(1.06226 0.0137964 0)
(1.05668 0.0164773 0)
(1.05161 0.0181833 0)
(1.0482 0.0181938 0)
(1.04658 0.0168882 0)
(1.04612 0.0149205 0)
(1.04625 0.0123263 0)
(1.04409 0.00948199 0)
(1.02243 0.00666772 0)
(0.918893 0.00403737 0)
(0.642259 0.00186342 0)
(0.220067 0.000437803 0)
(0.26216 0.000659228 0)
(0.704326 0.00265049 0)
(0.969992 0.00515351 0)
(1.06215 0.00684982 0)
(1.07861 0.00865933 0)
(1.07801 0.0106144 0)
(1.07461 0.0131131 0)
(1.07012 0.0158879 0)
(1.06454 0.0187937 0)
(1.05797 0.0212737 0)
(1.05158 0.0223128 0)
(1.0468 0.0215004 0)
(1.04401 0.0193498 0)
(1.04248 0.0166412 0)
(1.04161 0.0134567 0)
(1.03854 0.0102737 0)
(1.01609 0.00722445 0)
(0.912055 0.00453942 0)
(0.635636 0.00217241 0)
(0.215855 0.000509058 0)
(0.26971 0.00088698 0)
(0.715703 0.00370288 0)
(0.978196 0.00717591 0)
(1.06731 0.00987968 0)
(1.08297 0.012137 0)
(1.08232 0.0148304 0)
(1.07875 0.0178804 0)
(1.07379 0.0212343 0)
(1.06736 0.0245364 0)
(1.05947 0.0269705 0)
(1.05143 0.0274204 0)
(1.04506 0.0257225 0)
(1.04089 0.0227188 0)
(1.03814 0.0192587 0)
(1.03622 0.0156853 0)
(1.03235 0.0122594 0)
(1.00935 0.00906472 0)
(0.904654 0.00592979 0)
(0.627472 0.00278697 0)
(0.210486 0.000632137 0)
(0.277677 0.00117246 0)
(0.726633 0.00440529 0)
(0.986991 0.00861715 0)
(1.0743 0.0120798 0)
(1.08919 0.0157778 0)
(1.0881 0.019699 0)
(1.08389 0.0238559 0)
(1.07796 0.0281081 0)
(1.07012 0.0318763 0)
(1.06035 0.0343092 0)
(1.05023 0.0341155 0)
(1.04206 0.0313997 0)
(1.03645 0.0274611 0)
(1.03261 0.0230696 0)
(1.02984 0.0186868 0)
(1.02522 0.0145186 0)
(1.00101 0.0105391 0)
(0.894496 0.0069081 0)
(0.616857 0.0033145 0)
(0.203985 0.000770995 0)
(0.290397 0.00155055 0)
(0.744542 0.00637476 0)
(1.00037 0.0120009 0)
(1.0838 0.016768 0)
(1.09723 0.0209136 0)
(1.09546 0.0258567 0)
(1.09022 0.0310692 0)
(1.08293 0.0361908 0)
(1.07324 0.0405845 0)
(1.0612 0.0430118 0)
(1.0487 0.0421369 0)
(1.03855 0.0382973 0)
(1.0314 0.0331597 0)
(1.02642 0.0276797 0)
(1.0228 0.0224343 0)
(1.01743 0.0176861 0)
(0.992424 0.0133885 0)
(0.884564 0.00897806 0)
(0.605318 0.0042415 0)
(0.196109 0.000929983 0)
(0.304653 0.00215308 0)
(0.764495 0.00743948 0)
(1.01613 0.0146298 0)
(1.09617 0.0206634 0)
(1.10827 0.0269858 0)
(1.10504 0.033737 0)
(1.09821 0.0403848 0)
(1.08874 0.0467892 0)
(1.07649 0.0519254 0)
(1.06149 0.0543037 0)
(1.04601 0.0525847 0)
(1.03343 0.0474625 0)
(1.02443 0.0410233 0)
(1.01807 0.0342915 0)
(1.01344 0.0278935 0)
(1.00712 0.021787 0)
(0.980078 0.0159467 0)
(0.868583 0.0105018 0)
(0.588165 0.00495071 0)
(0.186077 0.00111825 0)
(0.326287 0.0030797 0)
(0.792252 0.0116259 0)
(1.03761 0.0206193 0)
(1.11235 0.0286992 0)
(1.12192 0.0357769 0)
(1.11693 0.0442983 0)
(1.10773 0.0525252 0)
(1.09541 0.0601418 0)
(1.07987 0.0657042 0)
(1.0613 0.0677326 0)
(1.04247 0.0648125 0)
(1.0273 0.0580324 0)
(1.01645 0.0498658 0)
(1.00878 0.041516 0)
(1.00309 0.0336165 0)
(0.995717 0.0266537 0)
(0.967403 0.0202365 0)
(0.854307 0.0136086 0)
(0.571796 0.00639192 0)
(0.174871 0.00131547 0)
(0.355925 0.00425123 0)
(0.830668 0.0139994 0)
(1.06503 0.0270143 0)
(1.13249 0.0372218 0)
(1.13983 0.0476041 0)
(1.13149 0.0588187 0)
(1.1189 0.0687442 0)
(1.10283 0.0774023 0)
(1.08322 0.0832262 0)
(1.06052 0.0844899 0)
(1.03785 0.079974 0)
(1.01965 0.0713171 0)
(1.00651 0.0613678 0)
(0.997079 0.0514698 0)
(0.990084 0.0421535 0)
(0.981177 0.0331904 0)
(0.949348 0.0246458 0)
(0.829065 0.0161848 0)
(0.544057 0.0072928 0)
(0.159494 0.00149141 0)
(0.391973 0.00837923 0)
(0.875919 0.0238636 0)
(1.1004 0.0391235 0)
(1.15879 0.0524461 0)
(1.16155 0.0660847 0)
(1.14862 0.0789436 0)
(1.1314 0.0902884 0)
(1.11043 0.0994803 0)
(1.08596 0.10476 0)
(1.05838 0.104523 0)
(1.0314 0.0978536 0)
(1.00998 0.0868522 0)
(0.994529 0.0746891 0)
(0.983325 0.0625786 0)
(0.974738 0.0512032 0)
(0.964141 0.0408717 0)
(0.92979 0.0308159 0)
(0.808132 0.0207323 0)
(0.521711 0.00970579 0)
(0.145637 0.00156635 0)
(0.476893 0.0119372 0)
(0.951143 0.0335927 0)
(1.14734 0.0585637 0)
(1.19105 0.0754877 0)
(1.18729 0.0929282 7.1999e-35)
(1.16757 0.107294 -4.85517e-35)
(1.14429 0.119295 0)
(1.11755 0.127717 0)
(1.08757 0.131312 0)
(1.0548 0.128697 0)
(1.02354 0.119014 0)
(0.998799 0.105106 0)
(0.980747 0.0905934 0)
(0.967446 0.0767636 0)
(0.956993 0.0637929 0)
(0.943781 0.051525 0)
(0.903978 0.0395094 0)
(0.7691 0.0263307 0)
(0.472568 0.0107906 0)
(0.119754 0.00143196 0)
(0.54097 0.0272409 -7.68283e-21)
(1.03669 0.058349 5.14892e-21)
(1.19939 0.0908554 0)
(1.22694 0.111524 8.36876e-22)
(1.21362 0.131652 -6.78156e-22)
(1.18623 0.14564 5.12238e-35)
(1.15647 0.15625 0)
(1.12342 0.162903 4.74364e-21)
(1.08719 0.164301 -1.70102e-20)
(1.04845 0.158765 3.76198e-21)
(1.01181 0.145928 0)
(0.982757 0.129374 -1.23745e-20)
(0.961316 0.112605 -1.5507e-20)
(0.945029 0.0964706 2.72766e-20)
(0.931573 0.081505 -2.19457e-20)
(0.914138 0.0671346 0)
(0.865462 0.0517194 -8.46474e-21)
(0.717893 0.0352148 0)
(0.427677 0.0182733 -4.57943e-20)
(0.102509 0.00271357 5.4361e-20)
(0.565013 0.0542207 -1.8184e-22)
(1.08437 0.103518 -4.61028e-20)
(1.24173 0.143073 1.22078e-20)
(1.25966 0.161025 1.76592e-20)
(1.23714 0.179763 -6.62517e-22)
(1.20288 0.191393 1.78728e-21)
(1.16642 0.20024 0)
(1.12667 0.205097 0)
(1.08399 0.204313 2.65582e-20)
(1.03906 0.196232 0)
(0.996744 0.180932 4.23761e-20)
(0.962755 0.162068 1.32758e-20)
(0.936624 0.143578 3.81466e-22)
(0.916039 0.126506 -3.06166e-20)
(0.898549 0.110687 0)
(0.877451 0.0964663 0)
(0.827811 0.080623 -1.43492e-19)
(0.68886 0.0617963 3.6103e-19)
(0.41646 0.0332848 -2.14569e-19)
(0.104354 0.0101178 -2.55837e-19)
(0.566725 0.0832558 8.05986e-20)
(1.11172 0.162488 -2.3499e-20)
(1.27299 0.207383 -6.17263e-21)
(1.28588 0.221547 -3.38344e-20)
(1.25623 0.236065 1.36037e-20)
(1.21585 0.243547 6.39714e-22)
(1.17295 0.249456 3.80978e-21)
(1.12699 0.251247 0)
(1.07841 0.247318 -5.48004e-20)
(1.02732 0.236095 6.1396e-20)
(0.978884 0.217822 -1.15826e-19)
(0.939641 0.197259 5.65453e-20)
(0.909997 0.178394 -4.19225e-20)
(0.886472 0.161504 9.17512e-20)
(0.866092 0.1464 0)
(0.843001 0.132191 -3.61525e-20)
(0.795345 0.117777 0)
(0.668619 0.093212 2.07469e-19)
(0.417553 0.0571822 -4.92495e-19)
(0.118148 0.0172368 3.09306e-19)
(0.552671 0.114493 -3.78414e-19)
(1.12427 0.222843 1.51166e-19)
(1.29188 0.276468 2.41991e-20)
(1.30346 0.286656 0)
(1.269 0.296996 1.8616e-20)
(1.22385 0.300057 -2.02159e-20)
(1.1757 0.302078 -3.8742e-21)
(1.1246 0.299909 0)
(1.07081 0.292265 3.86111e-20)
(1.01443 0.277711 -4.21073e-20)
(0.961815 0.257011 1.01568e-19)
(0.91945 0.234889 0)
(0.885707 0.214776 -8.81557e-20)
(0.858599 0.197688 4.86035e-20)
(0.836671 0.183176 1.32281e-19)
(0.813629 0.169223 -1.16323e-19)
(0.769545 0.153702 1.93269e-19)
(0.65507 0.126528 -4.30115e-19)
(0.423954 0.0812879 2.73368e-19)
(0.12875 0.0261303 -3.43599e-19)
(0.53324 0.138879 2.32733e-19)
(1.12372 0.27859 -1.71471e-19)
(1.30095 0.344503 7.5607e-20)
(1.31309 0.352184 -1.0404e-19)
(1.27512 0.35937 7.01724e-20)
(1.22662 0.358276 -1.1756e-20)
(1.17462 0.356179 3.72513e-21)
(1.11939 0.349891 -2.42203e-20)
(1.06101 0.338515 -3.8212e-20)
(0.999673 0.32059 -9.01726e-20)
(0.941711 0.296578 -2.18966e-19)
(0.894505 0.272138 -7.38503e-20)
(0.860219 0.251679 2.82217e-21)
(0.833983 0.233876 -1.74471e-19)
(0.811899 0.219146 -6.29031e-21)
(0.789882 0.205184 1.70408e-19)
(0.749761 0.189075 -5.30033e-20)
(0.645318 0.159728 -3.11858e-20)
(0.42588 0.104966 0)
(0.133865 0.034273 7.33398e-19)
(0.513245 0.161161 0)
(1.11479 0.330533 5.29129e-20)
(1.30245 0.409094 3.66548e-20)
(1.31612 0.416136 -1.21035e-20)
(1.2755 0.421295 -8.51935e-20)
(1.22478 0.416296 1.85907e-20)
(1.16994 0.410295 4.49404e-22)
(1.11139 0.400071 4.39211e-20)
(1.04916 0.384913 -2.30178e-20)
(0.984152 0.36309 3.95009e-20)
(0.924157 0.335703 1.18007e-19)
(0.877503 0.309643 1.63527e-19)
(0.840839 0.287008 -1.02094e-19)
(0.811913 0.268149 1.88948e-19)
(0.789581 0.252269 -1.51825e-19)
(0.76843 0.239612 0)
(0.731306 0.221642 -4.06023e-19)
(0.633893 0.191221 5.45878e-19)
(0.423209 0.125988 4.14115e-20)
(0.134302 0.0412352 -7.7251e-19)
(0.496186 0.182015 -5.80954e-21)
(1.10352 0.380075 -3.61113e-19)
(1.29851 0.470442 -2.75927e-19)
(1.3136 0.477306 2.30068e-19)
(1.27092 0.481054 -5.06014e-20)
(1.21894 0.472707 2.77062e-20)
(1.16212 0.463325 -1.20251e-20)
(1.10114 0.449473 -2.48371e-21)
(1.03613 0.430684 -7.96936e-20)
(0.968467 0.405201 1.01876e-21)
(0.905314 0.374959 -1.28235e-19)
(0.854501 0.345003 -1.73904e-19)
(0.81839 0.320817 1.15143e-19)
(0.791547 0.300873 -6.78939e-20)
(0.769107 0.284859 1.65219e-19)
(0.74778 0.270967 0)
(0.712998 0.252227 -2.51477e-19)
(0.619555 0.218084 3.72048e-19)
(0.414577 0.144771 7.13616e-19)
(0.131552 0.0463866 -8.36335e-19)
(0.481376 0.200777 -6.86693e-19)
(1.08921 0.426421 3.4678e-19)
(1.29091 0.528814 2.68534e-19)
(1.30734 0.535636 -2.49311e-19)
(1.26314 0.538044 1.11546e-20)
(1.21035 0.526708 7.40106e-20)
(1.15203 0.514499 3.62894e-23)
(1.08909 0.497438 -1.60133e-20)
(1.02173 0.475368 -4.94082e-20)
(0.95127 0.446459 8.7286e-20)
(0.885512 0.41167 1.20675e-19)
(0.834999 0.379874 2.72482e-19)
(0.79706 0.353469 0)
(0.767798 0.331809 5.40632e-21)
(0.745832 0.313074 -4.59628e-19)
(0.726374 0.299795 1.05511e-19)
(0.694513 0.280313 5.39858e-19)
(0.604649 0.241395 -1.58084e-19)
(0.40256 0.159818 3.38754e-19)
(0.12688 0.0505094 -2.7904e-20)
(0.471251 0.219259 6.51073e-21)
(1.07591 0.470939 3.2082e-19)
(1.28083 0.584575 2.03721e-19)
(1.29819 0.591215 -4.44096e-19)
(1.25277 0.591965 2.83409e-19)
(1.19949 0.577965 -9.10301e-20)
(1.14003 0.563411 -3.53456e-21)
(1.07563 0.543627 3.22849e-20)
(1.00644 0.518675 8.64111e-20)
(0.933854 0.486228 -1.13044e-19)
(0.866588 0.448925 0)
(0.813979 0.413464 -1.07829e-19)
(0.775725 0.38392 1.23796e-19)
(0.748147 0.360721 1.67313e-19)
(0.725994 0.342013 -9.59686e-20)
(0.704961 0.325157 -2.42777e-19)
(0.67218 0.303164 -7.38625e-20)
(0.584711 0.261174 -1.2288e-21)
(0.388891 0.171812 0)
(0.120938 0.0538461 0)
(0.46225 0.23576 -3.38972e-19)
(1.06187 0.512351 0)
(1.26921 0.63696 2.33448e-19)
(1.28757 0.644127 -1.0755e-19)
(1.24124 0.643167 -2.95079e-19)
(1.18742 0.62656 8.1357e-20)
(1.12685 0.609901 -9.73333e-21)
(1.0611 0.587729 -1.32415e-20)
(0.990272 0.560142 5.27268e-20)
(0.915456 0.524602 -4.74079e-20)
(0.844853 0.483349 6.7574e-20)
(0.789438 0.44354 3.36436e-19)
(0.749844 0.411741 1.32252e-20)
(0.720061 0.38536 -1.70571e-19)
(0.699833 0.36395 3.30467e-19)
(0.683018 0.34766 4.46503e-21)
(0.654569 0.325529 7.90244e-20)
(0.568727 0.279312 -3.85539e-19)
(0.374025 0.181817 3.91347e-19)
(0.114324 0.0559495 -4.66733e-19)
(0.456061 0.255625 2.72629e-23)
(1.0493 0.552209 0)
(1.25666 0.686198 0)
(1.27562 0.694314 1.00397e-19)
(1.22853 0.691722 1.15585e-19)
(1.1743 0.672662 -6.82014e-20)
(1.11275 0.654011 4.5309e-20)
(1.04583 0.629723 0)
(0.973368 0.599824 -8.72879e-20)
(0.896018 0.561839 1.65434e-19)
(0.823173 0.517437 2.06936e-19)
(0.768539 0.476119 -1.27101e-19)
(0.730527 0.440992 -1.59773e-19)
(0.704257 0.413439 3.78138e-19)
(0.681236 0.390231 -1.16888e-19)
(0.66 0.36884 -1.4211e-19)
(0.628117 0.343521 -8.71298e-20)
(0.544272 0.292546 -4.18431e-19)
(0.357802 0.189245 5.84252e-20)
(0.106713 0.0571365 5.0726e-19)
(0.452444 0.274605 -1.35453e-19)
(1.03737 0.589362 -2.1338e-19)
(1.24352 0.731954 2.38094e-20)
(1.26306 0.741565 1.68534e-22)
(1.21549 0.737804 3.83463e-20)
(1.1609 0.716494 -1.81963e-19)
(1.09839 0.695943 0)
(1.0303 0.669693 1.20638e-20)
(0.956407 0.637799 -9.51257e-21)
(0.877354 0.597385 2.59232e-19)
(0.803252 0.549944 -5.28602e-20)
(0.74435 0.503611 5.7855e-20)
(0.700792 0.464312 0)
(0.668943 0.431704 -2.06598e-19)
(0.651421 0.405479 2.58069e-19)
(0.636966 0.387294 0)
(0.610529 0.358452 -1.91272e-19)
(0.52637 0.305915 5.59008e-19)
(0.34061 0.194623 6.67711e-20)
(0.0985717 0.0570371 -6.29004e-19)
(0.450258 0.291683 -3.00552e-19)
(1.02662 0.624672 3.85075e-19)
(1.23015 0.774713 0)
(1.24989 0.785717 2.49957e-19)
(1.20194 0.781099 0)
(1.14718 0.758016 1.70803e-19)
(1.08401 0.73581 0)
(1.01505 0.707796 0)
(0.94001 0.674114 -3.07548e-20)
(0.858816 0.631845 -2.53276e-19)
(0.781127 0.582327 -3.84721e-19)
(0.720845 0.533823 7.35862e-20)
(0.681087 0.492713 2.75987e-19)
(0.65556 0.458581 2.32784e-19)
(0.632706 0.4319 -8.28208e-19)
(0.612245 0.402101 -3.43249e-19)
(0.580672 0.374267 1.99414e-19)
(0.499729 0.313826 0)
(0.32199 0.197569 5.78217e-19)
(0.0895829 0.0558299 -6.82963e-19)
(0.448501 0.307502 3.31712e-19)
(1.01601 0.657589 -4.23159e-19)
(1.21673 0.814489 0)
(1.23659 0.826968 -1.0074e-20)
(1.18841 0.821733 -1.02861e-19)
(1.13362 0.797192 0)
(1.06996 0.773574 -1.48143e-20)
(1.00028 0.74404 1.88589e-20)
(0.923944 0.708833 -3.64485e-20)
(0.840615 0.664888 2.41455e-20)
(0.760264 0.612393 0)
(0.697967 0.55963 2.92869e-19)
(0.651824 0.512964 3.78366e-21)
(0.61722 0.473957 1.26597e-19)
(0.598717 0.439028 1.52757e-19)
(0.586284 0.41734 0)
(0.562078 0.38179 -3.38159e-19)
(0.479525 0.320532 6.62931e-19)
(0.302846 0.198182 -7.07147e-19)
(0.0807414 0.0534051 1.4847e-18)
(0.446873 0.322627 0)
(1.00614 0.689146 0)
(1.20356 0.851716 -2.31663e-19)
(1.22321 0.865362 0)
(1.17477 0.859517 0)
(1.12006 0.833883 2.45346e-19)
(1.0561 0.809156 -1.86952e-20)
(0.985797 0.778397 1.67092e-20)
(0.908252 0.741855 -1.47061e-21)
(0.822885 0.696795 0)
(0.740275 0.643029 -6.18865e-20)
(0.67393 0.588803 -2.43067e-19)
(0.627532 0.539589 -3.06317e-19)
(0.600971 0.496477 -1.27659e-19)
(0.579672 0.463078 1.68513e-19)
(0.560214 0.428064 -4.00584e-19)
(0.529916 0.393322 7.32776e-19)
(0.450152 0.323765 8.22092e-21)
(0.282653 0.196464 -6.84498e-19)
(0.071605 0.0501412 -1.01676e-19)
(0.445201 0.337347 0)
(0.996523 0.718819 -3.2905e-19)
(1.19068 0.886542 2.59e-19)
(1.21011 0.901377 0)
(1.16147 0.8949 0)
(1.1068 0.868206 -5.42025e-19)
(1.04256 0.842548 0)
(0.97179 0.810782 0)
(0.893293 0.773232 -5.75765e-20)
(0.80639 0.727209 4.82344e-20)
(0.720769 0.671551 -4.89018e-19)
(0.650074 0.614363 0)
(0.59951 0.562858 -3.32271e-19)
(0.560059 0.514421 1.1745e-20)
(0.540592 0.470351 -5.38209e-19)
(0.530495 0.437044 2.17284e-19)
(0.50813 0.391492 4.28837e-21)
(0.429831 0.322695 -7.85976e-19)
(0.263904 0.192438 3.72804e-19)
(0.0648235 0.0465869 1.08782e-19)
(0.443592 0.351555 0)
(0.987661 0.747188 -3.88295e-19)
(1.17825 0.919204 2.75128e-19)
(1.19722 0.934975 5.78402e-19)
(1.14832 0.927817 1.17618e-19)
(1.09376 0.900243 -8.21007e-20)
(1.02934 0.873796 5.12522e-20)
(0.958217 0.841232 -1.03118e-19)
(0.878771 0.803034 6.15903e-20)
(0.789686 0.756544 2.87829e-19)
(0.700456 0.701106 4.05537e-19)
(0.62669 0.643995 7.85225e-20)
(0.571602 0.58735 4.82957e-19)
(0.541122 0.535006 3.14875e-19)
(0.517418 0.489969 3.88862e-19)
(0.49922 0.440012 -2.43863e-19)
(0.473763 0.399205 -2.90558e-19)
(0.399477 0.319018 3.42451e-19)
(0.24171 0.184091 -2.02881e-19)
(0.0595091 0.0435416 3.56117e-19)
(0.441979 0.365133 5.12882e-19)
(0.979048 0.773608 6.16453e-19)
(1.1662 0.949738 1.50804e-19)
(1.18482 0.966553 1.5973e-20)
(1.13581 0.958755 -4.08181e-19)
(1.0813 0.930258 1.56853e-19)
(1.01672 0.903083 -5.85215e-20)
(0.945349 0.869895 -2.1172e-20)
(0.865162 0.831246 -4.95509e-20)
(0.774874 0.784592 -3.2263e-19)
(0.683878 0.728335 2.38853e-20)
(0.605964 0.667788 0)
(0.547467 0.610117 0)
(0.496972 0.554609 -1.59696e-19)
(0.471923 0.494186 -6.38925e-19)
(0.461965 0.44885 5.29131e-19)
(0.446753 0.380369 3.25225e-19)
(0.383117 0.298982 0)
(0.24026 0.162771 6.46948e-19)
(0.054144 0.0269195 -3.87316e-19)
(0.440422 0.377859 -2.73985e-19)
(0.97107 0.79875 2.36113e-19)
(1.15462 0.978372 -3.36883e-19)
(1.17269 0.995966 -3.63244e-19)
(1.12356 0.987543 -1.60967e-19)
(1.06927 0.958301 3.75576e-20)
(1.00467 0.930534 0)
(0.933142 0.896823 1.48861e-19)
(0.852276 0.857738 1.01071e-20)
(0.760343 0.81105 0)
(0.666014 0.755366 0)
(0.583982 0.696584 5.51247e-20)
(0.517537 0.63724 8.52792e-20)
(0.476923 0.576327 -1.71886e-19)
(0.444782 0.520053 4.62154e-19)
(0.420277 0.445734 -5.82164e-19)
(0.399036 0.378071 -7.01442e-19)
(0.355841 0.277778 6.24015e-19)
(0.258078 0.170891 -2.33598e-19)
(0.132008 0.0999787 1.33816e-19)
(0.43862 0.389671 3.16335e-19)
(0.963087 0.821841 0)
(1.14341 1.00496 0)
(1.16117 1.0235 -1.22451e-19)
(1.11207 1.01456 9.9104e-20)
(1.05797 0.984583 -2.06308e-20)
(0.993312 0.956259 -2.23159e-19)
(0.921641 0.922073 -2.28268e-19)
(0.840208 0.882879 3.76212e-20)
(0.747136 0.836436 -2.61867e-20)
(0.64991 0.781454 6.38601e-20)
(0.561923 0.722235 -4.49839e-19)
(0.493953 0.663154 -4.98503e-19)
(0.429925 0.601086 -9.14373e-20)
(0.387489 0.528122 0)
(0.366196 0.459866 -1.34797e-20)
(0.35177 0.337331 3.84284e-19)
(0.317651 0.186567 -6.56263e-19)
(0.285348 0.0167151 4.85172e-19)
(0.0870716 -0.0759251 3.87474e-19)
(0.436783 0.400804 -6.89712e-19)
(0.955648 0.843982 -2.96446e-19)
(1.13256 1.03007 5.91451e-21)
(1.14977 1.04929 1.55666e-19)
(1.10069 1.03988 0)
(1.04686 1.00941 4.6614e-19)
(0.982293 0.980769 2.78209e-19)
(0.910602 0.94636 -4.57004e-20)
(0.828617 0.907255 -5.22868e-21)
(0.734266 0.861273 -2.44683e-20)
(0.635338 0.807552 2.27267e-20)
(0.547075 0.751639 3.97801e-19)
(0.466078 0.693197 4.87504e-19)
(0.410404 0.627677 8.78905e-20)
(0.359703 0.566179 4.87674e-19)
(0.305047 0.464155 0)
(0.213614 0.343636 0)
(0.0680249 0.322262 4.8672e-19)
(-0.0563957 0.633102 -3.29858e-20)
(-0.00173875 1.47719 -6.27636e-19)
(0.43454 0.411372 3.75066e-19)
(0.948096 0.864263 8.88498e-19)
(1.12201 1.0535 -1.33465e-18)
(1.13892 1.07372 8.04813e-19)
(1.0899 1.06407 -9.44173e-20)
(1.03625 1.03325 6.07882e-19)
(0.971646 1.00447 0)
(0.899926 0.970106 2.35722e-19)
(0.817539 0.931394 0)
(0.72214 0.886504 2.2028e-19)
(0.619602 0.83418 -3.64495e-20)
(0.521241 0.779238 4.08687e-20)
(0.443064 0.72425 5.36807e-19)
(0.359036 0.669108 -1.99688e-19)
(0.275659 0.592159 -2.56565e-19)
(0.208159 0.531655 0)
(0.112908 0.617244 0)
(0.0486133 1.21224 0)
(0.0836449 2.40731 -2.74218e-19)
(0.116076 2.88351 -1.6991e-19)
(0.432281 0.421587 0)
(0.94119 0.883895 0)
(1.11183 1.07579 4.77426e-19)
(1.1282 1.09668 -6.7091e-19)
(1.07918 1.08683 4.61201e-19)
(1.02582 1.05589 -5.57242e-19)
(0.961349 1.0272 -3.22737e-20)
(0.88966 0.993023 2.51288e-20)
(0.806846 0.95503 4.30197e-21)
(0.710211 0.911267 -2.50027e-19)
(0.607076 0.861407 5.4636e-20)
(0.512277 0.812869 3.69548e-19)
(0.414636 0.763171 -5.28634e-19)
(0.340397 0.698825 -6.21122e-19)
(0.277405 0.657113 2.17554e-19)
(0.213839 0.771733 0)
(0.155238 1.46292 3.14212e-19)
(0.156117 2.6557 3.56493e-19)
(0.158664 3.07549 -3.98956e-19)
(0.149876 3.21724 4.46209e-19)
(0.42977 0.430694 0)
(0.934076 0.901525 7.2194e-19)
(1.10197 1.09643 -1.23731e-19)
(1.11813 1.11838 8.44042e-19)
(1.06917 1.1085 -4.841e-19)
(1.01597 1.07749 0)
(0.951483 1.04899 0)
(0.879878 1.01524 0)
(0.796855 0.978197 -8.69764e-20)
(0.69984 0.936151 1.02115e-21)
(0.593741 0.889077 0)
(0.489161 0.84076 -3.60169e-19)
(0.408698 0.796002 0)
(0.30022 0.758361 4.41764e-19)
(0.22357 0.836386 -2.84956e-19)
(0.178624 1.42431 -2.39803e-19)
(0.191472 2.64655 -5.92217e-19)
(0.210052 3.12425 -2.93745e-19)
(0.198769 3.27475 -3.32193e-19)
(0.183456 3.31668 2.95893e-19)
(0.427404 0.43924 -2.43965e-19)
(0.92765 0.918739 1.47262e-20)
(1.09252 1.11619 -1.33302e-19)
(1.10818 1.13881 -6.75567e-19)
(1.0592 1.12891 0)
(1.00628 1.09805 0)
(0.941952 1.06994 0)
(0.870516 1.03677 -1.63444e-20)
(0.787366 1.0009 1.0029e-19)
(0.689622 0.960919 0)
(0.58222 0.917474 0)
(0.480445 0.878601 0)
(0.369474 0.841402 0)
(0.306692 0.840772 2.86509e-19)
(0.295739 1.17443 7.48882e-19)
(0.289134 2.30542 2.34603e-19)
(0.301902 3.07759 4.21004e-19)
(0.292211 3.29587 -2.60168e-19)
(0.240019 3.36632 9.62642e-20)
(0.205104 3.37941 0)
(0.424748 0.447091 2.47193e-19)
(0.920681 0.934322 -1.55646e-18)
(1.08313 1.13487 -4.40166e-19)
(1.09869 1.15865 -1.0753e-19)
(1.04979 1.1489 1.23595e-19)
(0.997062 1.11815 -8.73495e-19)
(0.932803 1.09045 5.93263e-20)
(0.861588 1.0579 4.14676e-19)
(0.778518 1.02332 0)
(0.680759 0.985374 -1.39394e-20)
(0.572931 0.944219 1.26807e-20)
(0.469756 0.903223 0)
(0.388881 0.882427 0)
(0.34055 1.00329 -3.54362e-19)
(0.310706 1.80533 -6.76868e-21)
(0.307635 2.91294 -1.18149e-19)
(0.325225 3.29767 1.82499e-19)
(0.297327 3.40595 4.74949e-20)
(0.228188 3.43407 1.34255e-19)
(0.20111 3.44261 -6.86586e-20)
(0.421893 0.455173 4.7617e-19)
(0.913847 0.951239 1.48849e-18)
(1.07331 1.15447 5.41261e-19)
(1.08847 1.17885 0)
(1.03963 1.1691 0)
(0.987299 1.13853 6.69223e-19)
(0.923305 1.11124 -4.15284e-19)
(0.852502 1.07938 -3.8108e-19)
(0.769625 1.04612 -1.53248e-20)
(0.671931 1.01084 1.49845e-20)
(0.563631 0.975431 -2.43328e-19)
(0.453636 0.947327 0)
(0.373348 0.961429 0)
(0.353795 1.31925 -1.90864e-19)
(0.375216 2.39866 -2.50398e-19)
(0.418673 3.19671 0)
(0.446545 3.39367 1.11962e-19)
(0.375965 3.46237 2.268e-19)
(0.297079 3.50699 -5.10937e-19)
(0.270073 3.53305 2.94629e-19)
(0.418211 0.463099 -9.03148e-19)
(0.905467 0.967561 -7.08111e-19)
(1.06255 1.17438 0)
(1.07782 1.19994 0)
(1.02925 1.19028 0)
(0.977245 1.15961 0)
(0.913591 1.13264 4.43679e-19)
(0.843282 1.10128 -4.89657e-19)
(0.760986 1.06922 0)
(0.663798 1.03602 -7.92351e-21)
(0.556297 1.00165 3.94632e-19)
(0.459174 0.974767 2.10814e-20)
(0.410671 1.05067 3.65151e-20)
(0.42572 1.6949 2.75453e-19)
(0.453243 2.8573 -6.31139e-20)
(0.487791 3.33421 0)
(0.469338 3.4718 -8.72074e-20)
(0.37527 3.56175 1.06697e-19)
(0.28297 3.63779 3.70554e-19)
(0.204907 3.62025 -3.26375e-19)
(0.414163 0.471622 4.28024e-19)
(0.897043 0.986285 -6.958e-19)
(1.0509 1.19601 0)
(1.06588 1.22185 -1.72707e-19)
(1.01754 1.21198 6.55875e-19)
(0.966187 1.18129 0)
(0.903074 1.15447 0)
(0.83369 1.12359 9.1508e-19)
(0.752124 1.09271 1.60326e-20)
(0.656348 1.06196 -1.01465e-19)
(0.54765 1.03501 -1.63204e-19)
(0.454482 1.03099 1.32119e-19)
(0.424191 1.22543 0)
(0.464662 2.07944 -1.25825e-19)
(0.519874 3.12101 1.10533e-19)
(0.580414 3.4436 -5.63171e-20)
(0.576277 3.5559 0)
(0.498982 3.66421 -2.14563e-19)
(0.419001 3.71207 -8.06485e-19)
(0.33234 3.68366 -2.03205e-19)
(0.408886 0.479662 -8.29946e-19)
(0.88649 1.00384 9.9015e-19)
(1.03804 1.21777 7.3574e-19)
(1.05343 1.2447 -1.90669e-19)