/*--------------------------------*- C++ -*----------------------------------*\
  =========                 |
  \\      /  F ield         | OpenFOAM: The Open Source CFD Toolbox
   \\    /   O peration     | Website:  https://openfoam.org
    \\  /    A nd           | Version:  9
     \\/     M anipulation  |
\*---------------------------------------------------------------------------*/
FoamFile
{
    format      ascii;
    class       volScalarField;
    location    "20";
    object      p;
}
// * * * * * * * * * * * * * * * * * * * * * * * * * * * * * * * * * * * * * //

dimensions      [0 2 -2 0 0 0 0];

internalField   nonuniform List<scalar> 
2200
(
0.400162
0.378673
0.36278
0.347131
0.332562
0.320083
0.309752
0.301643
0.295899
0.292923
0.293216
0.296732
0.302872
0.311262
0.321792
0.334416
0.34908
0.364793
0.380724
0.402231
0.332548
0.329295
0.326395
0.32232
0.316902
0.310475
0.303917
0.297991
0.293463
0.290992
0.291291
0.29434
0.299273
0.305507
0.312283
0.318858
0.324388
0.328531
0.331468
0.33474
0.292615
0.292854
0.294945
0.296312
0.296733
0.29593
0.29399
0.291384
0.288889
0.287275
0.287627
0.289836
0.292788
0.295727
0.297906
0.298876
0.298574
0.297327
0.295335
0.295111
0.270044
0.271527
0.274174
0.276677
0.279201
0.281299
0.28246
0.282685
0.282275
0.281836
0.282233
0.283351
0.284282
0.284442
0.283566
0.281679
0.2793
0.276905
0.274315
0.272854
0.25563
0.257574
0.260495
0.263486
0.266465
0.269376
0.271904
0.273819
0.274954
0.275539
0.276015
0.276241
0.275716
0.274251
0.272054
0.269383
0.26657
0.263669
0.260807
0.258882
0.248609
0.250159
0.252421
0.255042
0.257778
0.260491
0.26312
0.265625
0.267672
0.269061
0.269613
0.269194
0.267895
0.265948
0.263708
0.261283
0.258759
0.256277
0.254091
0.252547
0.245673
0.246685
0.248007
0.249937
0.25214
0.254318
0.25641
0.258554
0.260656
0.26238
0.263026
0.262477
0.261289
0.259825
0.258215
0.256393
0.254446
0.252694
0.25146
0.250449
0.24329
0.243926
0.244724
0.246354
0.248281
0.250168
0.251934
0.253647
0.255354
0.256867
0.257693
0.257635
0.257052
0.25616
0.254989
0.253514
0.251889
0.250456
0.249753
0.249118
0.240659
0.240953
0.241596
0.243212
0.245092
0.24701
0.248859
0.250567
0.252128
0.253495
0.254537
0.254955
0.254753
0.254076
0.25294
0.251555
0.250031
0.248663
0.24812
0.24783
0.238342
0.238443
0.238963
0.240289
0.241876
0.243631
0.245515
0.247422
0.249223
0.250807
0.252073
0.252676
0.25252
0.251876
0.250927
0.249854
0.248709
0.247686
0.24729
0.247202
0.236097
0.236073
0.236444
0.237252
0.238303
0.239593
0.241146
0.242967
0.24497
0.246961
0.248566
0.249429
0.249572
0.249274
0.248874
0.248325
0.247793
0.247328
0.24713
0.247125
0.233164
0.233108
0.233364
0.233873
0.234637
0.235628
0.23683
0.238394
0.240314
0.242528
0.244564
0.245976
0.246851
0.247206
0.247238
0.247192
0.247136
0.247045
0.246987
0.246988
0.229749
0.229698
0.229955
0.230412
0.231191
0.232191
0.233439
0.235085
0.237064
0.239472
0.241928
0.243861
0.245221
0.246043
0.246507
0.24679
0.246871
0.246882
0.246871
0.246874
0.225957
0.225941
0.226183
0.226685
0.227547
0.228696
0.230236
0.232188
0.234572
0.23747
0.240482
0.242884
0.24452
0.245681
0.246488
0.246939
0.247133
0.247225
0.247253
0.247255
0.221528
0.221523
0.221727
0.222245
0.223101
0.224304
0.226016
0.228296
0.231232
0.234875
0.238719
0.241835
0.244023
0.245579
0.246663
0.247345
0.247758
0.247999
0.248092
0.248082
0.216106
0.216083
0.216328
0.216885
0.217789
0.219086
0.220959
0.223546
0.227046
0.231536
0.236421
0.240489
0.243449
0.245534
0.24703
0.248034
0.248699
0.249108
0.249277
0.249261
0.209739
0.209701
0.209992
0.210612
0.21167
0.213257
0.215521
0.218657
0.222904
0.228398
0.234468
0.239634
0.243441
0.246164
0.248099
0.249409
0.250267
0.250766
0.250976
0.25095
0.202134
0.202103
0.202482
0.203318
0.204683
0.206697
0.209556
0.213514
0.218831
0.225673
0.233187
0.239597
0.244303
0.24767
0.250016
0.251601
0.252642
0.25325
0.253511
0.253483
0.193216
0.193169
0.193628
0.194681
0.196409
0.198957
0.202576
0.207572
0.214275
0.222851
0.232174
0.240057
0.245833
0.249964
0.252851
0.254828
0.256114
0.256852
0.257159
0.257116
0.182299
0.182265
0.182891
0.184255
0.186458
0.189682
0.194273
0.200625
0.209087
0.219822
0.231372
0.241058
0.24815
0.253221
0.256753
0.25917
0.260761
0.261685
0.262072
0.262018
0.169167
0.169092
0.16987
0.171589
0.17442
0.178608
0.184536
0.192656
0.203363
0.216756
0.230958
0.242774
0.251407
0.25758
0.261916
0.264899
0.266859
0.267992
0.268447
0.268369
0.152585
0.152598
0.153717
0.156009
0.159764
0.165305
0.173056
0.183563
0.19716
0.213803
0.231153
0.24546
0.255902
0.263375
0.268619
0.272232
0.274611
0.275977
0.276535
0.276444
0.131645
0.131601
0.133129
0.136369
0.141569
0.149135
0.159541
0.173278
0.190527
0.211089
0.232094
0.249234
0.261703
0.270659
0.277004
0.281414
0.284361
0.286068
0.286723
0.28657
0.104099
0.104382
0.106828
0.111518
0.118971
0.129687
0.143812
0.161749
0.183505
0.208683
0.233838
0.254147
0.26891
0.27957
0.28722
0.29261
0.296202
0.298239
0.299038
0.298859
0.0672807
0.0678229
0.0718958
0.0796775
0.09112
0.106567
0.1258
0.149153
0.176345
0.206822
0.236596
0.260362
0.277634
0.290199
0.299304
0.305844
0.310361
0.313014
0.314005
0.313675
0.0179579
0.0185425
0.0262677
0.0395806
0.0576043
0.0797948
0.105898
0.135936
0.169448
0.205842
0.240539
0.267911
0.287817
0.302451
0.313281
0.321242
0.326815
0.329996
0.330991
0.330561
-0.0489105
-0.0454683
-0.0289157
-0.00643349
0.0203754
0.0509042
0.0849397
0.122415
0.162968
0.206005
0.246299
0.278052
0.301464
0.318991
0.332263
0.342399
0.349975
0.354358
0.355586
0.355368
-0.12694
-0.114913
-0.0865842
-0.0540777
-0.0176039
0.0216815
0.0638553
0.10908
0.157057
0.207184
0.253844
0.290778
0.318294
0.339402
0.355928
0.368923
0.379227
0.385863
0.388903
0.38935
-0.193049
-0.176371
-0.140753
-0.0999548
-0.054545
-0.00677441
0.0435363
0.096522
0.151745
0.208676
0.261249
0.302774
0.333867
0.357851
0.376796
0.39178
0.403299
0.411334
0.414585
0.4148
-0.242163
-0.227486
-0.186827
-0.14041
-0.0881444
-0.0332451
0.0243895
0.0844722
0.146391
0.209683
0.267679
0.313243
0.347211
0.37314
0.393391
0.409256
0.42143
0.429378
0.432654
0.433038
-0.282524
-0.268602
-0.22497
-0.175146
-0.117732
-0.057139
0.00661895
0.0728423
0.140859
0.210139
0.273177
0.322174
0.358072
0.385056
0.405642
0.421558
0.433875
0.441977
0.445533
0.445926
-0.317246
-0.303088
-0.257333
-0.205141
-0.143684
-0.0785811
-0.00980356
0.0617129
0.135229
0.209808
0.27705
0.328493
0.365746
0.393403
0.41446
0.430708
0.443069
0.451329
0.455074
0.455463
-0.347684
-0.333492
-0.285824
-0.231374
-0.166637
-0.0979783
-0.0250621
0.0509901
0.129265
0.208392
0.279348
0.333369
0.372034
0.400545
0.421872
0.438148
0.450566
0.458916
0.462691
0.462829
-0.375131
-0.361001
-0.311562
-0.25475
-0.187261
-0.11579
-0.0394561
0.0404495
0.122838
0.206201
0.280999
0.337548
0.377517
0.406738
0.428663
0.445159
0.457448
0.465881
0.469309
0.469402
-0.40024
-0.386275
-0.33543
-0.276286
-0.206305
-0.132447
-0.0532425
0.0299639
0.116065
0.203435
0.281992
0.341068
0.382866
0.413071
0.435283
0.451787
0.463966
0.472167
0.475749
0.475957
-0.423918
-0.409575
-0.357965
-0.296804
-0.22449
-0.148395
-0.0666269
0.0194816
0.108928
0.200068
0.282394
0.344714
0.388354
0.419311
0.441938
0.458599
0.470785
0.478903
0.482399
0.482651
-0.446145
-0.431588
-0.379444
-0.316706
-0.242333
-0.164039
-0.0798309
0.00892811
0.101435
0.196304
0.282629
0.347914
0.393128
0.42534
0.448603
0.465557
0.477824
0.485674
0.489322
0.489569
-0.467126
-0.452658
-0.400065
-0.336056
-0.260002
-0.179622
-0.093082
-0.00182561
0.0935759
0.19194
0.282
0.350267
0.398195
0.431779
0.455658
0.472818
0.485182
0.4931
0.496518
0.496707
-0.487385
-0.472766
-0.419882
-0.35484
-0.277481
-0.195259
-0.106567
-0.0129544
0.0851064
0.18654
0.280159
0.352102
0.402783
0.438216
0.463074
0.480652
0.492971
0.500545
0.503882
0.504034
-0.507385
-0.49217
-0.438976
-0.373011
-0.294657
-0.210928
-0.120376
-0.0246686
0.0757351
0.180016
0.277354
0.353193
0.406975
0.444795
0.470932
0.488905
0.501157
0.50862
0.51161
0.511605
-0.527078
-0.511059
-0.457503
-0.390607
-0.311425
-0.22652
-0.134474
-0.0369809
0.0655672
0.172689
0.273729
0.353375
0.41093
0.451703
0.479662
0.498161
0.510026
0.516607
0.519356
0.519221
-0.546285
-0.529536
-0.475541
-0.407697
-0.327752
-0.241907
-0.148664
-0.0496526
0.0548584
0.16448
0.268583
0.352169
0.413945
0.458339
0.489004
0.508551
0.519846
0.52546
0.527258
0.526886
-0.564845
-0.547592
-0.493129
-0.424344
-0.343636
-0.256974
-0.162732
-0.0624502
0.0437002
0.155312
0.262166
0.349928
0.415879
0.464694
0.499014
0.520951
0.531885
0.534403
0.53392
0.533989
-0.582747
-0.565144
-0.510216
-0.440559
-0.359104
-0.271674
-0.176577
-0.0752771
0.0321774
0.145541
0.255076
0.346478
0.416739
0.470281
0.509413
0.535218
0.547357
0.546788
0.541602
0.539039
-0.599965
-0.582081
-0.526721
-0.456307
-0.374165
-0.286021
-0.190175
-0.0880718
0.0204261
0.135228
0.246521
0.340347
0.414968
0.474253
0.519697
0.55164
0.569291
0.564105
0.557184
0.562061
-0.616508
-0.598348
-0.542568
-0.471516
-0.388794
-0.300031
-0.203562
-0.100823
0.00843091
0.124211
0.236884
0.333278
0.411734
0.475901
0.527896
0.568119
0.596306
0.58498
0.540587
0.492493
-0.632306
-0.613939
-0.557777
-0.486233
-0.40309
-0.313876
-0.216969
-0.1138
-0.0040224
0.112501
0.226259
0.324005
0.40487
0.473966
0.532759
0.583368
0.626863
0.647195
0.670169
0.720495
-0.647325
-0.628923
-0.572436
-0.500573
-0.417204
-0.327765
-0.230656
-0.127306
-0.0173358
0.0994031
0.213431
0.311541
0.393945
0.466082
0.527442
0.578327
0.613678
0.626335
0.605033
0.611325
-0.661528
-0.643265
-0.586515
-0.514476
-0.431022
-0.341553
-0.244455
-0.141191
-0.031413
0.0850886
0.198918
0.296827
0.378014
0.448681
0.507772
0.552136
0.559269
0.523824
0.470963
0.463621
-0.674962
-0.656972
-0.600022
-0.527945
-0.444523
-0.355199
-0.258306
-0.155376
-0.0461279
0.069633
0.182515
0.278194
0.355948
0.420738
0.472487
0.490428
0.461796
0.394625
0.324485
0.315316
-0.687667
-0.67004
-0.612983
-0.541009
-0.45772
-0.368688
-0.272167
-0.169822
-0.0614925
0.0528785
0.163814
0.2571
0.328429
0.380144
0.407655
0.398113
0.351842
0.251712
0.16478
0.149061
-0.700087
-0.682884
-0.62579
-0.554035
-0.470966
-0.382327
-0.286318
-0.18477
-0.0776178
0.0349576
0.143401
0.232319
0.296215
0.332642
0.325638
0.289067
0.184424
0.0613788
-0.0469214
-0.0693524
-0.713085
-0.696247
-0.639114
-0.567631
-0.484829
-0.396597
-0.301159
-0.200509
-0.0947841
0.0154237
0.120343
0.203626
0.261205
0.274306
0.232699
0.144051
-0.0171259
-0.17255
-0.301585
-0.326388
-0.727143
-0.710557
-0.65325
-0.582018
-0.499489
-0.411628
-0.31679
-0.217151
-0.113033
-0.00549534
0.0953391
0.172781
0.218715
0.204458
0.137508
-0.0178833
-0.230412
-0.453027
-0.638607
-0.685066
-0.74231
-0.725848
-0.668241
-0.597202
-0.514912
-0.427388
-0.333174
-0.234597
-0.132199
-0.0277314
0.0679542
0.140434
0.171171
0.122932
0.020687
-0.18555
-0.438843
-0.75012
-1.08968
-1.23087
-0.758643
-0.742242
-0.684169
-0.613245
-0.53113
-0.443916
-0.350336
-0.252905
-0.152398
-0.0512354
0.0383409
0.104719
0.119454
0.0339475
-0.121179
-0.355406
-0.620142
-0.999451
-1.62485
-2.21658
-0.776134
-0.759741
-0.701083
-0.63018
-0.548129
-0.461178
-0.368225
-0.271958
-0.173313
-0.0753907
0.00825249
0.0674224
0.064524
-0.0477435
-0.260606
-0.534199
-0.774689
-1.05386
-1.67944
-3.32937
-0.794811
-0.778393
-0.719045
-0.648115
-0.566037
-0.479323
-0.38699
-0.291907
-0.195304
-0.100957
-0.0234571
0.0266869
0.00504591
-0.115531
-0.371792
-0.658892
-0.845575
-0.919862
-0.953913
-1.37684
-0.814622
-0.798167
-0.738211
-0.667301
-0.585177
-0.498752
-0.407168
-0.31352
-0.219293
-0.128765
-0.0567051
-0.016816
-0.0603773
-0.16791
-0.430073
-0.68866
-0.839633
-0.870632
-0.828095
-0.877144
-0.835545
-0.818922
-0.758575
-0.687784
-0.605582
-0.519547
-0.428825
-0.336676
-0.245051
-0.158974
-0.0922883
-0.0614829
-0.118632
-0.223728
-0.478438
-0.687661
-0.800268
-0.82721
-0.865966
-0.882155
-0.857386
-0.840398
-0.780069
-0.709547
-0.627172
-0.541632
-0.451868
-0.361426
-0.272834
-0.191685
-0.129431
-0.108645
-0.173884
-0.288313
-0.517683
-0.688486
-0.780892
-0.755797
-0.783642
-0.783939
-0.879838
-0.862555
-0.802626
-0.732467
-0.649759
-0.564888
-0.476217
-0.387566
-0.302114
-0.225869
-0.168136
-0.15695
-0.223468
-0.357623
-0.563374
-0.696464
-0.765716
-0.780994
-0.780976
-0.789543
-0.902417
-0.885027
-0.826182
-0.75622
-0.673063
-0.589032
-0.501445
-0.414478
-0.332122
-0.260692
-0.207337
-0.209351
-0.272835
-0.431634
-0.61139
-0.72227
-0.746862
-0.798307
-0.772556
-0.78116
-0.924903
-0.907679
-0.85013
-0.780206
-0.696738
-0.613665
-0.52719
-0.442009
-0.362929
-0.296168
-0.2462
-0.259139
-0.327366
-0.4956
-0.646589
-0.758826
-0.75597
-0.787843
-0.768372
-0.769387
-0.946721
-0.929963
-0.873471
-0.803723
-0.720426
-0.638429
-0.552878
-0.469209
-0.393269
-0.330678
-0.284189
-0.304251
-0.391794
-0.564781
-0.673151
-0.75601
-0.772764
-0.750569
-0.766729
-0.764654
-0.967374
-0.951341
-0.895675
-0.826053
-0.743761
-0.662487
-0.577605
-0.495246
-0.421901
-0.363872
-0.319085
-0.338156
-0.46501
-0.653503
-0.682667
-0.621175
-0.669572
-0.690188
-0.721618
-0.727892
-0.985769
-0.970696
-0.915987
-0.846597
-0.766189
-0.685119
-0.600684
-0.519617
-0.447424
-0.393395
-0.352742
-0.358701
-0.527525
-0.755698
-0.786519
-0.696107
-0.740946
-0.754932
-0.780656
-0.777814
-1.0012
-0.9874
-0.934121
-0.865222
-0.786497
-0.705093
-0.621035
-0.541231
-0.468505
-0.415921
-0.386224
-0.368799
-0.583054
-0.904402
-1.17836
-1.2796
-1.30621
-1.26609
-1.22707
-1.192
-1.0124
-1.00011
-0.949058
-0.881105
-0.80315
-0.721408
-0.638004
-0.558748
-0.484802
-0.429
-0.412587
-0.374845
-0.620389
-1.03211
-1.60834
-2.0318
-2.14001
-2.09179
-1.93829
-1.83653
-1.01861
-1.00801
-0.95969
-0.89256
-0.814932
-0.733572
-0.650357
-0.570518
-0.495087
-0.432091
-0.417108
-0.374023
-0.591046
-0.976712
-1.48514
-1.87189
-1.90699
-1.8122
-1.67433
-1.59336
-1.01852
-1.00954
-0.964516
-0.898592
-0.82136
-0.740501
-0.656958
-0.574937
-0.496679
-0.424723
-0.39541
-0.338465
-0.451812
-0.529353
-0.607895
-0.637206
-0.56329
-0.468945
-0.38141
-0.290643
-1.01056
-1.00298
-0.962044
-0.897556
-0.821045
-0.740778
-0.656862
-0.572131
-0.489539
-0.403167
-0.348324
-0.247988
-0.168933
0.0697483
0.341284
0.563464
0.751814
0.891299
0.968872
0.997745
-0.993212
-0.986562
-0.951374
-0.889597
-0.814328
-0.7342
-0.650106
-0.562924
-0.474964
-0.37141
-0.281556
-0.160831
0.0898798
0.477296
0.9113
1.27012
1.53032
1.68605
1.75326
1.77081
-0.964008
-0.957945
-0.930155
-0.872444
-0.800052
-0.7213
-0.638059
-0.549072
-0.456148
-0.342758
-0.222169
-0.123161
0.159405
0.561073
0.996977
1.36023
1.63243
1.79212
1.85874
1.87494
-0.92339
-0.919334
-0.898969
-0.846921
-0.778371
-0.702766
-0.622649
-0.53489
-0.439473
-0.330121
-0.193412
-0.115766
0.108757
0.449713
0.811767
1.11821
1.36182
1.5119
1.58086
1.602
-0.875322
-0.874682
-0.859938
-0.814035
-0.750961
-0.680502
-0.605301
-0.524137
-0.431279
-0.331382
-0.197125
-0.0953217
0.0605266
0.292983
0.564496
0.790987
0.972292
1.09494
1.15674
1.17917
-0.815527
-0.817477
-0.805407
-0.767981
-0.714452
-0.653539
-0.588279
-0.519975
-0.439767
-0.347084
-0.215236
-0.0913655
0.00767166
0.171094
0.374675
0.534072
0.658063
0.748903
0.792736
0.807693
-0.735487
-0.737409
-0.729577
-0.704496
-0.665514
-0.619907
-0.570276
-0.517417
-0.452801
-0.372126
-0.250787
-0.12854
-0.0551132
0.0764218
0.230362
0.34245
0.434605
0.499062
0.527688
0.534456
-0.656431
-0.656572
-0.651691
-0.638078
-0.613561
-0.583638
-0.55038
-0.512301
-0.464831
-0.413499
-0.31126
-0.202426
-0.118325
-0.019423
0.0894494
0.171414
0.240663
0.286326
0.306842
0.307814
-0.596159
-0.596078
-0.592978
-0.58611
-0.573222
-0.556949
-0.539772
-0.520468
-0.502042
-0.478611
-0.412972
-0.316096
-0.214004
-0.134627
-0.0498978
0.0151125
0.072577
0.114146
0.134591
0.140428
-0.55976
-0.559671
-0.558821
-0.55677
-0.552391
-0.547735
-0.54635
-0.55021
-0.569588
-0.585786
-0.588022
-0.498306
-0.374179
-0.278213
-0.18733
-0.119567
-0.0634149
-0.0212864
-0.00756959
-0.00152737
-0.539629
-0.540266
-0.5412
-0.542454
-0.544814
-0.550488
-0.564612
-0.594286
-0.656064
-0.736227
-0.837931
-0.755711
-0.598637
-0.48366
-0.346165
-0.242117
-0.170795
-0.142256
-0.132343
-0.131571
-0.520689
-0.522188
-0.524624
-0.529237
-0.536476
-0.550869
-0.579394
-0.633209
-0.741221
-0.915769
-1.12287
-1.03908
-0.855332
-0.672419
-0.500512
-0.376799
-0.306552
-0.27278
-0.260724
-0.263662
-0.490104
-0.492169
-0.495114
-0.501959
-0.514122
-0.534643
-0.573878
-0.633925
-0.773197
-0.983797
-1.31506
-1.19908
-0.992503
-0.773942
-0.591604
-0.481729
-0.41946
-0.391252
-0.384174
-0.38535
-0.44129
-0.443274
-0.446353
-0.451857
-0.46368
-0.48495
-0.523657
-0.594898
-0.732675
-0.958415
-1.20711
-1.11947
-0.913441
-0.719058
-0.596918
-0.527004
-0.477911
-0.472213
-0.468433
-0.467932
-0.374334
-0.376005
-0.378956
-0.383328
-0.392182
-0.409705
-0.442578
-0.503682
-0.617725
-0.796115
-0.952969
-0.856535
-0.700997
-0.611294
-0.554339
-0.506858
-0.497008
-0.494822
-0.492545
-0.490978
-0.294531
-0.295657
-0.297686
-0.301108
-0.307035
-0.318782
-0.340979
-0.383019
-0.459783
-0.574603
-0.668537
-0.564244
-0.478436
-0.451113
-0.449504
-0.448525
-0.452922
-0.453203
-0.452746
-0.451028
-0.212088
-0.212651
-0.213622
-0.215053
-0.217916
-0.224123
-0.235766
-0.258094
-0.298264
-0.356645
-0.402128
-0.327964
-0.302899
-0.301783
-0.311197
-0.347734
-0.35786
-0.36396
-0.365377
-0.364819
-0.137272
-0.137427
-0.137688
-0.137713
-0.13804
-0.139538
-0.142621
-0.149145
-0.159972
-0.169624
-0.161411
-0.165077
-0.182928
-0.199975
-0.225215
-0.253655
-0.261631
-0.267766
-0.270363
-0.271125
-0.0762789
-0.0761958
-0.0760933
-0.0754469
-0.0744328
-0.0732039
-0.0712235
-0.0685858
-0.0637702
-0.0472922
-0.0312402
-0.0585659
-0.0969473
-0.126368
-0.155321
-0.174025
-0.182284
-0.187675
-0.190046
-0.190786
-0.0307994
-0.0306307
-0.0304686
-0.0298128
-0.0286251
-0.0267128
-0.0231056
-0.0174277
-0.00867354
0.00725152
0.0235779
-0.00906016
-0.0467165
-0.0743724
-0.0997968
-0.113947
-0.121237
-0.125662
-0.127574
-0.12823
0.000216724
0.000381724
0.000428231
0.000703029
0.00145607
0.00283821
0.00595096
0.0111823
0.0191193
0.0303149
0.0398948
0.0113203
-0.0188099
-0.0409308
-0.0606382
-0.0714671
-0.0776816
-0.0807043
-0.0822571
-0.0828393
0.0191736
0.0193035
0.0192159
0.0190268
0.0192312
0.019835
0.0216938
0.025115
0.0305198
0.0372342
0.0410373
0.0200056
-0.00306366
-0.0201058
-0.0342252
-0.0419925
-0.0479007
-0.0502711
-0.051373
-0.0517436
0.028954
0.0290392
0.0288789
0.0284284
0.0282392
0.0282714
0.0290403
0.0306806
0.033454
0.0364507
0.0362543
0.0216828
0.00475205
-0.00781883
-0.0178416
-0.0237926
-0.0273637
-0.0289495
-0.0297427
-0.0300998
0.0325336
0.0325814
0.032404
0.0318749
0.031473
0.0311712
0.0312521
0.0317063
0.0325973
0.0330268
0.0305633
0.0202569
0.00817659
-0.000709025
-0.00754846
-0.0116265
-0.0139982
-0.0152409
-0.0158766
-0.0160797
0.0322483
0.0322739
0.0320979
0.031571
0.0310473
0.0305361
0.0301923
0.0299743
0.0298183
0.0289067
0.0256171
0.0180324
0.00952523
0.00328278
-0.0014313
-0.0043327
-0.00607826
-0.00699629
-0.00743617
-0.00758348
0.0296025
0.0296173
0.0294423
0.0289356
0.0283489
0.0277096
0.0270909
0.0264885
0.025803
0.0243922
0.0211879
0.0156047
0.00965948
0.00525546
0.00195152
-0.000154785
-0.0014554
-0.00215186
-0.00247288
-0.00257268
0.0254612
0.0254719
0.0253074
0.0248522
0.0242779
0.0236189
0.0228881
0.0221108
0.021191
0.0197033
0.0169776
0.0129421
0.0088381
0.00576192
0.00345989
0.00195095
0.00100018
0.000481502
0.000250792
0.000182781
0.0204187
0.0204266
0.0202903
0.0199199
0.0194278
0.0188532
0.0181645
0.0174062
0.016468
0.015112
0.0129532
0.0101079
0.00733903
0.00525133
0.00369041
0.00264819
0.00198373
0.00161802
0.00146229
0.00141647
0.0149005
0.0149096
0.0148109
0.0145385
0.0141693
0.0137297
0.013188
0.012587
0.011806
0.0107364
0.00915768
0.00723895
0.00544736
0.00411275
0.00312025
0.00244639
0.00201214
0.00177078
0.00167266
0.00164129
0.0091072
0.00911766
0.00906823
0.00889205
0.00864979
0.00835329
0.00800527
0.0076353
0.00711619
0.00645555
0.00549166
0.00437544
0.0033383
0.00256161
0.00198901
0.0016025
0.00135747
0.00122661
0.00118322
0.00116931
0.00316164
0.00316874
0.00316798
0.00307992
0.00297219
0.00284144
0.00270191
0.00259623
0.00237473
0.00217998
0.0018385
0.00147729
0.00111488
0.000830241
0.00058139
0.000419294
0.000327599
0.000289895
0.000298289
0.000306592
-1.57817
-0.675833
-0.400499
-0.106232
0.0936095
0.267139
0.414055
0.563261
0.721856
0.798893
-0.544194
-0.108383
-0.0759699
0.123137
0.263391
0.388864
0.498408
0.594455
0.62761
0.582391
-0.128976
0.101427
0.149664
0.291726
0.389424
0.478535
0.552246
0.60706
0.61271
0.624195
0.122414
0.279549
0.316805
0.429048
0.490716
0.554809
0.603913
0.638498
0.649141
0.671932
0.317301
0.425523
0.455002
0.532948
0.577867
0.623564
0.658247
0.68375
0.694593
0.725352
0.466979
0.542047
0.572522
0.620961
0.658488
0.690936
0.71684
0.738117
0.753081
0.780775
0.592118
0.645842
0.67242
0.7029
0.732312
0.757323
0.778236
0.7979
0.813267
0.839427
0.699353
0.73849
0.760365
0.782143
0.804184
0.824431
0.842336
0.860793
0.875873
0.899421
0.795938
0.825363
0.842921
0.858874
0.875769
0.892349
0.908206
0.925408
0.939008
0.961302
0.885536
0.906645
0.922011
0.935606
0.949586
0.963682
0.977288
0.991939
1.00347
1.02314
0.972291
0.988259
1.00234
1.01443
1.02657
1.03829
1.04945
1.06116
1.06884
1.08566
1.05804
1.07104
1.08489
1.09661
1.10721
1.11698
1.12576
1.13404
1.13762
1.14891
1.14755
1.15854
1.17203
1.18125
1.18869
1.19587
1.2031
1.20973
1.21071
1.21812
1.24607
1.25081
1.25884
1.26333
1.2666
1.27107
1.27707
1.28484
1.28865
1.29854
1.35942
1.3457
1.33825
1.33258
1.32989
1.33129
1.33782
1.35026
1.36498
1.39463
1.48019
1.42455
1.39366
1.37659
1.36846
1.36848
1.37712
1.39655
1.42863
1.49778
)
;

boundaryField
{
    wall-4
    {
        type            zeroGradient;
    }
    pressure-outlet-7
    {
        type            fixedValue;
        value           uniform 0;
    }
    velocity-inlet-6
    {
        type            zeroGradient;
    }
    velocity-inlet-5
    {
        type            zeroGradient;
    }
    frontAndBackPlanes
    {
        type            empty;
    }
}


// ************************************************************************* //
