/*--------------------------------*- C++ -*----------------------------------*\
  =========                 |
  \\      /  F ield         | OpenFOAM: The Open Source CFD Toolbox
   \\    /   O peration     | Website:  https://openfoam.org
    \\  /    A nd           | Version:  9
     \\/     M anipulation  |
\*---------------------------------------------------------------------------*/
FoamFile
{
    format      ascii;
    class       volVectorField;
    location    "20";
    object      U;
}
// * * * * * * * * * * * * * * * * * * * * * * * * * * * * * * * * * * * * * //

dimensions      [0 1 -1 0 0 0 0];

internalField   nonuniform List<vector> 
2200
(
(0.878745 -0.0303988 0)
(1.00571 -0.0513071 0)
(1.00302 -0.0354046 0)
(1.0001 -0.0245409 0)
(0.999987 -0.0168514 0)
(1.00015 -0.010946 0)
(1.00005 -0.00700135 0)
(0.999953 -0.00422796 0)
(0.999956 -0.00222139 0)
(1.00016 -0.000740583 0)
(1.00007 0.000895418 0)
(0.999971 0.00239753 0)
(0.99994 0.00436767 0)
(1.00007 0.00717434 0)
(1.00018 0.011067 0)
(1.00001 0.0169651 0)
(1.00014 0.0246325 0)
(1.00308 0.0354653 0)
(1.00572 0.0513321 0)
(0.878742 0.0304222 0)
(0.71207 -0.0327194 0)
(0.99662 -0.0628959 0)
(1.03333 -0.0560698 0)
(1.02472 -0.0461755 0)
(1.01548 -0.0358304 0)
(1.00947 -0.0262696 0)
(1.00607 -0.0180892 0)
(1.00409 -0.0114052 0)
(1.00284 -0.00597931 0)
(1.00214 -0.00155961 0)
(1.00213 0.00222612 0)
(1.00277 0.00665407 0)
(1.00407 0.0120207 0)
(1.00601 0.0185807 0)
(1.00938 0.02673 0)
(1.0154 0.0361956 0)
(1.02459 0.0464403 0)
(1.0331 0.0563101 0)
(0.996468 0.0630503 0)
(0.711852 0.0327542 0)
(0.536104 -0.0238692 0)
(0.970119 -0.0567335 0)
(1.05661 -0.0544049 0)
(1.05236 -0.0483053 0)
(1.03622 -0.039749 0)
(1.0244 -0.0313937 0)
(1.01586 -0.0233114 0)
(1.01017 -0.0158739 0)
(1.00677 -0.00897132 0)
(1.0053 -0.00255502 0)
(1.00526 0.00372197 0)
(1.00672 0.0100702 0)
(1.01001 0.0168524 0)
(1.01563 0.0241563 0)
(1.02411 0.032022 0)
(1.03586 0.0402626 0)
(1.05205 0.048752 0)
(1.05639 0.0545856 0)
(0.969603 0.0569914 0)
(0.535424 0.0239257 0)
(0.393103 -0.0134895 0)
(0.912281 -0.0462024 0)
(1.05791 -0.0465884 0)
(1.07019 -0.0441329 0)
(1.05534 -0.037773 0)
(1.0393 -0.0309312 0)
(1.02741 -0.0242376 0)
(1.01902 -0.017187 0)
(1.01371 -0.0100418 0)
(1.01115 -0.00287272 0)
(1.01109 0.00451062 0)
(1.01351 0.0115035 0)
(1.01864 0.0184265 0)
(1.02691 0.0252505 0)
(1.03876 0.0318694 0)
(1.05485 0.0386036 0)
(1.0696 0.0448645 0)
(1.05697 0.047219 0)
(0.911121 0.0465084 0)
(0.391703 0.0135816 0)
(0.309828 -0.00436263 0)
(0.847987 -0.0317499 0)
(1.04984 -0.0392277 0)
(1.07956 -0.0375724 0)
(1.06855 -0.033279 0)
(1.05172 -0.0278143 0)
(1.03806 -0.0225337 0)
(1.02778 -0.0165547 0)
(1.02099 -0.00987217 0)
(1.01761 -0.00261574 0)
(1.0174 0.00492747 0)
(1.0205 0.0120028 0)
(1.02716 0.0184388 0)
(1.03736 0.0242601 0)
(1.051 0.0292795 0)
(1.06771 0.0344546 0)
(1.07854 0.0384816 0)
(1.04843 0.039967 0)
(0.845739 0.0320906 0)
(0.30766 0.00444897 0)
(0.267864 0.000222984 0)
(0.792642 -0.01922 0)
(1.03422 -0.0297334 0)
(1.08315 -0.0301939 0)
(1.07692 -0.0273725 0)
(1.06092 -0.0230247 0)
(1.04711 -0.0188759 0)
(1.03578 -0.0141588 0)
(1.02776 -0.00862857 0)
(1.02337 -0.00196863 0)
(1.02312 0.00489546 0)
(1.02709 0.0113853 0)
(1.03479 0.0166361 0)
(1.04594 0.0209515 0)
(1.05948 0.0247381 0)
(1.07545 0.0288127 0)
(1.08143 0.0313182 0)
(1.03198 0.030561 0)
(0.789324 0.0196072 0)
(0.264972 -0.000146951 0)
(0.245372 0.0013075 0)
(0.744903 -0.0115418 0)
(1.01636 -0.0232892 0)
(1.08343 -0.0246371 0)
(1.08158 -0.0223666 0)
(1.06667 -0.018695 0)
(1.05364 -0.0152486 0)
(1.04326 -0.0110761 0)
(1.03534 -0.0064158 0)
(1.0304 -0.000911265 0)
(1.03013 0.00460939 0)
(1.03453 0.00982938 0)
(1.04198 0.0140783 0)
(1.05183 0.0178398 0)
(1.06488 0.020955 0)
(1.07954 0.0242484 0)
(1.08093 0.0261955 0)
(1.01273 0.0244296 0)
(0.739778 0.0120378 0)
(0.241504 -0.00119708 0)
(0.232656 0.00115184 0)
(0.704148 -0.00699511 0)
(0.996973 -0.0189672 0)
(1.0821 -0.0208757 0)
(1.08494 -0.0188181 0)
(1.0711 -0.0157469 0)
(1.05804 -0.0123266 0)
(1.048 -0.00854925 0)
(1.0404 -0.00444985 0)
(1.03575 1.88748e-05 0)
(1.03529 0.00463113 0)
(1.03909 0.00875279 0)
(1.04596 0.0123679 0)
(1.05596 0.0156306 0)
(1.06857 0.0185413 0)
(1.08205 0.0211244 0)
(1.07866 0.0227682 0)
(0.991955 0.020277 0)
(0.697078 0.00754705 0)
(0.227721 -0.00100524 0)
(0.2262 0.000757841 0)
(0.673983 -0.00332349 0)
(0.978955 -0.0135108 0)
(1.07971 -0.015651 0)
(1.08741 -0.0144691 0)
(1.07406 -0.0122439 0)
(1.06045 -0.00963466 0)
(1.04998 -0.00656566 0)
(1.04238 -0.00301914 0)
(1.03796 0.000821676 0)
(1.03724 0.00513607 0)
(1.0405 0.0086111 0)
(1.04742 0.0116145 0)
(1.05702 0.0140578 0)
(1.07038 0.0158005 0)
(1.08342 0.0175135 0)
(1.07471 0.0180599 0)
(0.971605 0.0150737 0)
(0.664656 0.00401596 0)
(0.219889 -0.000578824 0)
(0.224356 0.00041658 0)
(0.65657 -0.000670739 0)
(0.964169 -0.0075323 0)
(1.07628 -0.00968428 0)
(1.08906 -0.00948732 0)
(1.07659 -0.00804656 0)
(1.06256 -0.00656751 0)
(1.05163 -0.0044401 0)
(1.04377 -0.00153747 0)
(1.03935 0.00186597 0)
(1.03854 0.00579148 0)
(1.04163 0.00858321 0)
(1.04841 0.0106972 0)
(1.05855 0.0115568 0)
(1.07233 0.0125146 0)
(1.08367 0.0130844 0)
(1.06953 0.0124098 0)
(0.9545 0.00934652 0)
(0.644632 0.00146377 0)
(0.216339 -0.000267098 0)
(0.22479 0.000221527 0)
(0.648706 0.00043255 0)
(0.953845 -0.00338269 0)
(1.07314 -0.00522899 0)
(1.09015 -0.0055654 0)
(1.07939 -0.00475905 0)
(1.06574 -0.0036168 0)
(1.05512 -0.00207786 0)
(1.04712 0.000170092 0)
(1.04232 0.00297551 0)
(1.04113 0.00613242 0)
(1.04383 0.00823252 0)
(1.05034 0.00954714 0)
(1.06042 0.0104737 0)
(1.07302 0.0102922 0)
(1.08286 0.00997371 0)
(1.06403 0.00868163 0)
(0.941513 0.00566851 0)
(0.633813 0.000575218 0)
(0.21482 7.38782e-06 0)
(0.22607 -4.98101e-06 0)
(0.646419 0.000708912 0)
(0.94844 -0.00122047 0)
(1.0709 -0.0029997 0)
(1.09074 -0.0034805 0)
(1.0812 -0.0030346 0)
(1.06868 -0.00220458 0)
(1.05883 -0.000450343 0)
(1.05141 0.00181843 0)
(1.04669 0.00456583 0)
(1.04508 0.00725078 0)
(1.04704 0.00913024 0)
(1.0525 0.0100676 0)
(1.06051 0.0106552 0)
(1.07226 0.0097636 0)
(1.0811 0.00889525 0)
(1.05899 0.00725357 0)
(0.932142 0.00424361 0)
(0.627494 0.000728465 0)
(0.213547 0.000167405 0)
(0.22743 8.9384e-05 0)
(0.646539 0.000889445 0)
(0.94458 1.94218e-05 0)
(1.06856 -0.00131718 0)
(1.09003 -0.00194113 0)
(1.08143 -0.0019107 0)
(1.06974 -0.00128955 0)
(1.06042 0.000531135 0)
(1.05344 0.0029073 0)
(1.04883 0.00598587 0)
(1.04687 0.0087608 0)
(1.04814 0.0108091 0)
(1.05269 0.0115528 0)
(1.05995 0.0112245 0)
(1.07091 0.0103023 0)
(1.07756 0.00907381 0)
(1.05304 0.00680623 0)
(0.923671 0.00366324 0)
(0.621825 0.000920717 0)
(0.211438 0.00022328 0)
(0.229353 0.000296666 0)
(0.647668 0.00121258 0)
(0.941812 0.00133045 0)
(1.06612 0.000137998 0)
(1.08874 -0.000732621 0)
(1.08129 -0.000831957 0)
(1.07034 2.76993e-05 0)
(1.06142 0.00194044 0)
(1.05448 0.00450858 0)
(1.04963 0.00784577 0)
(1.04729 0.0106757 0)
(1.04807 0.0127734 0)
(1.05189 0.0133352 0)
(1.05847 0.0127388 0)
(1.06799 0.0114081 0)
(1.07286 0.0091486 0)
(1.0464 0.0062036 0)
(0.916237 0.00301627 0)
(0.617284 0.000865553 0)
(0.209516 0.000206666 0)
(0.232616 0.000407331 0)
(0.651111 0.00156808 0)
(0.941775 0.00259992 0)
(1.06374 0.00184827 0)
(1.08756 0.00111981 0)
(1.08202 0.000836311 0)
(1.0724 0.00173143 0)
(1.06423 0.00373245 0)
(1.05744 0.00655029 0)
(1.05209 0.0100149 0)
(1.04894 0.0128231 0)
(1.04873 0.0147333 0)
(1.05139 0.0150625 0)
(1.05667 0.0144506 0)
(1.06419 0.012664 0)
(1.06694 0.00991171 0)
(1.03868 0.00649483 0)
(0.908563 0.00314267 0)
(0.612329 0.00109284 0)
(0.207266 0.000262261 0)
(0.235928 0.000400185 0)
(0.655218 0.00184805 0)
(0.94305 0.00343303 0)
(1.06243 0.00316739 0)
(1.0869 0.00271756 0)
(1.08314 0.00273904 0)
(1.07518 0.00418876 0)
(1.06788 0.00655648 0)
(1.06126 0.0096678 0)
(1.05541 0.0131635 0)
(1.05131 0.0158346 0)
(1.04999 0.0172661 0)
(1.05126 0.0172319 0)
(1.05515 0.0160395 0)
(1.0603 0.0137601 0)
(1.06079 0.0105203 0)
(1.03087 0.0068258 0)
(0.901391 0.00354496 0)
(0.607492 0.00148405 0)
(0.204627 0.000345917 0)
(0.240867 0.000492765 0)
(0.663116 0.00238301 0)
(0.946423 0.00439691 0)
(1.06271 0.0050438 0)
(1.08693 0.00506287 0)
(1.08464 0.00553245 0)
(1.07804 0.00718958 0)
(1.07135 0.00983368 0)
(1.06478 0.0132697 0)
(1.05837 0.0168222 0)
(1.05323 0.0193816 0)
(1.05068 0.0202271 0)
(1.05045 0.0196454 0)
(1.05258 0.0178679 0)
(1.05552 0.0152412 0)
(1.05398 0.0117559 0)
(1.02286 0.00802538 0)
(0.893816 0.00455869 0)
(0.600977 0.00200632 0)
(0.200793 0.000448129 0)
(0.245572 0.000628528 0)
(0.669254 0.00278902 0)
(0.950377 0.00539834 0)
(1.06441 0.00671111 0)
(1.08826 0.00772739 0)
(1.08689 0.00912528 0)
(1.08115 0.0114825 0)
(1.07466 0.0146056 0)
(1.06768 0.0182266 0)
(1.06029 0.021696 0)
(1.05379 0.0238683 0)
(1.04976 0.0239471 0)
(1.04812 0.0225389 0)
(1.04857 0.0200156 0)
(1.0497 0.0166469 0)
(1.0464 0.0126925 0)
(1.01401 0.00866067 0)
(0.884985 0.00517167 0)
(0.593268 0.00238792 0)
(0.196212 0.000530131 0)
(0.25341 0.000861934 0)
(0.681677 0.0038594 0)
(0.958671 0.00759698 0)
(1.06829 0.00999212 0)
(1.09115 0.0117011 0)
(1.0904 0.013799 0)
(1.08511 0.0167395 0)
(1.07862 0.0202641 0)
(1.07098 0.024122 0)
(1.06236 0.0274196 0)
(1.05425 0.0289593 0)
(1.04856 0.0280915 0)
(1.04545 0.025589 0)
(1.04427 0.0222631 0)
(1.04378 0.0183352 0)
(1.03902 0.0142723 0)
(1.00581 0.0103052 0)
(0.876495 0.00649118 0)
(0.584358 0.00296591 0)
(0.190568 0.000632823 0)
(0.261453 0.00113144 0)
(0.692985 0.00457339 0)
(0.967609 0.00913929 0)
(1.0745 0.0125068 0)
(1.0965 0.0157903 0)
(1.09567 0.0192585 0)
(1.09031 0.0232189 0)
(1.08322 0.0275718 0)
(1.07448 0.0318576 0)
(1.06415 0.0350379 0)
(1.05395 0.0358013 0)
(1.04621 0.0338639 0)
(1.04132 0.0302899 0)
(1.03842 0.0260231 0)
(1.03641 0.0213383 0)
(1.03022 0.0165046 0)
(0.995362 0.0117724 0)
(0.864372 0.00753909 0)
(0.572499 0.00352041 0)
(0.183676 0.000761144 0)
(0.274416 0.00150803 0)
(0.712368 0.0066063 0)
(0.981999 0.0127402 0)
(1.08377 0.0175317 0)
(1.10375 0.0214386 0)
(1.10262 0.0259969 0)
(1.09662 0.0310665 0)
(1.08846 0.0363029 0)
(1.07805 0.0409895 0)
(1.06548 0.0439937 0)
(1.05288 0.0438058 0)
(1.04298 0.0405227 0)
(1.03639 0.0356031 0)
(1.03204 0.0301398 0)
(1.02871 0.0245876 0)
(1.02143 0.019489 0)
(0.985683 0.0146289 0)
(0.853623 0.00968821 0)
(0.560097 0.00445445 0)
(0.175589 0.000918286 0)
(0.289119 0.00210565 0)
(0.733632 0.00779624 0)
(0.99865 0.0155879 0)
(1.09581 0.0218368 0)
(1.11406 0.027823 0)
(1.11175 0.0344189 0)
(1.1044 0.0409037 0)
(1.09443 0.0472528 0)
(1.08166 0.0525698 0)
(1.06635 0.0553468 0)
(1.05086 0.0540954 0)
(1.03846 0.0493902 0)
(1.02982 0.0431492 0)
(1.02382 0.0365253 0)
(1.01923 0.0299937 0)
(1.01051 0.0235402 0)
(0.971964 0.0173258 0)
(0.835429 0.0113308 0)
(0.541393 0.00522446 0)
(0.165089 0.00109302 0)
(0.310839 0.00300413 0)
(0.76299 0.0118046 0)
(1.02147 0.021527 0)
(1.11225 0.0298294 0)
(1.12746 0.0371835 0)
(1.12339 0.0453055 0)
(1.11383 0.0534464 0)
(1.10111 0.0610153 0)
(1.08519 0.0667578 0)
(1.06633 0.0690367 0)
(1.04739 0.0664925 0)
(1.03228 0.0600641 0)
(1.02165 0.052089 0)
(1.0141 0.0436907 0)
(1.00816 0.0356823 0)
(0.998214 0.02843 0)
(0.958252 0.0214655 0)
(0.820459 0.0143981 0)
(0.523988 0.00656923 0)
(0.153739 0.00124118 0)
(0.341144 0.00414766 0)
(0.803388 0.0145304 0)
(1.05109 0.0283752 0)
(1.13323 0.0393335 0)
(1.14482 0.0490279 0)
(1.13764 0.0602582 0)
(1.12479 0.0701945 0)
(1.10841 0.078769 0)
(1.08858 0.0845912 0)
(1.0657 0.0860028 0)
(1.04312 0.0816416 0)
(1.02504 0.0730641 0)
(1.01204 0.0632063 0)
(1.0027 0.0534098 0)
(0.995322 0.0440592 0)
(0.983347 0.0351308 0)
(0.938902 0.0263923 0)
(0.792437 0.0172349 0)
(0.494276 0.00754909 0)
(0.138067 0.00142064 0)
(0.377474 0.00814259 0)
(0.851509 0.0242118 0)
(1.08831 0.0403833 0)
(1.15945 0.0543961 0)
(1.1665 0.0672251 0)
(1.15449 0.0808738 0)
(1.13718 0.0917816 0)
(1.11606 0.100872 0)
(1.09139 0.106123 0)
(1.06369 0.105908 0)
(1.03665 0.0993203 0)
(1.01529 0.0885376 0)
(1.00005 0.0765622 0)
(0.988913 0.0645584 0)
(0.979893 0.0533199 0)
(0.965874 0.0426985 0)
(0.918083 0.0321892 0)
(0.770154 0.0215044 0)
(0.470606 0.00972554 0)
(0.123925 0.00142282 0)
(0.461733 0.0117108 0)
(0.928912 0.034118 0)
(1.13768 0.0599243 0)
(1.19212 0.0773631 0)
(1.19241 0.094512 6.36848e-35)
(1.17335 0.109299 -4.51915e-35)
(1.14992 0.120807 0)
(1.123 0.129309 0)
(1.09291 0.132862 0)
(1.06018 0.130244 0)
(1.02907 0.120708 0)
(1.00455 0.106803 0)
(0.986498 0.0922944 0)
(0.973156 0.0784929 0)
(0.962137 0.0655297 0)
(0.945088 0.0533659 0)
(0.890771 0.0409073 0)
(0.728095 0.0269339 0)
(0.420676 0.0105015 0)
(0.0992103 0.00122818 0)
(0.527421 0.0268783 -8.31538e-21)
(1.01713 0.0586847 5.63333e-21)
(1.19205 0.0923747 0)
(1.22804 0.113475 4.50712e-22)
(1.2189 0.133392 -3.65241e-22)
(1.19175 0.147653 4.76788e-35)
(1.16175 0.158162 0)
(1.12863 0.164751 4.6041e-21)
(1.09248 0.165935 -1.65825e-20)
(1.05367 0.160306 3.67904e-21)
(1.01695 0.147278 0)
(0.98793 0.130693 -1.22159e-20)
(0.966993 0.114121 -1.53208e-20)
(0.951031 0.0981401 2.69503e-20)
(0.936867 0.0832602 -2.16933e-20)
(0.914543 0.0684744 0)
(0.849447 0.0524196 -8.36793e-21)
(0.673395 0.0349599 0)
(0.373614 0.0166413 -4.52218e-20)
(0.081757 0.00219678 5.36153e-20)
(0.554218 0.0544973 3.96461e-23)
(1.06773 0.102924 -4.75898e-20)
(1.23526 0.144337 1.2285e-20)
(1.26093 0.162529 1.88078e-20)
(1.24262 0.181498 -1.84306e-23)
(1.20803 0.193623 7.85246e-22)
(1.17148 0.202225 0)
(1.13184 0.20678 0)
(1.08921 0.205722 2.59051e-20)
(1.0443 0.197503 0)
(1.00249 0.182158 4.18148e-20)
(0.969155 0.16337 1.31058e-20)
(0.942857 0.144637 3.59702e-22)
(0.921995 0.127439 -3.02879e-20)
(0.903855 0.111592 0)
(0.87797 0.0970523 0)
(0.811479 0.0789373 -1.41678e-19)
(0.643549 0.0583885 3.55889e-19)
(0.361852 0.0290296 -2.11543e-19)
(0.0822777 0.00803129 -2.51636e-19)
(0.556771 0.0809369 8.14574e-20)
(1.09588 0.161302 -2.39223e-20)
(1.26732 0.20743 -6.4059e-21)
(1.28719 0.222394 -3.5948e-20)
(1.26136 0.237778 1.36661e-20)
(1.22058 0.245886 3.20919e-21)
(1.17789 0.251236 3.00787e-21)
(1.13202 0.252838 0)
(1.08336 0.248817 -5.3506e-20)
(1.03241 0.237593 6.04702e-20)
(0.983941 0.219201 -1.14375e-19)
(0.944408 0.198051 5.591e-20)
(0.915586 0.179033 -4.15652e-20)
(0.892873 0.161727 9.08917e-20)
(0.871763 0.146005 0)
(0.844182 0.131079 -3.58674e-20)
(0.780686 0.114194 0)
(0.62692 0.0858089 2.04761e-19)
(0.36472 0.0496936 -4.86001e-19)
(0.0953484 0.0135184 3.05091e-19)
(0.544045 0.112687 -3.83093e-19)
(1.10957 0.220731 1.5315e-19)
(1.28673 0.275436 2.4726e-20)
(1.3048 0.287478 0)
(1.27395 0.298778 1.99405e-20)
(1.22848 0.302249 -2.17966e-20)
(1.18053 0.30371 -3.07346e-21)
(1.1293 0.301537 0)
(1.07541 0.293773 3.77142e-20)
(1.01916 0.278847 -4.14491e-20)
(0.966737 0.257412 1.00513e-19)
(0.925198 0.235365 0)
(0.891418 0.214923 -8.74607e-20)
(0.864039 0.197562 4.81172e-20)
(0.841478 0.182049 1.31394e-19)
(0.81426 0.167385 -1.15588e-19)
(0.755444 0.148968 1.91796e-19)
(0.616037 0.116938 -4.26419e-19)
(0.374672 0.0712156 2.7083e-19)
(0.107121 0.0214339 -3.39982e-19)
(0.525982 0.136944 2.35519e-19)
(1.1105 0.276068 -1.73533e-19)
(1.29603 0.343217 7.72899e-20)
(1.31406 0.353105 -1.0673e-19)
(1.27973 0.361082 7.23249e-20)
(1.23107 0.360268 -1.22961e-20)
(1.17919 0.357768 3.69315e-21)
(1.12392 0.351502 -2.30443e-20)
(1.06566 0.339873 -3.7364e-20)
(1.00465 0.321468 -8.90226e-20)
(0.947189 0.297764 -2.16939e-19)
(0.90012 0.272547 -7.34209e-20)
(0.865765 0.251258 2.76439e-21)
(0.839532 0.233179 -1.73768e-19)
(0.816539 0.217925 -6.31432e-21)
(0.789845 0.202195 1.69761e-19)
(0.736088 0.183287 -5.28534e-20)
(0.608377 0.1479 -3.09793e-20)
(0.38069 0.0932327 0)
(0.114216 0.0289023 7.28219e-19)
(0.506358 0.158671 0)
(1.10166 0.327285 5.35734e-20)
(1.29764 0.407525 3.7305e-20)
(1.31711 0.416948 -1.21701e-20)
(1.28022 0.422861 -8.75346e-20)
(1.22928 0.418122 1.97594e-20)
(1.17444 0.411879 -4.33056e-22)
(1.11583 0.401665 4.20754e-20)
(1.05368 0.386284 -2.26602e-20)
(0.988503 0.364321 3.86786e-20)
(0.927605 0.33614 1.17046e-19)
(0.879842 0.30939 1.62721e-19)
(0.843322 0.286779 -1.01815e-19)
(0.814456 0.267481 1.88405e-19)
(0.791984 0.251104 -1.51469e-19)
(0.767923 0.236496 0)
(0.719225 0.216563 -4.05068e-19)
(0.600612 0.178654 5.44544e-19)
(0.382131 0.113278 4.12553e-20)
(0.116952 0.0357158 -7.70958e-19)
(0.49008 0.179341 -5.60496e-21)
(1.0913 0.376556 -3.65255e-19)
(1.29417 0.468869 -2.80984e-19)
(1.31491 0.478199 2.34719e-19)
(1.27589 0.482713 -5.22912e-20)
(1.22352 0.474561 2.89867e-20)
(1.16655 0.464988 -1.38391e-20)
(1.10539 0.451184 -1.80933e-21)
(1.04027 0.432197 -7.81021e-20)
(0.972132 0.406442 8.81693e-22)
(0.909421 0.375601 -1.27517e-19)
(0.86007 0.346338 -1.73309e-19)
(0.823682 0.321408 1.14898e-19)
(0.796378 0.301017 -6.77608e-20)
(0.772623 0.284447 1.64976e-19)
(0.747143 0.26809 0)
(0.699994 0.246183 -2.51108e-19)
(0.587512 0.205631 3.71478e-19)
(0.376379 0.131218 7.11741e-19)
(0.115639 0.0405867 -8.3616e-19)
(0.474937 0.197544 -6.93871e-19)
(1.07701 0.422113 3.50599e-19)
(1.2869 0.526871 2.73418e-19)
(1.30888 0.536686 -2.54518e-19)
(1.26827 0.540032 1.11965e-20)
(1.21495 0.528845 7.67881e-20)
(1.15636 0.516389 9.15522e-22)
(1.09321 0.499311 -1.54647e-20)
(1.0258 0.476931 -4.87983e-20)
(0.95528 0.447407 8.6107e-20)
(0.889471 0.412699 1.19786e-19)
(0.837093 0.378978 2.71523e-19)
(0.798551 0.352224 0)
(0.768685 0.329958 5.47351e-21)
(0.747185 0.311896 -4.59257e-19)
(0.726272 0.297461 1.05426e-19)
(0.684692 0.275197 5.39479e-19)
(0.576086 0.229324 -1.58215e-19)
(0.365883 0.145843 3.37455e-19)
(0.111841 0.0440952 -2.80221e-20)
(0.465187 0.216274 6.31081e-21)
(1.0641 0.466146 3.24232e-19)
(1.2771 0.582226 2.07345e-19)
(1.29997 0.592248 -4.52871e-19)
(1.25798 0.594269 2.90184e-19)
(1.20409 0.580437 -9.40471e-20)
(1.1443 0.565589 -4.46627e-21)
(1.07963 0.545679 3.0364e-20)
(1.01017 0.520232 8.4721e-20)
(0.937046 0.487649 -1.12067e-19)
(0.868952 0.449523 0)
(0.8175 0.414667 -1.07526e-19)
(0.780828 0.385887 1.23449e-19)
(0.754229 0.362906 1.67103e-19)
(0.729247 0.343005 -9.58093e-20)
(0.704183 0.323689 -2.42656e-19)
(0.660946 0.298468 -7.38135e-20)
(0.556427 0.248159 -1.21411e-21)
(0.353313 0.156638 0)
(0.106338 0.0470618 0)
(0.456223 0.231922 -3.42411e-19)
(1.05026 0.507141 0)
(1.26553 0.634409 2.37316e-19)
(1.28935 0.645275 -1.09107e-19)
(1.24631 0.645821 -3.02021e-19)
(1.19192 0.629344 8.3247e-20)
(1.13105 0.61238 -1.07353e-20)
(1.06509 0.59001 -1.1822e-20)
(0.993961 0.561903 5.13352e-20)
(0.919065 0.526124 -4.71731e-20)
(0.849285 0.484253 6.71051e-20)
(0.793662 0.444658 3.35618e-19)
(0.751782 0.411559 1.33598e-20)
(0.720232 0.384458 -1.70376e-19)
(0.701375 0.362531 3.30267e-19)
(0.683237 0.347087 4.45673e-21)
(0.645547 0.319615 7.89723e-20)
(0.541688 0.266384 -3.84466e-19)
(0.339484 0.165403 3.89774e-19)
(0.100079 0.0488948 -4.65576e-19)
(0.449759 0.251519 3.21065e-23)
(1.03778 0.546628 0)
(1.25309 0.683481 0)
(1.27738 0.695422 1.0204e-19)
(1.23344 0.694545 1.18087e-19)
(1.17872 0.675634 -6.98926e-20)
(1.11691 0.65676 4.76752e-20)
(1.04981 0.632185 0)
(0.977115 0.601799 -8.53779e-20)
(0.899731 0.563364 1.64019e-19)
(0.826755 0.519019 2.06261e-19)
(0.770634 0.476708 -1.26828e-19)
(0.733439 0.442194 -1.59519e-19)
(0.708322 0.414752 3.77591e-19)
(0.683791 0.392588 -1.16798e-19)
(0.659469 0.367181 -1.42023e-19)
(0.618221 0.338897 -8.70432e-20)
(0.518456 0.278693 -4.17229e-19)
(0.324132 0.171854 5.85016e-20)
(0.0930121 0.0497038 5.06088e-19)
(0.446139 0.270393 -1.36733e-19)
(1.02599 0.583533 -2.15974e-19)
(1.24007 0.729267 2.37286e-20)
(1.2649 0.742775 1.07032e-22)
(1.22029 0.740784 3.93898e-20)
(1.16518 0.719547 -1.85549e-19)
(1.10243 0.698834 0)
(1.03429 0.672259 1.13314e-20)
(0.960089 0.639925 -8.93504e-21)
(0.880729 0.599039 2.57431e-19)
(0.805475 0.55091 -5.24694e-20)
(0.748007 0.504321 5.77292e-20)
(0.70545 0.465323 0)
(0.672186 0.433141 -2.06329e-19)
(0.653168 0.405001 2.57828e-19)
(0.636789 0.386773 0)
(0.601471 0.352932 -1.90863e-19)
(0.500057 0.291126 5.58038e-19)
(0.307751 0.176256 6.64967e-20)
(0.0854887 0.0493959 -6.27337e-19)
(0.444085 0.287403 -3.03299e-19)
(1.0156 0.618822 3.88988e-19)
(1.22693 0.772276 0)
(1.25174 0.787214 2.53758e-19)
(1.20654 0.784275 0)
(1.15125 0.761093 1.74518e-19)
(1.0878 0.738738 0)
(1.01866 0.710344 0)
(0.942897 0.676278 -3.03945e-20)
(0.861416 0.633544 -2.51631e-19)
(0.783975 0.583642 -3.83657e-19)
(0.724038 0.534864 7.35023e-20)
(0.682259 0.492071 2.75734e-19)
(0.658117 0.457798 2.326e-19)
(0.63578 0.431102 -8.27402e-19)
(0.612087 0.402089 -3.42796e-19)
(0.571911 0.368292 1.99194e-19)
(0.474248 0.298397 0)
(0.289964 0.178354 5.75846e-19)
(0.0772318 0.0480701 -6.80975e-19)
(0.442503 0.303147 3.345e-19)
(1.0051 0.651356 -4.27415e-19)
(1.21374 0.81204 0)
(1.23861 0.82875 -1.01827e-20)
(1.19299 0.82521 -1.04438e-19)
(1.13752 0.800386 0)
(1.07341 0.776583 -1.53512e-20)
(1.00345 0.74659 1.8661e-20)
(0.926612 0.711093 -3.56079e-20)
(0.843657 0.666707 2.38728e-20)
(0.763582 0.613692 0)
(0.699915 0.560545 2.92756e-19)
(0.655981 0.515706 3.87151e-21)
(0.620436 0.476207 1.26417e-19)
(0.602092 0.442442 1.52606e-19)
(0.58739 0.416933 0)
(0.552859 0.375242 -3.37171e-19)
(0.453982 0.304608 6.60857e-19)
(0.271551 0.17823 -7.04024e-19)
(0.0691269 0.045611 1.47927e-18)
(0.441116 0.318118 0)
(0.995754 0.683022 0)
(1.20085 0.849557 -2.34717e-19)
(1.22526 0.867547 0)
(1.1792 0.863377 0)
(1.12378 0.837315 2.49493e-19)
(1.05934 0.812358 -1.92483e-20)
(0.988817 0.78103 1.683e-20)
(0.91084 0.744261 -1.21967e-21)
(0.825535 0.698462 0)
(0.742444 0.644126 -6.18686e-20)
(0.676868 0.590181 -2.42966e-19)
(0.629327 0.540006 -3.06078e-19)
(0.603841 0.497463 -1.27586e-19)
(0.581528 0.462866 1.68207e-19)
(0.559861 0.425383 -3.9976e-19)
(0.521839 0.387766 7.30191e-19)
(0.425711 0.306422 7.37113e-21)
(0.252248 0.175806 -6.81427e-19)
(0.0609801 0.0424282 -1.01159e-19)
(0.439606 0.332712 0)
(0.986201 0.71227 -3.32815e-19)
(1.18815 0.884303 2.62023e-19)
(1.21226 0.903793 0)
(1.16591 0.899111 0)
(1.11051 0.871947 -5.5109e-19)
(1.0458 0.846046 0)
(0.974725 0.813618 0)
(0.89564 0.775813 -5.5915e-20)
(0.808219 0.729129 4.81306e-20)
(0.721799 0.673544 -4.88452e-19)
(0.651953 0.615585 0)
(0.603262 0.562159 -3.32505e-19)
(0.563549 0.513835 1.16489e-20)
(0.544574 0.468691 -5.37654e-19)
(0.532494 0.437668 2.16789e-19)
(0.500857 0.384017 3.94842e-21)
(0.405829 0.30479 -7.8154e-19)
(0.234653 0.17153 3.70698e-19)
(0.0549523 0.039201 1.08228e-19)
(0.43819 0.346812 0)
(0.977838 0.740886 -3.92213e-19)
(1.17594 0.917269 2.78669e-19)
(1.19936 0.937702 5.86269e-19)
(1.15267 0.932332 1.19418e-19)
(1.09741 0.904297 -8.33881e-20)
(1.03253 0.877641 5.21649e-20)
(0.96106 0.844363 -1.06738e-19)
(0.880996 0.805849 5.9813e-20)
(0.792151 0.758713 2.86567e-19)
(0.704386 0.702463 4.05042e-19)
(0.631589 0.642747 7.85179e-20)
(0.575317 0.586288 4.83184e-19)
(0.544855 0.534662 3.15152e-19)
(0.521594 0.490022 3.88422e-19)
(0.500388 0.437643 -2.43303e-19)
(0.466379 0.390273 -2.88787e-19)
(0.376647 0.29976 3.40289e-19)
(0.214776 0.162359 -2.01064e-19)
(0.0504105 0.0373552 3.53932e-19)
(0.43669 0.360408 5.16664e-19)
(0.969288 0.767033 6.22868e-19)
(1.164 0.947796 1.52858e-19)
(1.18698 0.969453 1.59811e-20)
(1.14009 0.963478 -4.1421e-19)
(1.08488 0.934533 1.59618e-19)
(1.01984 0.907221 -5.95178e-20)
(0.948002 0.873252 -2.11708e-20)
(0.867213 0.834136 -4.75606e-20)
(0.776604 0.786349 -3.21398e-19)
(0.684161 0.728885 2.38706e-20)
(0.60525 0.66793 0)
(0.549338 0.61091 0)
(0.500957 0.55309 -1.599e-19)
(0.47645 0.493539 -6.39315e-19)
(0.465633 0.444731 5.2804e-19)
(0.441985 0.369523 3.23698e-19)
(0.364926 0.279179 0)
(0.216894 0.14142 6.41601e-19)
(0.0451486 0.0193248 -3.83982e-19)
(0.435338 0.373223 -2.7603e-19)
(0.96175 0.79251 2.38334e-19)
(1.15257 0.97677 -3.41012e-19)
(1.17484 0.99916 -3.67902e-19)
(1.12772 0.992463 -1.63157e-19)
(1.07268 0.962767 3.84656e-20)
(1.00755 0.934869 0)
(0.935558 0.900372 1.53419e-19)
(0.853999 0.860965 9.7176e-21)
(0.761626 0.813479 0)
(0.667056 0.757529 0)
(0.585204 0.698396 5.52336e-20)
(0.518443 0.636216 8.55026e-20)
(0.480224 0.574205 -1.72336e-19)
(0.448467 0.51704 4.62467e-19)
(0.423435 0.438537 -5.81479e-19)
(0.39536 0.365443 -6.96606e-19)
(0.341181 0.256248 6.18786e-19)
(0.240113 0.1545 -2.31521e-19)
(0.126791 0.0961181 1.32663e-19)
(0.433709 0.385249 3.18351e-19)
(0.953888 0.815493 0)
(1.14141 1.00344 0)
(1.16328 1.02691 -1.24001e-19)
(1.11609 1.01967 1.00364e-19)
(1.06116 0.989198 -2.05363e-20)
(0.995973 0.960752 -2.2651e-19)
(0.923753 0.925849 -2.33252e-19)
(0.84173 0.886182 3.39972e-20)
(0.748429 0.838363 -2.61865e-20)
(0.652478 0.781464 6.39809e-20)
(0.566743 0.721052 -4.51866e-19)
(0.497965 0.662801 -5.01317e-19)
(0.433059 0.599717 -9.18757e-20)
(0.392035 0.521992 0)
(0.370104 0.452867 -1.31033e-20)
(0.351025 0.3187 3.8324e-19)
(0.311614 0.161866 -6.49069e-19)
(0.275246 -0.00340976 4.80406e-19)
(0.0834734 -0.0819794 3.83221e-19)
(0.432206 0.3966 -6.93895e-19)
(0.946857 0.837989 -2.99061e-19)
(1.13069 1.0289 6.17544e-21)
(1.1519 1.05302 1.57522e-19)
(1.10459 1.04523 0)
(1.04989 1.01424 4.72392e-19)
(0.984735 0.985472 2.82486e-19)
(0.912481 0.950308 -4.59883e-20)
(0.83 0.910629 -3.25874e-21)
(0.735 0.863796 -2.45053e-20)
(0.633776 0.810319 2.27608e-20)
(0.540965 0.753694 3.99648e-19)
(0.462595 0.689697 4.90118e-19)
(0.411068 0.622941 8.84344e-20)
(0.362913 0.559717 4.90864e-19)
(0.305987 0.451456 0)
(0.212468 0.320318 0)
(0.0574617 0.302671 4.8155e-19)
(-0.061626 0.631278 -3.34191e-20)
(-0.000695733 1.48932 -6.20212e-19)
(0.430237 0.407355 3.77505e-19)
(0.939483 0.858261 8.97307e-19)
(1.12018 1.05244 -1.34986e-18)
(1.141 1.0777 8.14359e-19)
(1.09368 1.06968 -9.56006e-20)
(1.03912 1.03833 6.15474e-19)
(0.973959 1.00938 0)
(0.901547 0.974212 2.40135e-19)
(0.818431 0.934934 0)
(0.722487 0.888664 2.19519e-19)
(0.622483 0.834069 -3.66245e-20)
(0.530429 0.776912 4.10653e-20)
(0.449482 0.724821 5.4152e-19)
(0.360678 0.665535 -2.01265e-19)
(0.276533 0.582547 -2.57776e-19)
(0.209237 0.517136 0)
(0.111085 0.602628 0)
(0.0440153 1.22951 0)
(0.0812391 2.41658 -2.70941e-19)
(0.113174 2.888 -1.68056e-19)
(0.428397 0.417755 0)
(0.932937 0.878209 0)
(1.11014 1.07504 4.82909e-19)
(1.13032 1.10099 -6.78882e-19)
(1.0829 1.09272 4.66848e-19)
(1.02858 1.06125 -5.642e-19)
(0.963478 1.03237 -3.27401e-20)
(0.891011 0.99747 2.54918e-20)
(0.80775 0.95872 4.12097e-21)
(0.710772 0.913789 -2.49157e-19)
(0.604887 0.863987 5.49446e-20)
(0.504062 0.813898 3.7287e-19)
(0.410196 0.75806 -5.33233e-19)
(0.340223 0.693722 -6.27317e-19)
(0.276202 0.647671 2.19728e-19)
(0.2115 0.763574 0)
(0.15085 1.47589 3.17758e-19)
(0.150072 2.66176 3.57369e-19)
(0.154275 3.07736 -3.99962e-19)
(0.145192 3.21777 4.43805e-19)
(0.426172 0.427138 0)
(0.926031 0.895897 7.28626e-19)
(1.10032 1.09579 -1.25142e-19)
(1.12017 1.12291 8.5382e-19)
(1.07275 1.11466 -4.90028e-19)
(1.0186 1.08316 0)
(0.953546 1.05445 0)
(0.881135 1.01988 0)
(0.797378 0.982031 -8.92541e-20)
(0.699195 0.938879 8.7535e-22)
(0.594317 0.889582 0)
(0.49338 0.839664 -3.6329e-19)
(0.408846 0.795627 0)
(0.29746 0.752512 4.45938e-19)
(0.219856 0.831163 -2.89036e-19)
(0.176411 1.43264 -2.43145e-19)
(0.185665 2.65258 -5.99909e-19)
(0.204734 3.12489 -2.98169e-19)
(0.193998 3.27348 -3.38621e-19)
(0.178696 3.31503 2.97348e-19)
(0.424174 0.436028 -2.46087e-19)
(0.919938 0.91343 1.48034e-20)
(1.091 1.11582 -1.34802e-19)
(1.11028 1.14363 -6.83419e-19)
(1.06276 1.13534 0)
(1.00884 1.10399 0)
(0.943842 1.07562 0)
(0.871368 1.0417 -1.66327e-20)
(0.787649 1.00498 1.03041e-19)
(0.689488 0.963383 0)
(0.580975 0.918457 0)
(0.479234 0.877601 0)
(0.370347 0.840406 0)
(0.311118 0.835483 2.90168e-19)
(0.290009 1.17941 7.60758e-19)
(0.284209 2.31705 2.38147e-19)
(0.294622 3.07879 4.29745e-19)
(0.28631 3.2939 -2.68824e-19)
(0.234494 3.36352 9.92436e-20)
(0.199865 3.37642 0)
(0.421791 0.444227 2.49338e-19)
(0.913232 0.929154 -1.57083e-18)
(1.08165 1.13462 -4.44958e-19)
(1.10069 1.16367 -1.0873e-19)
(1.05317 1.15557 1.25055e-19)
(0.999427 1.1244 -8.8379e-19)
(0.934536 1.09642 6.0046e-20)
(0.862387 1.06313 4.20614e-19)
(0.77863 1.02747 0)
(0.679389 0.988694 -1.3987e-20)
(0.57147 0.947684 1.27238e-20)
(0.462158 0.906874 0)
(0.380863 0.878996 0)
(0.332912 1.00236 -3.59741e-19)
(0.305837 1.81643 -4.83172e-21)
(0.301042 2.91965 -1.22689e-19)
(0.318636 3.29734 1.94511e-19)
(0.291775 3.40304 5.90846e-20)
(0.222751 3.43013 1.11041e-19)
(0.196079 3.43871 -5.7364e-20)
(0.419358 0.452571 4.80282e-19)
(0.906755 0.946425 1.50216e-18)
(1.07199 1.15451 5.47178e-19)
(1.09054 1.18418 0)
(1.04301 1.17606 0)
(0.989584 1.14504 6.77075e-19)
(0.924899 1.11743 -4.20307e-19)
(0.852851 1.08478 -3.86507e-19)
(0.769225 1.05057 -1.55662e-20)
(0.67094 1.01342 1.25964e-20)
(0.561968 0.973596 -2.44904e-19)
(0.459403 0.940962 0)
(0.379764 0.956743 0)
(0.354578 1.33169 -1.95193e-19)
(0.36815 2.41697 -2.56687e-19)
(0.410856 3.1978 0)
(0.438546 3.38917 8.75037e-20)
(0.368001 3.45651 2.18862e-19)
(0.290581 3.50156 -4.82291e-19)
(0.264465 3.52761 2.80282e-19)
(0.415942 0.461061 -9.09715e-19)
(0.898718 0.962959 -7.14583e-19)
(1.06128 1.17457 0)
(1.07976 1.20549 0)
(1.03239 1.19749 0)
(0.979287 1.16649 0)
(0.914898 1.13913 4.49066e-19)
(0.84348 1.10708 -4.96223e-19)
(0.760578 1.07379 0)
(0.662151 1.03943 -5.62064e-21)
(0.554454 1.00778 3.97744e-19)
(0.447971 0.985328 2.1342e-20)
(0.396141 1.06001 3.72824e-20)
(0.413406 1.7049 2.83337e-19)
(0.443394 2.86543 -7.25871e-20)
(0.478557 3.33218 0)
(0.459657 3.46764 -7.77587e-20)
(0.367104 3.55727 1.03839e-19)
(0.278452 3.63048 3.58436e-19)
(0.201114 3.61186 -3.14661e-19)
(0.412473 0.469974 4.31163e-19)
(0.890701 0.982114 -7.02052e-19)
(1.04982 1.19655 0)
(1.06793 1.2278 -1.7461e-19)
(1.02072 1.21957 6.63216e-19)
(0.968149 1.18848 0)
(0.904295 1.16127 0)
(0.833508 1.12954 9.27316e-19)
(0.751063 1.09743 1.6416e-20)
(0.653896 1.06538 -1.0605e-19)
(0.545509 1.03239 -1.63977e-19)
(0.460409 1.01958 1.33713e-19)
(0.428083 1.23134 0)
(0.463022 2.10601 -1.30284e-19)
(0.510499 3.12855 1.13347e-19)
(0.569197 3.44212 -4.86376e-20)
(0.565382 3.55023 0)
(0.491065 3.65276 -2.04776e-19)
(0.412718 3.69935 -7.83154e-19)
(0.327126 3.67063 -1.98085e-19)
(0.407535 0.478508 -8.36543e-19)
(0.880593 0.999995 9.98951e-19)
(1.03703 1.2185 7.43474e-19)