/*--------------------------------*- C++ -*----------------------------------*\
  =========                 |
  \\      /  F ield         | OpenFOAM: The Open Source CFD Toolbox
   \\    /   O peration     | Website:  https://openfoam.org
    \\  /    A nd           | Version:  9
     \\/     M anipulation  |
\*---------------------------------------------------------------------------*/
FoamFile
{
    format      ascii;
    class       volScalarField;
    location    "21";
    object      p;
}
// * * * * * * * * * * * * * * * * * * * * * * * * * * * * * * * * * * * * * //

dimensions      [0 2 -2 0 0 0 0];

internalField   nonuniform List<scalar> 
918
(
0.220851
0.903086
0.0194687
0.219893
-6.3909e-05
0.870168
-0.842003
0.396393
0.200915
-0.470498
-0.147294
0.190499
0.73087
0.497845
-1.47078
-0.0030263
0.352767
-0.726198
0.199615
-0.000454814
0.471056
0.207605
0.210617
0.201186
0.26091
0.485664
0.611684
0.00794887
0.000432649
0.000783314
0.00595736
-0.00789114
-0.00560443
0.753789
0.8049
0.82757
0.169676
-0.00461707
-0.692568
-0.768635
-0.753625
-0.891455
0.385769
0.390682
-0.496312
0.398454
0.414059
0.188459
0.200184
0.201019
0.202397
0.201252
0.202672
0.159451
-0.463426
-0.487977
-0.466387
-0.470409
-0.171321
-0.199342
-0.254603
-0.112476
-0.0847711
0.125911
0.187451
0.18533
0.195323
0.205145
0.842635
0.81452
0.840655
0.754486
0.77091
0.708801
0.681275
0.51772
0.539431
0.484036
0.47118
-1.91492
-2.88951
-0.868025
-0.60868
0.000521277
-0.0065367
-0.00795897
0.339122
0.345906
0.350571
0.364705
0.749835
-0.716196
-0.861047
0.199801
0.198516
0.207042
0.207728
0.203715
0.202832
0.00896099
0.00908805
-0.0103733
0.00222977
-0.00286371
0.454795
0.448385
0.201738
0.198798
0.213013
0.235343
0.224227
-0.0308642
0.271166
0.292164
0.294003
0.46727
0.466023
0.473114
0.585281
0.548686
0.648721
0.672035
0.0151359
0.00475667
-0.0100827
-0.00673225
-0.00971095
0.165963
0.159152
0.183165
0.173288
0.175581
-0.088451
-0.223889
0.0791747
0.102481
-0.59979
-0.66748
-0.774962
-0.7895
-0.899068
0.22039
0.376073
0.378677
-0.514438
-0.430424
-0.575983
-0.355373
-0.425419
0.1791
0.185769
0.180936
0.196003
0.190683
0.19258
0.204336
0.201421
0.203014
0.200824
0.322162
0.0931816
0.0630277
-0.586021
-0.487855
-0.571892
-0.472356
-0.441236
-0.148509
-0.149488
-0.172243
-0.123392
-0.416976
-0.318331
-0.366768
-0.0560125
-0.0384201
0.118644
0.109798
0.136143
0.142095
0.179501
0.180196
0.183124
0.181112
0.631949
0.654443
0.661891
0.635487
-3.90286
-6.73034
-0.274224
-0.130871
0.00275533
0.00400174
0.00360443
0.00687888
0.00256044
-0.000321652
-0.0543594
-0.039421
-0.0122594
-0.0205957
0.326327
0.329749
0.665963
0.661683
0.653425
0.615283
0.187849
0.189949
0.195396
0.191284
-0.015621
0.00458317
-0.005609
0.415957
0.43495
0.431453
-0.066211
-0.152847
0.0155613
0.0425491
0.312717
0.296738
0.313614
0.358577
0.395933
0.67951
0.697827
0.696057
0.704444
0.748387
0.764717
0.730169
0.146723
0.156104
0.151385
0.186851
0.184334
0.185502
0.179972
0.182015
0.179141
-0.377824
-0.765186
0.169545
0.184627
0.145406
0.153882
0.296639
0.376465
0.360854
0.36766
0.372275
-0.291462
-0.355789
0.013894
-0.0333434
0.0679007
0.0990908
0.083066
0.603245
0.563353
0.613422
0.586838
0.548052
0.57444
-0.71709
-2.24839
-1.34913
0.234326
0.0398212
0.131515
-0.0939077
-0.0962988
-0.0799323
0.643967
0.722083
0.357906
0.512023
0.53532
0.433971
0.464867
0.522599
0.446769
0.482422
0.517967
0.496982
0.184039
0.173882
0.159524
0.457201
0.512698
-0.179079
-0.229391
-0.283105
-0.13497
-0.0584295
-0.0914728
0.693097
0.57713
0.655805
0.198607
0.199271
0.0128369
0.0177945
0.203105
0.203047
0.00697474
0.00228394
0.111527
-1.18252
-0.189001
0.191341
0.182218
0.198829
-0.43342
0.082982
-0.205985
-0.180852
0.0326685
0.188959
0.13555
0.102448
0.00714201
0.0060352
-0.00875491
-0.527846
0.196228
0.194553
0.19837
0.1994
0.200064
0.00681947
0.00839454
0.0062775
-0.00256685
0.00451682
0.00189246
0.164364
0.1793
-0.490158
0.198373
0.20058
0.200282
0.193235
0.198964
0.197217
0.00867853
0.00347663
-0.00465123
-0.0794588
0.0352646
0.368188
0.475384
0.323006
0.0938503
-0.151099
0.263869
0.332486
0.229968
0.396361
0.363174
0.385152
-0.129039
-0.274834
-0.118836
-0.173966
0.189338
0.188022
0.180412
0.177652
0.193976
0.192104
0.196335
0.193216
0.196134
0.197741
-0.440582
-0.448772
-0.421528
-0.474587
0.0341575
0.286426
-0.0450604
0.0450156
-0.141582
-0.166915
-0.119382
-0.289765
-0.333882
-0.359978
-0.0340084
-0.137584
-0.203206
0.0516513
-0.0584466
-0.255747
-0.116702
-0.201362
0.183363
0.180676
0.189188
0.195838
0.143423
0.145102
0.117898
0.134163
0.121834
0.0670525
0.100155
0.0778878
0.00797927
0.00905504
0.005719
0.00954619
0.00393909
0.00766274
0.00961485
0.0137445
0.00312756
0.00391498
-0.00934504
-0.000591813
-0.498843
-0.609063
0.64279
0.605377
-0.205751
0.185441
0.191868
0.188672
0.19359
0.196479
0.197223
0.19502
0.191749
0.180288
0.1823
0.178052
0.178841
-0.432959
-0.567271
-0.390167
-0.45334
-0.197973
0.303247
0.0479124
-0.0112463
-0.0151497
0.194624
0.589631
0.398025
0.42743
0.454245
-0.681232
-0.278049
-0.61069
0.00760814
-0.173642
0.367443
0.418847
0.440746
0.387583
0.336896
-0.451953
0.197222
-0.370973
-0.32899
-0.141169
-0.240033
0.413714
0.347396
0.352768
0.37591
0.399466
0.352712
0.331131
0.328558
0.366176
0.370278
0.168563
-0.0473265
-0.0929989
-0.128864
0.335621
0.207764
0.261885
0.180987
0.18409
0.186986
0.185491
0.169028
0.175967
0.171836
0.177248
0.17996
0.189527
0.189542
0.185171
0.187345
-0.445478
-0.46145
-0.408138
-0.453591
-0.469425
-0.511448
-0.417895
-0.221469
-0.28262
-0.0617084
0.0255398
-0.253418
-0.404392
-0.365553
-0.35228
-0.11975
-0.0895125
-0.435584
-0.170448
-0.263537
-0.317626
-0.0661388
-0.0488593
-0.325512
-0.408387
-0.440571
-0.343407
-0.211571
-0.193053
-0.213845
-0.0774011
-0.159041
-0.0963451
-0.0516547
-0.498268
-0.499145
-0.484207
-0.497709
0.00897921
0.00699941
0.00477212
-0.0210221
-0.0105854
-0.014313
0.178463
0.178469
0.178439
0.192119
0.204078
0.219366
0.185404
0.162588
0.15519
0.157229
0.133379
0.141623
0.138232
0.150327
0.168106
0.175815
0.175072
0.177126
0.161626
0.162183
0.151961
0.155723
0.134168
0.117192
0.107349
0.00920345
0.00735272
0.00718299
0.00564812
0.01182
0.0109189
-0.00013566
0.00898304
0.0031839
0.00603586
-0.0167447
0.0148465
0.0096914
-0.42096
-0.35123
-0.51823
-0.550978
-0.61874
0.556733
0.666552
0.493962
0.278063
0.276956
0.499822
0.595221
0.260775
0.427553
0.46107
0.198684
0.483853
0.190296
0.189558
0.186991
0.186624
0.187948
-0.343174
-0.246825
-0.234023
-0.183039
-0.0684707
0.0454065
-0.0407478
-0.163252
-0.0233217
-0.00764568
0.298011
0.312941
0.25685
0.28299
0.283204
0.109306
0.184165
0.238032
0.195087
0.23689
0.258734
0.22106
0.250452
0.197342
0.157064
0.156282
0.103857
0.123524
0.101459
0.0845375
0.17979
0.159472
0.16808
0.16185
0.180521
0.208313
0.203214
0.226658
0.239818
0.166746
0.129508
0.137666
0.164016
0.128884
0.141221
0.155138
-0.136252
-0.2348
-0.145522
-0.439006
-0.344842
-0.360857
-0.406262
-0.371808
-0.0852208
-0.789426
-0.754186
-1.39255
0.132621
0.619597
0.367718
0.340016
0.397476
0.373973
0.377767
0.410679
0.416151
0.326069
0.338852
0.345755
0.294937
0.319667
0.350828
0.346574
0.177774
0.0599142
0.0486361
0.0147681
-0.104911
-0.0752709
0.125195
0.0490667
-0.0222027
-0.0155219
0.144305
0.038568
0.100302
0.138153
0.0708331
0.0302091
0.224745
0.293233
0.283659
0.256143
0.171608
0.183837
0.208498
0.244967
0.270471
0.304499
0.177005
0.182574
0.183832
0.18149
0.179009
0.181532
0.181452
0.184055
0.184982
0.187652
0.186715
-0.406268
-0.453186
-0.476048
-0.433707
-0.484176
-0.453602
-0.331682
-0.378521
-0.532935
-0.546819
-0.497209
-0.476324
-0.478055
-0.488443
-0.273163
-0.249904
-0.216685
-0.286289
-0.0458764
0.0937861
0.146588
0.0230929
-0.0590058
-0.0425006
-0.011391
-0.490406
-0.30846
-0.389132
-0.323639
-0.446365
-0.159407
-0.127337
-0.142235
-0.176644
-0.2148
-0.0877171
-0.00535047
-0.0212264
-0.0375635
-0.0219575
-0.00875299
0.166747
0.160714
0.158083
0.154179
0.153501
0.16379
0.168606
0.17123
0.176832
0.177463
0.168659
0.172923
0.175907
0.00955276
0.00973542
0.0138334
-0.0111259
0.00355142
0.00935218
-0.00147257
-0.22705
-0.293098
-0.296781
-0.333476
-0.461539
-0.405046
0.136013
0.115904
0.14293
0.348218
0.199131
0.113501
0.199952
0.305034
-0.0725098
0.117158
-0.045117
0.535441
0.418664
0.56309
0.185962
-0.111413
0.0318388
0.0871799
-0.109145
-0.0364564
-0.0117584
-0.122635
-0.0887496
-0.0611527
0.0384545
-0.0844715
-0.116085
-0.359622
-0.174845
-0.0445946
-0.0649239
0.0626823
0.124143
-0.0981833
-0.181257
-0.219958
0.287019
0.305965
0.322974
0.295202
0.319409
0.243359
0.235195
0.253548
0.264498
0.257567
-1.12443
-0.8358
-1.77595
-1.08535
-0.640787
0.161767
0.118243
0.409599
0.303477
0.384887
0.367773
0.32595
0.288153
0.297449
0.335685
0.0377152
0.143758
0.118323
0.126848
0.03214
-0.0327419
0.259206
0.254064
0.289442
0.312898
0.2829
0.314413
0.175149
0.174678
0.174401
0.171438
0.169801
0.171284
-0.401607
-0.470544
-0.308926
-0.323847
-0.383927
-0.449669
0.0185455
-0.0149529
-0.0138806
-0.00642291
0.0218936
0.00131995
-0.190264
-0.248659
-0.315422
-0.29197
-0.345722
-0.411831
-0.431449
-0.327998
-0.235328
-0.246216
0.0544367
0.307611
0.129596
0.301507
0.135449
0.196119
0.141617
0.129902
0.165616
0.0340608
0.112352
-0.15223
-0.648302
-0.557021
0.420174
0.442512
0.224141
0.0292969
-0.193895
0.00438654
0.206389
0.147084
0.187292
0.253278
0.247375
-0.357795
-0.281347
-0.0525401
0.174459
-0.129989
-0.134927
-0.140132
0.023611
-0.0436357
)
;

boundaryField
{
    wall-4
    {
        type            zeroGradient;
    }
    velocity-inlet-5
    {
        type            zeroGradient;
    }
    velocity-inlet-6
    {
        type            zeroGradient;
    }
    pressure-outlet-7
    {
        type            fixedValue;
        value           uniform 0;
    }
    wall-8
    {
        type            zeroGradient;
    }
    frontAndBackPlanes
    {
        type            empty;
    }
}


// ************************************************************************* //
