/*--------------------------------*- C++ -*----------------------------------*\
  =========                 |
  \\      /  F ield         | OpenFOAM: The Open Source CFD Toolbox
   \\    /   O peration     | Website:  https://openfoam.org
    \\  /    A nd           | Version:  9
     \\/     M anipulation  |
\*---------------------------------------------------------------------------*/
FoamFile
{
    format      ascii;
    class       volVectorField;
    location    "21";
    object      U;
}
// * * * * * * * * * * * * * * * * * * * * * * * * * * * * * * * * * * * * * //

dimensions      [0 1 -1 0 0 0 0];

internalField   nonuniform List<vector> 
918
(
(0.98515 -0.000533933 0)
(0.00500184 2.96626 0)
(-0.0114646 1.57832 0)
(0.979691 0.00216779 0)
(-0.00313636 1.55745 5.49101e-21)
(-0.00703203 2.94878 -1.84699e-18)
(0.855524 1.19932 7.40757e-19)
(0.413006 0.187252 -8.70707e-21)
(0.999905 -0.000322694 0)
(0.0718935 0.809339 0)
(-0.0535843 0.99785 0)
(0.761366 -0.0115126 0)
(0.0111187 2.93031 0)
(0.0020074 2.79452 0)
(-0.0176097 3.16742 1.09497e-18)
(-0.00284517 1.44113 4.48077e-21)
(0.534428 0.0833855 5.46066e-19)
(0.193125 1.2039 6.54119e-19)
(0.962989 0.00514352 0)
(0.00360853 1.29379 0)
(0.13693 0.246093 -4.66501e-19)
(1.00208 -0.0049955 0)
(1.00023 -0.00975271 0)
(0.975757 -0.00645096 0)
(0.67329 -0.0377091 0)
(0.0174038 2.63246 0)
(-0.0150505 2.91013 6.3608e-19)
(-0.0250749 1.58912 0)
(-0.0305928 1.72616 0)
(-0.0250532 1.58053 0)
(-0.00602479 1.85231 0)
(0.00216836 1.58054 -4.343e-21)
(-0.00258797 1.45614 0)
(-0.0206227 2.98758 -6.45069e-23)
(-0.0167039 3.00531 1.43569e-18)
(0.00210817 3.00021 0)
(0.870865 -0.0091313 0)
(0.394359 0.93151 -3.90465e-20)
(0.835709 1.21717 -1.0398e-18)
(0.982072 1.05358 9.73732e-19)
(0.702296 1.31294 -1.71758e-19)
(0.698948 1.30252 9.63296e-19)
(0.447379 0.275165 8.4952e-21)
(0.441293 0.173301 0)
(1.16403 0.562029 0)
(0.414973 0.286036 3.98841e-20)
(0.373447 0.189023 -4.13897e-20)
(0.919493 -0.0074451 0)
(1.00028 5.62735e-05 0)
(0.99991 0.00030591 0)
(1.00352 -0.00778794 0)
(1.00094 -0.0010617 0)
(1.00017 -8.19683e-06 0)
(0.0505088 1.81817 -2.96727e-19)
(0.0390229 0.949116 0)
(0.0806381 0.912721 0)
(0.0142359 0.86309 0)
(0.00892157 0.729152 0)
(0.00432498 1.53528 0)
(-0.0669127 1.04649 0)
(-0.0510928 0.853736 0)
(-0.0471337 1.18674 0)
(-0.0350414 1.11599 0)
(0.842157 -0.00411823 0)
(0.861372 0.0107238 0)
(0.774657 -0.0026847 0)
(0.854408 0.0159203 0)
(0.7476 -0.0131424 0)
(0.0147056 3.00039 6.75734e-19)
(0.0115355 3.00789 0)
(0.00614019 3.00285 0)
(0.0135543 2.99733 7.52838e-24)
(0.00799682 2.95845 -1.00431e-18)
(0.0144847 2.98204 0)
(0.0107777 2.90365 0)
(0.0252999 2.93019 1.33867e-24)
(0.0041075 2.82495 0)
(0.0317867 2.91538 0)
(-0.00668096 2.74475 0)
(0.311435 3.56787 0)
(-0.132436 3.65014 0)
(0.141215 3.25819 -1.01903e-18)
(-0.0111738 2.9902 0)
(-0.0234758 1.82759 0)
(0.00760746 1.61804 -4.4199e-21)
(-0.00290447 1.44819 9.22198e-21)
(0.586879 0.151394 -1.87721e-19)
(0.52883 0.0514688 -1.82829e-19)
(0.575305 0.181325 -5.66492e-19)
(0.523686 0.112873 -3.8094e-19)
(0.20736 0.893817 0)
(0.271945 1.34907 -6.75354e-19)
(0.39779 1.30341 1.10865e-18)
(0.98754 0.00847053 0)
(0.942383 0.0059553 0)
(1.00029 0.000561412 0)
(1.00288 0.00927852 0)
(1.00306 0.00849634 -1.03317e-18)
(0.99195 0.00966284 7.80209e-19)
(-0.0106575 1.45671 0)
(-0.0064646 1.27892 0)
(-0.0336086 1.59563 0)
(-0.0199123 1.49951 0)
(-0.00258338 1.32816 0)
(0.202927 0.257227 1.43838e-19)
(0.249084 0.234514 0)
(0.993559 -0.00827002 0)
(0.95439 -0.00640961 0)
(0.823069 0.0245806 0)
(0.790119 0.0365039 0)
(0.72542 -0.0283804 0)
(0.990542 -0.00374709 0)
(0.732434 0.0514901 0)
(0.583773 -0.0169757 7.26619e-19)
(-0.0354925 2.86649 3.16908e-19)
(0.0434031 2.90829 0)
(0.0566413 2.88308 0)
(-0.00510634 2.69673 0)
(-0.0131991 2.98516 5.83614e-19)
(-0.0182862 2.89539 0)
(-0.0154186 2.98812 -1.84868e-18)
(-0.0134087 2.92521 6.38894e-19)
(-0.0283304 1.81322 0)
(-0.0238179 1.81271 0)
(0.00250156 1.59909 2.21103e-22)
(0.00388317 1.57421 0)
(-0.00529061 1.45153 0)
(0.936622 -0.00599957 0)
(0.855205 -0.00937945 0)
(0.864523 0.00859706 0)
(0.948616 -0.00723981 0)
(0.883379 -0.00840159 0)
(0.508194 1.12732 3.77256e-20)
(0.56011 1.18276 0)
(0.353921 0.869204 3.27919e-21)
(0.297174 0.730782 0)
(0.942015 1.08993 -2.81588e-19)
(1.05386 0.888215 5.77021e-19)
(0.394969 1.4017 0)
(0.554955 1.37948 0)
(0.556268 1.33242 0)
(0.0980738 0.14974 -1.19702e-19)
(0.490482 0.259407 0)
(0.474463 0.158974 1.0868e-19)
(1.02352 0.941079 0)
(1.08912 0.783814 0)
(1.11507 0.726336 -5.05496e-19)
(1.14413 0.621279 0)
(1.19543 0.404302 5.80985e-20)
(0.956996 -0.00896898 0)
(0.962185 -0.0102313 0)
(0.900929 -0.00809919 0)
(0.9842 -0.0091276 0)
(0.97453 -0.00935855 0)
(0.936879 -0.0062592 0)
(1.0002 0.00231824 0)
(1.00086 0.00129742 0)
(0.999931 0.000862613 0)
(0.00924092 2.02566 1.78078e-19)
(0.126034 1.71839 0)
(-0.03459 2.07641 1.98854e-19)
(-0.0182782 1.85512 -1.10224e-19)
(0.133856 1.19707 -5.42165e-19)
(0.072329 1.04701 0)
(0.105178 1.04797 0)
(0.00609105 0.82277 0)
(-0.0108247 0.699441 0)
(-0.00628635 1.75773 2.18816e-21)
(-0.0638395 1.62687 0)
(0.053368 1.70871 1.28757e-19)
(-0.00272516 1.46462 -2.22874e-19)
(-0.0240375 0.819805 0)
(-0.0545029 0.912309 0)
(-0.0352733 0.746346 0)
(-0.034949 1.29932 0)
(-0.0218959 1.19134 0)
(0.933458 0.0152461 0)
(0.863477 -0.000859874 0)
(0.917301 0.00585698 0)
(0.835721 -0.00782417 0)
(0.811012 0.0053119 0)
(0.902531 0.0151945 0)
(0.881262 0.0133582 0)
(0.786705 0.0034267 0)
(0.00588872 3.06486 -5.92034e-21)
(0.0163653 3.05794 0)
(0.0146623 2.96915 0)
(0.0085563 2.87639 0)
(0.929612 3.98806 0)
(1.24546 3.3177 1.01828e-18)
(0.0714938 3.08242 0)
(-0.0266222 2.91067 0)
(-0.0294736 1.80296 0)
(-0.032137 1.82094 0)
(-0.0276258 1.81007 0)
(-0.0105781 1.84063 5.79785e-21)
(-0.0239592 1.83884 0)
(-0.0182722 1.83458 0)
(0.00869133 1.46285 -2.49963e-20)
(0.0227986 1.65804 -4.117e-20)
(0.0109655 1.63487 -9.25507e-21)
(-0.000815568 1.45624 0)
(0.616624 0.124714 2.76673e-19)
(0.547748 0.0216463 -2.6941e-19)
(0.267036 1.5267 0)
(0.259051 0.663753 -2.07131e-19)
(0.183259 1.6142 -6.97141e-19)
(0.244642 1.16118 6.98891e-19)
(0.90383 0.00671145 0)
(0.967807 0.0106788 0)
(0.974934 0.0105981 0)
(0.924395 0.0066236 0)
(-0.0277226 1.38134 0)
(-0.017622 1.43145 0)
(-0.0149881 1.23997 0)
(0.372795 0.290284 3.68996e-19)
(0.316106 0.27249 -4.51064e-19)
(0.32297 0.210565 0)
(1.11459 0.0849523 -4.63285e-21)
(1.0999 0.0391295 0)
(1.02714 0.0387171 0)
(0.930086 0.00464945 0)
(0.641966 0.093176 0)
(0.673121 0.067898 -1.16989e-18)
(0.563143 0.00600445 4.47397e-19)
(0.00978245 2.98224 4.08737e-19)
(-0.0321974 2.86763 4.81171e-20)
(0.00377331 3.05023 -1.28086e-20)
(0.0199732 3.04347 4.60603e-19)
(-0.0150015 2.99654 2.12607e-20)
(-0.012985 2.94941 -8.60817e-23)
(-0.0172964 3.01201 -4.03616e-19)
(0.0148136 3.02402 2.92099e-19)
(0.00731606 3.03682 -4.56007e-19)
(0.924261 -0.000234026 0)
(0.933562 -0.00200477 0)
(0.840417 -0.00752764 0)
(0.957363 0.0115182 0)
(0.944054 0.0133776 0)
(0.883447 0.0072724 0)
(0.918569 0.0144241 0)
(0.927788 0.0145481 0)
(0.8393 0.00774816 0)
(0.716837 1.41297 3.38265e-19)
(0.75257 1.52434 0)
(0.221877 0.362208 2.43898e-20)
(0.18214 0.585196 1.95555e-19)
(0.266007 0.689928 -1.07807e-19)
(0.22766 0.573194 1.96035e-19)
(0.291383 0.699691 6.96052e-19)
(0.104121 0.179883 2.11336e-19)
(0.552947 0.218111 4.09491e-19)
(0.520935 0.241478 1.01005e-19)
(0.500746 0.141827 2.05945e-19)
(1.18472 0.461317 3.04032e-19)
(1.20237 0.256082 3.18052e-19)
(-0.0583734 2.05394 3.59352e-20)
(-0.0175339 1.83663 0)
(0.978336 0.0287146 0)
(0.945873 0.0190512 0)
(0.88951 -0.0021484 0)
(0.0111491 3.07471 0)
(0.0200897 2.94424 7.87617e-19)
(0.0165109 2.95652 0)
(0.00607683 2.85066 -7.8127e-19)
(0.00617196 3.09203 1.86491e-19)
(0.00713174 3.08214 0)
(0.786615 1.82975 -2.42292e-19)
(1.25257 2.51359 6.68187e-19)
(0.769534 1.97111 -1.50371e-18)
(0.0210252 2.98453 -2.94212e-19)
(0.0369714 3.00691 0)
(-0.0324894 2.88204 0)
(0.0751847 1.67123 1.8736e-20)
(0.0445441 1.68983 1.43685e-19)
(0.0372846 1.46031 -1.06222e-21)
(0.279015 1.33715 6.70527e-19)
(0.218603 0.444523 -4.62661e-19)
(0.0566818 1.94575 4.63099e-19)
(0.133944 1.82324 -5.80409e-19)
(0.204301 1.46332 8.26548e-20)
(0.00575378 3.11844 -9.75743e-19)
(0.0119402 3.11911 1.0655e-18)
(-0.00881457 2.98079 5.0575e-19)
(-0.00366219 2.9777 -4.44928e-19)
(-0.0216371 2.88162 -5.15098e-19)
(0.00856428 3.09931 -1.3637e-18)
(0.00180569 3.10533 1.36768e-18)
(0.225452 0.617899 0)
(0.178035 0.601757 -3.84751e-19)
(0.121224 0.204647 1.7184e-19)
(0.320904 0.821068 6.34466e-19)
(0.170928 0.224992 -9.68863e-19)
(1.19826 0.171312 -6.10374e-20)
(1.20199 0.308398 0)
(1.18692 0.11955 1.25576e-19)
(-0.0435562 1.88763 2.37568e-21)
(-0.0391997 1.99046 0)
(-0.0503243 1.75789 0)
(0.33 1.22004 -2.43882e-19)
(0.350682 1.0375 -5.19579e-19)
(0.190114 0.320135 8.90453e-19)
(1.00584 -0.0110678 0)
(1.00759 -0.00761503 1.88615e-19)
(-0.0295411 1.79448 0)
(-0.0375885 1.8006 0)
(1.00221 0.00337863 1.6733e-21)
(1.00354 0.00923805 3.8784e-19)
(-0.0115295 1.84821 -7.61391e-21)
(-0.00766659 1.85039 0)
(0.0390738 3.18339 1.02938e-19)
(0.400429 3.50283 0)
(1.11771 0.645255 6.88436e-20)
(1.01313 0.0127601 -2.07997e-21)
(1.02119 -0.0105094 0)
(1.00173 -4.2739e-05 1.73369e-24)
(0.162708 1.24567 0)
(0.19173 2.58089 0)
(-0.227772 1.24038 0)
(-0.217798 2.54482 -1.67338e-19)
(-0.151833 2.18834 3.28735e-20)
(1.00659 0.0128442 3.06598e-21)
(1.04964 0.00786867 0)
(1.07469 0.0307748 0)
(-0.0342166 1.82329 0)
(-0.0325375 1.90827 0)
(-0.0520024 1.74359 0)
(0.285759 1.45358 -4.49826e-19)
(1.01109 -0.00960768 0)
(1.00947 -0.0153068 0)
(1.00238 0.000392843 2.38921e-19)
(1.0055 -0.00500237 -2.83798e-19)
(1.00123 -0.00109047 0)
(-0.0434954 1.80939 0)
(-0.0336665 1.79205 0)
(-0.0348116 1.80217 0)
(-0.0429537 1.74897 0)
(-0.0319777 1.76744 0)
(-0.0363807 1.76358 0)
(1.03268 -0.0120896 0)
(1.02069 0.0158528 -1.1562e-21)
(0.781684 1.26476 5.28635e-19)
(1.00244 0.000256133 -2.39949e-19)
(1.00375 0.00533381 2.82866e-19)
(1.00127 0.00213234 0)
(1.01303 0.0100786 2.33173e-19)
(1.00828 0.00830931 -2.90308e-19)
(1.00865 0.0144645 0)
(-0.0296741 1.90438 0)
(-0.0176965 1.87421 2.00514e-21)
(-0.0162471 1.87635 5.0999e-22)
(1.19006 0.256437 -9.06335e-20)
(1.1286 0.0897829 0)
(0.0524457 3.078 -5.02932e-19)
(0.0681945 2.85118 -4.05254e-20)
(0.147547 3.19739 7.9321e-19)
(0.141614 3.22642 5.30421e-21)
(0.140086 3.24243 0)
(0.021015 3.13853 1.07925e-19)
(0.0803186 3.16216 4.90016e-19)
(0.072967 3.18952 -2.08985e-19)
(0.0250711 3.12855 0)
(0.664067 0.325214 0)
(0.603235 0.367708 0)
(1.09065 0.671817 -2.61196e-19)
(1.08791 0.81231 4.01374e-19)
(1.14628 0.561383 0)
(1.17767 0.50296 0)
(1.01601 0.0130129 -4.30431e-19)
(1.01461 0.01398 5.37751e-19)
(1.02515 -0.0104988 0)
(1.02336 -0.0121337 0)
(1.00689 0.00275341 0)
(1.01023 0.00313491 0)
(1.00493 0.00156563 0)
(1.00987 0.00580977 0)
(1.00824 0.00635848 0)
(1.0042 0.0046267 0)
(0.181806 1.24782 0)
(0.126649 1.09319 0)
(0.209609 1.33557 0)
(0.124712 1.33609 0)
(0.167741 2.59159 0)
(0.204672 2.63444 -2.07581e-19)
(0.0951525 2.65689 0)
(0.0839872 2.6413 -1.08802e-20)
(-0.097206 2.7093 2.0817e-19)
(-0.189902 1.30204 0)
(-0.181196 1.33958 0)
(-0.210897 1.2241 0)
(-0.147377 1.07183 0)
(-0.399174 2.2276 2.37756e-19)
(-0.22339 2.32631 -7.81556e-20)
(-0.209177 2.53024 -1.73032e-19)
(-0.168377 2.42422 0)
(-0.14016 2.18281 -5.11815e-20)
(-0.0829714 2.11438 3.36215e-20)
(-0.430694 2.1974 -2.20573e-19)
(-0.31859 2.25961 1.02409e-19)
(-0.296287 2.39273 2.30969e-19)
(1.01645 0.02541 4.24504e-19)
(1.01193 0.0129372 -5.20936e-19)
(1.00812 0.0229775 -4.45163e-19)
(0.991791 0.0124561 5.66836e-19)
(1.04968 0.00849827 0)
(1.03633 -0.0114099 0)
(1.07126 0.039243 0)
(1.05569 0.0180507 0)
(1.05424 0.0120818 0)
(1.11217 0.077386 0)
(1.08456 0.0485522 0)
(1.08757 0.03919 0)
(-0.0276934 1.8534 -1.65298e-21)
(-0.0414001 1.84038 0)
(-0.0297906 1.8417 0)
(-0.0439797 1.94071 5.2044e-21)
(-0.0350445 1.95595 1.09778e-22)
(-0.0748111 1.81507 1.01762e-20)
(-0.0521754 1.80902 -1.03212e-20)
(-0.0629401 1.76878 0)
(-0.0486345 1.78763 0)
(-0.0461628 1.78977 0)
(-0.071466 1.72135 0)
(-0.0530149 1.67082 0)
(0.39013 1.47188 8.50327e-19)
(0.409518 1.48652 3.29953e-19)
(0.588677 2.43211 -1.52514e-19)
(0.403827 2.52099 4.28073e-19)
(0.341419 2.09023 -4.40206e-20)
(1.02067 -0.00872706 0)
(1.01515 -0.00985412 0)
(1.01485 -0.0157059 0)
(1.00752 -0.00123703 0)
(1.00464 -0.0014979 0)
(1.00745 -0.00472684 0)
(1.00956 -0.00399763 0)
(1.01376 -0.00461832 0)
(1.02216 0.0162741 4.07688e-19)
(1.01737 0.0156236 -5.23917e-19)
(1.0238 0.0200835 -4.14624e-19)
(1.01751 0.0207794 5.19535e-19)
(0.756374 1.31169 0)
(0.687577 1.36983 6.27488e-19)
(0.858066 1.20279 3.66275e-19)
(0.898894 1.16076 -4.87397e-19)
(1.14876 2.61685 -5.73452e-19)
(0.835566 0.108126 2.83075e-19)
(1.1283 0.101173 0)
(1.17348 0.180597 7.77242e-20)
(1.15935 0.156942 3.4069e-21)
(0.982047 0.122393 0)
(0.147911 2.96707 1.17532e-19)
(0.12539 2.87306 -6.49853e-19)
(0.0377774 2.35628 4.71863e-19)
(0.10313 0.0957954 -1.98222e-19)
(0.345133 3.43096 -4.49581e-19)
(0.1994 3.32177 0)
(0.240769 3.36634 5.85497e-19)
(0.255769 3.0407 -7.16128e-19)
(0.349839 3.20017 0)
(0.00769633 3.12048 2.58037e-20)
(0.018906 3.12938 -3.28704e-19)
(0.0165539 3.12531 4.83815e-19)
(0.037775 3.13973 0)
(0.0361306 3.15177 0)
(1.21572 2.61847 0)
(0.51027 0.854382 -2.27206e-19)
(1.01925 0.987552 -2.07885e-19)
(0.954369 1.05371 0)
(0.798238 0.949348 5.92202e-20)
(1.04047 0.861258 3.05172e-20)
(0.408032 0.455525 -5.30781e-19)
(0.701154 0.33624 -2.22193e-20)
(0.688081 0.280072 2.17134e-19)
(0.614919 0.398591 1.7387e-20)
(0.552948 0.385331 -7.15888e-19)
(0.674565 0.359323 0)
(0.708539 0.424409 3.54126e-19)
(0.705908 0.421772 0)
(0.640872 0.388154 0)
(0.624795 0.32992 0)
(0.765697 0.587139 1.23819e-19)
(1.18863 0.272237 5.98632e-20)
(1.18497 0.402959 0)
(1.19703 0.358158 0)
(0.766552 0.198337 3.27977e-19)
(0.820487 0.520772 -1.77198e-19)
(0.737746 0.492917 2.87974e-19)
(0.913456 0.418861 -2.65893e-19)
(1.01928 0.0144909 2.82055e-19)
(1.01763 0.013837 -2.89794e-19)
(1.01506 0.0155308 0)
(1.03427 -0.008899 0)
(1.02905 -0.00948993 -2.57861e-19)
(1.02681 -0.0124035 2.54942e-19)
(1.02595 0.00794206 0)
(1.02467 0.0130631 0)
(1.0115 0.00395424 0)
(1.01427 0.00902113 0)
(1.01515 0.00366919 0)
(1.01389 0.00206181 0)
(0.13908 1.05973 0)
(0.0539921 0.960556 0)
(0.270091 1.37774 4.19026e-19)
(0.260819 1.45007 2.61386e-19)
(0.196687 1.43293 5.97186e-19)
(0.202549 1.42717 -9.54853e-19)
(0.219268 1.41009 0)
(0.209532 1.60908 2.48666e-19)
(0.243947 1.61371 0)
(0.328343 2.03967 6.39463e-20)
(0.340138 2.37916 2.26685e-19)
(0.204906 1.46731 -2.26062e-19)
(0.243395 1.39318 2.00345e-19)
(0.223123 1.38633 -1.60629e-19)
(0.255053 1.33634 3.28623e-19)
(0.19732 1.58326 0)
(0.281398 1.61153 -2.0713e-19)
(-0.0199766 2.52135 1.88546e-19)
(-0.070271 2.73617 0)
(0.104418 2.51016 -3.01296e-19)
(0.0276756 2.59114 0)
(0.0513421 2.7057 1.06293e-20)
(-0.0282483 2.73715 0)
(-0.380888 1.5475 3.51542e-19)
(-0.420885 1.69063 0)
(-0.247659 1.33888 0)
(-0.302983 1.3382 -3.96353e-19)
(-0.221476 2.62843 -7.36933e-20)
(-0.168439 2.72114 -2.75107e-19)
(-0.181005 2.68488 -1.77119e-21)
(-0.396441 2.02196 -3.51134e-20)
(-0.439579 1.97897 -8.22048e-20)
(-0.156728 1.42951 0)
(-0.111847 1.46252 0)
(-0.17842 1.85243 -7.18269e-19)
(-0.202985 1.40631 -6.97204e-19)
(-0.255346 1.65483 8.83024e-19)
(0.0787247 1.81433 0)
(-0.0883859 1.8841 -2.33106e-20)
(-0.0766522 1.9229 7.52629e-21)
(-0.0913554 1.94574 -1.80722e-21)
(-0.330057 1.92024 4.10138e-20)
(-0.150056 2.05125 1.87351e-21)
(-0.182455 2.10855 1.79391e-20)
(1.02048 0.0237702 -2.78477e-19)
(1.01893 0.0239318 2.77254e-19)
(1.01447 0.0209173 0)
(1.00529 0.0481955 4.04986e-19)
(0.993801 0.034518 -4.76264e-19)
(0.965453 0.0229393 5.52277e-19)
(1.00616 0.0825844 -5.23901e-20)
(1.03805 -0.0111955 0)
(1.03946 -0.00753726 2.30024e-19)
(1.03135 -0.0202406 -2.32111e-19)
(1.05708 0.043384 -1.2615e-20)
(1.05521 0.0262625 1.1288e-19)
(1.05421 0.051379 0)
(1.04667 0.0434966 -4.23431e-20)
(1.03862 0.0278275 0)
(1.03413 0.023057 0)
(1.02926 0.0112238 0)
(1.02772 0.0151531 0)
(1.04642 0.0265204 8.82428e-20)
(1.04678 0.0193289 -1.99969e-19)
(1.04931 0.028555 -8.8591e-20)
(1.04716 0.0286374 -1.03166e-19)
(1.05502 0.0572903 1.83891e-19)
(1.07692 0.0508113 0)
(1.0805 0.0932581 0)
(-0.0818632 1.87919 -9.95981e-21)
(-0.0523658 1.84347 -1.57385e-21)
(-0.064198 1.85231 0)
(-0.0541474 1.88289 9.96886e-21)
(-0.0338913 1.85831 3.09485e-21)
(-0.0402602 1.8699 -2.0657e-21)
(-0.0685775 2.08464 -3.90703e-20)
(-0.0967485 1.97996 -6.5522e-22)
(-0.114541 2.01191 5.37321e-22)
(-0.0460606 2.00582 5.04334e-21)
(-0.0470654 2.02524 -4.83829e-21)
(-0.098183 1.78854 -8.43383e-23)
(-0.0959371 1.81804 1.34109e-20)
(0.387781 1.39675 -4.36309e-19)
(0.365745 1.37703 -4.27063e-19)
(0.640681 1.41781 -6.03862e-19)
(0.51893 1.47918 -3.2633e-19)
(0.557814 1.45606 0)
(0.58759 2.40528 1.2046e-19)
(0.653816 2.38949 2.22035e-19)
(0.408164 2.49614 7.7457e-20)
(0.405384 2.55312 -1.60864e-19)
(0.515682 2.51652 2.56765e-19)
(0.542242 2.44493 0)
(0.482857 2.48722 -3.48335e-19)
(0.258112 2.55185 6.04425e-19)
(0.343721 2.53711 -7.34616e-20)
(0.287833 2.61424 -9.19153e-19)
(0.924547 2.37247 2.08539e-19)
(0.832058 2.36324 0)
(1.01046 0.000488414 9.40454e-21)
(1.01539 -0.00572977 -7.78229e-21)
(1.018 -0.00404709 -1.40047e-19)
(1.01507 -0.000482031 1.40023e-19)
(1.01231 0.00102981 0)
(0.623157 1.2581 0)
(0.621563 1.17418 0)
(0.729907 1.07785 0)
(0.6197 1.12359 0)
(1.17939 2.63343 5.62275e-20)
(1.0626 2.36664 0)
(0.831692 2.23351 -1.86006e-21)
(0.829556 2.47938 0)
(0.917564 2.56219 2.21475e-20)
(0.95 2.51807 -1.48381e-20)
(0.843353 0.14593 0)
(0.812223 0.151093 8.16678e-20)
(0.927941 0.126001 4.13974e-19)
(0.866814 0.116494 -1.6666e-19)
(0.852245 0.0666735 -5.02507e-19)
(1.03379 0.213681 -2.25446e-19)
(0.954626 0.273104 -1.59668e-20)
(0.901052 0.271339 3.7552e-19)
(0.968427 0.197821 2.76994e-19)
(0.935334 0.158948 -5.18455e-19)
(0.909676 0.172767 6.7352e-20)
(0.934929 0.235139 -1.30667e-19)
(0.912047 0.193992 0)
(0.970417 0.158928 2.47598e-19)
(1.00934 0.163008 0)
(1.0056 0.189464 0)
(1.07329 0.109029 7.67754e-20)
(1.03335 0.154043 -1.29632e-20)
(1.02777 0.216181 -4.29693e-20)
(1.06412 0.189127 0)
(1.0237 0.0273411 2.11025e-19)
(1.04051 0.0473931 2.4982e-19)
(1.03907 0.0319439 -2.09508e-19)
(1.0372 0.0517956 -1.68245e-19)
(1.01698 0.0533095 -2.84943e-19)
(0.975038 0.123789 0)
(0.984043 0.0765163 0)
(0.96873 0.0429736 -1.99087e-19)
(0.936017 0.0576619 8.35333e-20)
(1.02445 0.0824765 2.37107e-19)
(1.03979 0.110392 -2.36415e-19)
(1.04283 0.135178 2.16294e-19)
(1.00804 0.123034 0)
(1.04906 0.0968386 0)
(1.03638 0.0793699 -9.91219e-20)
(1.03406 0.0801006 -1.90146e-19)
(0.567731 1.0756 -1.05035e-19)
(0.614566 1.45051 2.04892e-19)
(1.15435 2.76251 1.15543e-19)
(1.2231 3.09794 -7.35843e-20)
(1.24453 2.73529 5.81996e-19)
(1.27793 2.71893 -3.49073e-19)
(1.20359 2.35262 -7.77029e-21)
(1.20885 3.0017 2.05917e-19)
(1.22621 2.96677 -2.33318e-19)
(1.21539 3.25108 -2.73135e-19)
(1.37767 2.98218 3.78253e-19)
(1.37099 2.89871 0)
(0.514096 0.863119 -1.16635e-20)
(0.161362 1.2901 3.66497e-19)
(0.526696 0.531396 3.49712e-19)
(0.360623 0.301083 3.81671e-19)
(0.561462 0.419667 4.00755e-19)
(0.562388 0.48686 -6.39034e-19)
(0.56458 0.50504 5.26575e-19)
(0.525693 0.456196 -2.10011e-19)
(0.474721 0.393751 4.81091e-19)
(0.774052 0.256038 -1.83641e-19)
(0.729454 0.303831 0)
(0.720073 0.247384 1.03455e-20)
(0.7303 0.509047 1.84485e-19)
(0.70174 0.472098 -6.81418e-19)
(0.627138 0.483297 1.90979e-20)
(0.642168 0.45656 0)
(0.637865 0.731394 1.44397e-19)
(0.783659 0.751888 4.86923e-20)
(0.710472 0.838621 -6.53767e-20)
(0.831197 0.788755 -1.40227e-20)
(0.868086 0.829779 1.52126e-20)
(0.876708 0.832936 -1.5575e-20)
(0.805347 0.622551 -2.11489e-19)
(0.88014 0.678718 1.30301e-20)
(0.939123 0.694845 0)
(0.92767 0.671655 -1.04493e-20)
(0.98067 0.310547 5.7629e-20)
(1.09596 0.280102 -2.99956e-21)
(1.01863 0.247363 9.19612e-20)
(0.965017 0.346617 -1.34728e-19)
(1.01636 0.403651 0)
(1.05604 0.390321 0)
(0.88686 0.35699 5.53939e-21)
(0.82289 0.287003 0)
(0.846382 0.272613 1.9538e-19)
(0.879356 0.279138 -5.91534e-21)
(0.906494 0.421397 7.25889e-19)
(0.868566 0.475431 1.8407e-19)
(0.874553 0.444448 -2.39302e-19)
(0.804167 0.428876 2.56676e-19)
(0.790583 0.426741 1.76002e-19)
(0.75659 0.410587 -1.73098e-19)
(1.02768 -0.0021949 2.24893e-19)
(1.01981 -0.000412033 0)
(1.01827 0.000462481 1.49196e-19)
(1.02202 -0.00113745 -3.35482e-19)
(1.0214 0.0035105 1.62036e-19)
(1.02082 0.0101823 -3.40755e-19)
(1.02189 0.00960831 0)
(1.02058 0.0106604 -7.19656e-20)
(1.01624 0.00746979 1.80633e-19)
(1.01694 0.0103249 -9.06756e-20)
(1.01762 0.00950922 6.63802e-20)
(-0.142758 1.09554 0)
(-0.201806 1.27736 0)
(-0.033638 1.03411 0)
(-0.0513745 0.94589 0)
(0.243368 1.32783 -1.02917e-18)
(0.243847 1.26247 3.43026e-19)
(0.283552 1.55913 2.12202e-19)
(0.283732 1.32829 -2.11391e-19)
(-0.0539814 1.47414 8.40103e-19)
(0.0245495 1.46038 -6.22473e-19)
(0.218207 1.25223 6.59555e-21)
(0.140473 1.18085 6.66614e-19)
(0.0284384 1.14756 9.42457e-20)
(-0.0755415 1.2094 9.52551e-20)
(0.132303 2.46272 3.08518e-19)
(0.117742 2.48043 0)
(0.23211 2.10312 -2.90311e-20)
(0.235884 1.77978 -1.21953e-19)
(0.229788 2.0817 1.97137e-20)
(0.217034 2.44441 0)
(0.26107 2.4058 -1.39532e-19)
(0.297743 2.4095 9.90779e-20)
(0.228894 2.00603 5.54883e-20)
(0.185865 2.19591 2.76805e-20)
(0.164284 2.32957 0)
(-0.211355 2.30453 7.50601e-19)
(-0.287275 2.57505 5.06251e-19)
(-0.320626 2.44243 0)
(-0.150333 2.63987 -1.95901e-20)
(-0.0775324 2.56302 -3.60156e-19)
(-0.348126 1.50133 -2.65887e-20)
(-0.267344 1.5411 4.00574e-19)
(-0.281385 1.61531 -9.21374e-20)
(-0.390137 1.60114 -1.59377e-19)
(-0.391795 1.54355 0)
(-0.249966 1.60922 0)
(-0.0988785 1.64678 -1.02396e-20)
(-0.161329 1.68008 4.62575e-21)
(-0.207142 1.63196 0)
(-0.126745 1.54483 -1.27378e-20)
(-0.0699595 1.57673 1.87505e-20)
(1.03713 0.000582289 0)
(1.04121 -0.0014102 -2.14565e-20)
(1.0477 0.0145536 -1.58492e-19)
(1.04996 0.0140073 0)
(1.05042 0.0126101 0)
(1.04234 0.00363914 -6.93477e-21)
(1.03623 0.003947 2.63741e-19)
(1.03823 0.0113259 3.18556e-19)
(1.02917 0.0185468 0)
(1.0282 0.0190206 0)
(1.04254 0.0203625 1.59668e-19)
(1.03428 0.0196083 0)
(1.03153 0.0191684 0)
(-0.162687 1.89336 0)
(-0.121822 1.81966 1.24593e-21)
(-0.134575 1.8749 6.07194e-21)
(-0.132992 1.70235 0)
(-0.155095 1.79365 -7.48072e-22)
(-0.119365 1.77049 -5.25194e-21)
(-0.112381 1.74388 0)
(0.402353 1.68752 0)
(0.360018 1.30132 6.84316e-19)
(0.285631 1.35897 0)
(0.432352 1.27113 -8.73414e-19)
(0.481167 1.43956 0)
(0.441885 1.38085 4.12203e-19)
(1.02513 2.70132 -3.95129e-21)
(0.947234 2.40571 -2.63199e-19)
(0.87971 2.15157 3.18458e-19)
(0.845612 2.35628 1.12591e-19)
(0.842758 2.51943 0)
(0.904881 2.51197 0)
(0.891745 2.37012 0)
(0.895441 2.33929 -4.18866e-19)
(0.697408 2.50027 -4.67457e-21)
(0.806771 2.48802 -1.07836e-20)
(0.817239 2.46134 8.23834e-21)
(0.686248 2.3687 0)
(0.794772 2.36567 0)
(0.750493 2.37684 -2.26079e-19)
(0.775988 2.50483 0)
(0.583055 1.08606 0)
(0.478217 0.931723 1.68922e-20)
(0.520621 0.96234 -2.0232e-22)
(0.505532 1.05142 0)
(0.507347 1.00766 -2.28473e-20)
(0.733133 0.865827 1.77879e-20)
(0.756675 1.00178 0)
(0.728602 0.958883 -6.98318e-20)
(0.61157 1.02414 0)
(0.613701 0.934589 0)
(1.15807 2.78078 6.44376e-20)
(1.13622 2.84579 1.30792e-19)
(0.927407 2.3749 -2.96518e-19)
(0.895275 2.34783 3.80836e-20)
(1.12079 2.74947 0)
(1.0721 2.71945 -4.56567e-20)
(1.07796 2.49156 -6.71077e-20)
(0.96999 2.22533 -2.96854e-20)
(0.482961 1.37229 0)
(0.488803 1.06697 9.25376e-20)
(0.541402 1.15012 0)
(0.857455 0.215266 0)
(0.821363 0.175936 0)
(0.780889 0.157874 0)
(0.849925 0.219764 -3.07045e-19)
(0.797173 0.213815 1.9174e-19)
(0.941597 0.051348 -1.7212e-19)
(0.952314 0.101552 0)
(0.925454 0.104494 7.79304e-20)
(0.887682 0.0802814 3.19706e-19)
(0.881804 0.0482049 -1.96262e-19)
(1.16615 3.37629 -9.92527e-19)
(1.21193 3.2959 0)
(1.16655 3.40269 -1.95264e-18)
(0.6532 3.56324 1.67656e-18)
(0.879836 3.12814 3.92211e-19)
(0.49584 0.884818 2.09541e-19)
(0.431295 0.869926 0)
(0.357818 0.560044 -8.18635e-20)
(0.435549 0.701535 3.68607e-19)
(0.531792 0.532099 -1.10426e-19)
(0.516557 0.554945 1.26758e-19)
(0.664897 0.528336 2.621e-19)
(0.687646 0.539637 0)
(0.635861 0.629371 0)
(0.595165 0.557011 0)
(0.935631 0.582559 -5.48461e-20)
(0.86908 0.521554 -1.77966e-19)
(0.890198 0.554148 7.91709e-20)
(0.925048 0.495844 -1.29859e-19)
(1.0217 0.467166 0)
(1.03116 0.55742 -3.23097e-21)
(0.82405 0.388175 -3.90038e-19)
(0.823991 0.373159 -4.51817e-19)
(0.777142 0.383939 3.06295e-19)
(0.773196 0.353398 -3.47548e-19)
(0.82047 0.314747 -2.5821e-19)
(0.778257 0.31479 3.17709e-19)
(1.02627 0.00366818 -1.66792e-19)
(1.02624 0.00341344 3.38951e-19)
(1.0298 -0.00241546 2.13549e-19)
(1.03106 -0.00338198 -2.57089e-19)
(1.03566 -0.000964369 0)
(1.03273 0.000699153 -4.12882e-19)
(0.147907 1.84649 -1.35015e-19)
(0.133349 1.78342 0)
(0.231937 1.80787 -6.58827e-19)
(0.232451 1.78283 5.85771e-19)
(0.264972 1.64707 -3.96456e-19)
(0.293825 1.65182 0)
(-0.305898 1.91686 0)
(-0.273282 1.74065 4.73728e-21)
(-0.215952 1.73836 -4.3019e-21)
(-0.18185 1.79621 5.16603e-21)
(-0.196558 1.91118 -4.39685e-21)
(-0.232694 1.91999 -1.49699e-21)
(0.487359 1.38192 4.38486e-19)
(0.495656 1.38409 -4.708e-19)
(0.447221 1.27323 4.32797e-19)
(0.439251 1.28986 -2.70355e-20)
(0.613527 1.2924 0)
(0.538652 1.36498 5.5618e-19)
(0.552111 1.38603 -5.38576e-19)
(0.454008 1.2611 -4.15446e-19)
(0.496896 1.22138 0)
(0.546462 1.18664 0)
(0.664561 2.45812 6.88165e-21)
(0.673319 2.47527 5.1159e-19)
(0.724333 2.49378 -3.51346e-19)
(0.629389 2.48184 -1.17109e-19)
(0.565359 2.57732 9.28181e-20)
(0.513518 2.55019 -2.84593e-19)
(0.96096 2.36606 -1.7177e-19)
(1.00312 2.3913 0)
(0.895265 2.13649 -2.31936e-19)
(1.04092 2.6999 0)
(1.04018 2.68521 0)
(0.623451 2.29546 2.56684e-19)
(1.04489 3.1772 4.95577e-19)
(0.917051 3.04641 -4.4529e-19)
(0.294239 0.975023 0)
(0.347681 0.847153 -1.47082e-19)
(0.492004 0.793779 -5.85744e-20)
(0.409523 2.05161 0)
(0.473749 2.79486 -2.7307e-19)
(0.436325 2.56156 0)
(0.654027 0.67274 -2.98476e-19)
(0.726232 0.653796 3.79794e-19)
(0.760326 0.601413 -3.70941e-19)
(0.656907 0.633557 -4.45868e-20)
(0.717113 0.581427 -1.82456e-19)
(1.00668 2.78432 -3.76738e-19)
(1.03769 2.84169 3.04353e-19)
(0.652946 2.19862 2.66425e-20)
(0.602846 1.73756 -5.13524e-20)
(0.704003 1.93006 1.32411e-19)
(0.990492 2.46765 -6.50307e-20)
(0.992658 2.47139 -1.82341e-19)
(0.675095 1.88383 -6.51898e-21)
(0.456975 1.34894 -9.02904e-20)
)
;

boundaryField
{
    wall-4
    {
        type            noSlip;
    }
    velocity-inlet-5
    {
        type            fixedValue;
        value           uniform (1 0 0);
    }
    velocity-inlet-6
    {
        type            fixedValue;
        value           uniform (0 3 0);
    }
    pressure-outlet-7
    {
        type            zeroGradient;
    }
    wall-8
    {
        type            noSlip;
    }
    frontAndBackPlanes
    {
        type            empty;
    }
}


// ************************************************************************* //
