/*--------------------------------*- C++ -*----------------------------------*\
  =========                 |
  \\      /  F ield         | OpenFOAM: The Open Source CFD Toolbox
   \\    /   O peration     | Website:  https://openfoam.org
    \\  /    A nd           | Version:  9
     \\/     M anipulation  |
\*---------------------------------------------------------------------------*/
FoamFile
{
    format      ascii;
    class       volScalarField;
    location    "0.7";
    object      p;
}
// * * * * * * * * * * * * * * * * * * * * * * * * * * * * * * * * * * * * * //

dimensions      [0 2 -2 0 0 0 0];

internalField   nonuniform List<scalar> 
400
(
4.11831e-06
-0.00582297
-0.0129608
-0.0184133
-0.020431
-0.0182374
-0.0117729
-0.00148262
0.0118385
0.0271504
0.0432458
0.0588245
0.0725802
0.0833101
0.0900545
0.0922687
0.0900275
0.0842455
0.0768822
0.0710687
0.00578306
-0.000216125
-0.00580209
-0.00954089
-0.0105975
-0.00843142
-0.00296877
0.00547526
0.016304
0.0287129
0.0417511
0.0543874
0.0655879
0.0744115
0.0801219
0.0823174
0.0810789
0.0770564
0.0712756
0.0653193
0.0133374
0.00503569
-0.000993487
-0.00442144
-0.0052714
-0.00326256
0.00160357
0.00902871
0.0185032
0.0293504
0.0407667
0.051871
0.06177
0.0696379
0.0748085
0.0768796
0.0758431
0.0720874
0.0658069
0.0575369
0.0201416
0.00869793
0.00122765
-0.00266687
-0.00372057
-0.00188389
0.00273256
0.00978573
0.0187815
0.0290961
0.0399932
0.0506553
0.0602344
0.0679174
0.0730047
0.0750029
0.0737672
0.0694575
0.0616043
0.0501038
0.0245042
0.00977511
0.000591576
-0.00398525
-0.00530067
-0.00350586
0.0011761
0.00833579
0.0174631
0.0279501
0.0390861
0.0500711
0.0600502
0.0681665
0.0736278
0.0757991
0.0743703
0.069291
0.0595268
0.0445383
0.0251801
0.00715205
-0.00380019
-0.00905552
-0.0105106
-0.00849847
-0.00335537
0.00443077
0.0143146
0.0256801
0.0378149
0.0499044
0.0610493
0.0703044
0.076736
0.0795182
0.0781402
0.0723348
0.0605404
0.0418911
0.0210956
-0.000260374
-0.0129326
-0.0187076
-0.0200282
-0.0174124
-0.0113169
-0.00231825
0.00899178
0.0219774
0.0359108
0.0499455
0.0631133
0.0743465
0.0825232
0.0865708
0.085722
0.0794484
0.0656216
0.0430728
0.0111447
-0.0136163
-0.0278732
-0.0338525
-0.0346019
-0.0308559
-0.0232113
-0.0123437
0.0011063
0.0164853
0.0330538
0.0499348
0.0660846
0.0802911
0.091202
0.0974313
0.0978716
0.0916374
0.0758975
0.0491177
-0.00596539
-0.0342647
-0.0498682
-0.0555468
-0.0550884
-0.049513
-0.0395919
-0.0261118
-0.0097556
0.00882447
0.0289024
0.0495948
0.0697988
0.0881558
0.103049
0.112702
0.115552
0.110193
0.0928356
0.0614127
-0.0318555
-0.0638745
-0.0804152
-0.0850054
-0.0824184
-0.0740766
-0.0609793
-0.0440351
-0.02395
-0.00133538
0.0231471
0.0486625
0.074097
0.0979737
0.118397
0.133127
0.13999
0.136819
0.118442
0.0819352
-0.0686657
-0.104602
-0.121343
-0.123588
-0.117514
-0.105125
-0.0877166
-0.0663239
-0.0416354
-0.0141541
0.0156071
0.0469548
0.0788573
0.109795
0.137625
0.159587
0.172728
0.17378
0.155522
0.113572
-0.119401
-0.159355
-0.174913
-0.172755
-0.161146
-0.142927
-0.119757
-0.0927752
-0.0625757
-0.029446
0.00637479
0.0444752
0.0840568
0.123705
0.161138
0.193088
0.21567
0.224079
0.208052
0.160634
-0.188626
-0.23224
-0.243937
-0.233946
-0.213692
-0.187152
-0.15637
-0.122499
-0.0858959
-0.0464703
-0.00401258
0.0415407
0.089844
0.139831
0.189321
0.234691
0.271076
0.291666
0.281745
0.229778
-0.283972
-0.329302
-0.331829
-0.308278
-0.274706
-0.236437
-0.195762
-0.153608
-0.109838
-0.0637429
-0.0144356
0.0388657
0.0965565
0.158279
0.222376
0.28529
0.341399
0.381577
0.384916
0.331836
-0.419316
-0.459668
-0.442348
-0.395789
-0.342126
-0.287737
-0.234613
-0.182927
-0.131606
-0.0789821
-0.0232112
0.0374781
0.104556
0.17884
0.259864
0.344973
0.428619
0.499703
0.529678
0.485394
-0.620529
-0.636741
-0.578674
-0.49419
-0.411237
-0.335655
-0.267777
-0.205974
-0.147533
-0.0893796
-0.0284227
0.0383516
0.11381
0.200475
0.299978
0.412028
0.533033
0.651778
0.732775
0.722399
-0.93592
-0.878511
-0.741738
-0.597945
-0.474389
-0.372655
-0.288865
-0.217759
-0.15395
-0.0924602
-0.0287136
0.0416994
0.123267
0.220722
0.33893
0.482158
0.652
0.841345
1.01527
1.09751
-1.47642
-1.20663
-0.920499
-0.691384
-0.517301
-0.38754
-0.290057
-0.213333
-0.14812
-0.0872116
-0.0245737
0.0454613
0.128941
0.233075
0.367107
0.542682
0.771297
1.05932
1.40329
1.73015
-2.53964
-1.63054
-1.04443
-0.710955
-0.495746
-0.352089
-0.254527
-0.183579
-0.126165
-0.0735912
-0.0192652
0.0427907
0.119216
0.218786
0.354816
0.547988
0.826397
1.23658
1.91168
2.9242
-4.36666
-2.04463
-0.973538
-0.563176
-0.357842
-0.240142
-0.170115
-0.123779
-0.0874772
-0.0535063
-0.0166506
0.0276644
0.0846112
0.161733
0.272415
0.442103
0.718223
1.22571
2.41104
4.84853
)
;

boundaryField
{
    movingWall
    {
        type            zeroGradient;
    }
    fixedWalls
    {
        type            zeroGradient;
    }
    frontAndBack
    {
        type            empty;
    }
}


// ************************************************************************* //
