/*--------------------------------*- C++ -*----------------------------------*\
  =========                 |
  \\      /  F ield         | OpenFOAM: The Open Source CFD Toolbox
   \\    /   O peration     | Website:  https://openfoam.org
    \\  /    A nd           | Version:  9
     \\/     M anipulation  |
\*---------------------------------------------------------------------------*/
FoamFile
{
    format      ascii;
    class       volScalarField;
    location    "35";
    object      p;
}
// * * * * * * * * * * * * * * * * * * * * * * * * * * * * * * * * * * * * * //

dimensions      [0 2 -2 0 0 0 0];

internalField   nonuniform List<scalar> 
2200
(
0.970933
0.949432
0.933522
0.917852
0.903236
0.890705
0.880331
0.872192
0.866443
0.863429
0.863814
0.867537
0.873805
0.88231
0.892944
0.90567
0.920427
0.936277
0.952282
0.973789
0.903387
0.900128
0.8972
0.893071
0.887592
0.881101
0.874461
0.868482
0.86393
0.86146
0.861851
0.865061
0.870159
0.876549
0.883486
0.890198
0.895832
0.899964
0.902858
0.906188
0.863478
0.863696
0.865743
0.867079
0.867467
0.866598
0.864594
0.861891
0.859313
0.857759
0.85822
0.860557
0.863733
0.866877
0.869171
0.870169
0.869871
0.868807
0.867067
0.866825
0.840993
0.842437
0.845044
0.84751
0.849939
0.851941
0.853078
0.853262
0.85283
0.852447
0.852971
0.854231
0.855342
0.855665
0.854911
0.853202
0.851011
0.848759
0.846151
0.844739
0.826771
0.828748
0.831555
0.834363
0.837187
0.839983
0.842402
0.844215
0.845366
0.846043
0.84664
0.847004
0.846654
0.845457
0.843523
0.841096
0.838508
0.835769
0.832984
0.831051
0.819473
0.821073
0.823264
0.825781
0.828433
0.831076
0.833617
0.83599
0.837939
0.839339
0.840042
0.839903
0.838926
0.83728
0.835293
0.833056
0.830675
0.828304
0.82619
0.824613
0.816098
0.817114
0.818381
0.820247
0.822391
0.824533
0.826674
0.828889
0.831008
0.832728
0.833575
0.833379
0.832448
0.831112
0.829616
0.827965
0.826184
0.824549
0.823403
0.822391
0.813641
0.814311
0.814941
0.816236
0.817834
0.819479
0.821161
0.822967
0.824862
0.826624
0.827653
0.827748
0.827268
0.82652
0.825613
0.824569
0.823421
0.822436
0.821954
0.82128
0.810594
0.811044
0.811441
0.812437
0.81369
0.815052
0.816497
0.818059
0.819741
0.821456
0.822714
0.823273
0.823313
0.823065
0.822596
0.821953
0.821237
0.820597
0.820361
0.819903
0.806688
0.806977
0.80735
0.808257
0.809406
0.8107
0.812134
0.813699
0.815386
0.81717
0.818718
0.819697
0.820147
0.820204
0.819991
0.819592
0.819089
0.818608
0.818411
0.818106
0.802257
0.802441
0.802837
0.803732
0.8049
0.806271
0.807813
0.8095
0.811322
0.813304
0.815202
0.816595
0.81738
0.817691
0.817644
0.817381
0.817001
0.816622
0.816434
0.81623
0.797525
0.797655
0.798034
0.798894
0.80011
0.801615
0.803362
0.805315
0.807459
0.809819
0.812172
0.814007
0.815089
0.815576
0.815644
0.815462
0.815202
0.814945
0.814791
0.814642
0.792447
0.792532
0.79291
0.793746
0.794996
0.796617
0.79861
0.800968
0.803671
0.806667
0.809565
0.811705
0.812988
0.813619
0.81386
0.813896
0.81381
0.813684
0.813574
0.813451
0.786909
0.786957
0.787334
0.78822
0.789567
0.791308
0.793467
0.796121
0.799347
0.803037
0.806575
0.809159
0.810813
0.811858
0.812481
0.812741
0.812824
0.812817
0.812763
0.812671
0.781076
0.781038
0.781467
0.782364
0.783838
0.785712
0.788011
0.790857
0.794419
0.798716
0.803099
0.806605
0.809055
0.810742
0.811845
0.81238
0.812653
0.812752
0.812741
0.812675
0.775013
0.774924
0.775311
0.776281
0.777899
0.780005
0.782599
0.78582
0.789871
0.794892
0.800308
0.804916
0.808265
0.810565
0.812062
0.81298
0.813504
0.813734
0.81378
0.813727
0.76838
0.768381
0.768709
0.769708
0.771608
0.774052
0.777181
0.781165
0.786159
0.792302
0.798931
0.804541
0.808599
0.81144
0.813386
0.814695
0.815466
0.815852
0.815959
0.815903
0.760754
0.760714
0.76116
0.762404
0.764518
0.767337
0.771104
0.776004
0.782226
0.789892
0.798024
0.804793
0.809717
0.813251
0.81577
0.817462
0.818483
0.819045
0.819226
0.819165
0.751957
0.751865
0.752383
0.753771
0.756121
0.759369
0.763768
0.769563
0.777103
0.786518
0.796575
0.805013
0.811264
0.8158
0.819048
0.821278
0.822715
0.8235
0.823757
0.823675
0.741206
0.741107
0.741681
0.74326
0.746019
0.749883
0.755141
0.762147
0.771253
0.782716
0.795082
0.805533
0.813339
0.819125
0.823308
0.826248
0.828194
0.829224
0.829561
0.829448
0.728122
0.728005
0.728689
0.730591
0.733941
0.738774
0.745425
0.754214
0.76557
0.779651
0.794629
0.807227
0.816666
0.823691
0.828839
0.832548
0.835024
0.836305
0.836706
0.836551
0.711691
0.711611
0.712592
0.715049
0.719389
0.72565
0.734169
0.745441
0.759768
0.777086
0.795116
0.810107
0.821334
0.829708
0.835876
0.840292
0.843256
0.844752
0.845207
0.845015
0.690905
0.69076
0.692079
0.695437
0.701195
0.709517
0.720741
0.73525
0.753223
0.774443
0.796096
0.813879
0.827103
0.837004
0.8443
0.849573
0.853071
0.854791
0.855299
0.855058
0.663379
0.663446
0.665586
0.670336
0.678422
0.68993
0.704895
0.723588
0.745989
0.771747
0.797484
0.818448
0.833988
0.845624
0.854278
0.860533
0.864601
0.866542
0.867078
0.866782
0.626379
0.626695
0.630386
0.638187
0.650251
0.666578
0.68679
0.710884
0.738658
0.769635
0.799901
0.824234
0.842197
0.85566
0.865723
0.87305
0.87773
0.879914
0.880485
0.880093
0.576939
0.577394
0.584556
0.597567
0.616147
0.639666
0.666873
0.697659
0.731746
0.768588
0.803665
0.831472
0.85194
0.867327
0.878892
0.887253
0.892474
0.894738
0.895202
0.89477
0.511137
0.514121
0.529575
0.551107
0.578546
0.610661
0.645933
0.684257
0.725387
0.768776
0.809322
0.841332
0.865078
0.882993
0.896523
0.906516
0.912817
0.91535
0.915636
0.915399
0.436001
0.445807
0.471648
0.503178
0.540596
0.581633
0.624933
0.671014
0.719582
0.770037
0.81687
0.853935
0.881571
0.902732
0.919057
0.931078
0.938787
0.941582
0.941808
0.942034
0.369478
0.384699
0.417056
0.456947
0.503618
0.55337
0.604717
0.658582
0.714491
0.771815
0.824467
0.866103
0.897268
0.921128
0.939307
0.95287
0.961526
0.965577
0.966554
0.966521
0.319132
0.332731
0.370408
0.416147
0.469911
0.526893
0.585648
0.646824
0.709618
0.773477
0.831843
0.877724
0.911758
0.937586
0.957514
0.972618
0.981891
0.986157
0.987072
0.987167
0.277774
0.290421
0.33151
0.38112
0.440222
0.502931
0.568027
0.63567
0.704777
0.774867
0.838613
0.888043
0.924511
0.952099
0.972973
0.988758
0.998551
1.00301
1.00411
1.00422
0.24221
0.255145
0.298602
0.350989
0.414167
0.481439
0.551843
0.625056
0.699873
0.775612
0.843957
0.896658
0.93513
0.963832
0.985373
1.00131
1.0115
1.01633
1.01762
1.01774
0.211136
0.224221
0.269658
0.324485
0.391014
0.462053
0.536894
0.614894
0.694747
0.775514
0.848212
0.903752
0.943753
0.973368
0.995269
1.01144
1.0222
1.02729
1.02879
1.0289
0.183187
0.196347
0.243416
0.300477
0.369933
0.444197
0.522858
0.605035
0.689377
0.774892
0.851505
0.90954
0.950958
0.981313
1.00397
1.02039
1.03135
1.03667
1.03826
1.0383
0.157633
0.170794
0.219091
0.278268
0.350332
0.427406
0.509377
0.595181
0.683515
0.773046
0.853278
0.914145
0.957141
0.988481
1.01157
1.02825
1.03921
1.04459
1.04612
1.0459
0.133584
0.14707
0.196212
0.257422
0.331763
0.411292
0.4961
0.585051
0.676935
0.770473
0.855071
0.918527
0.96305
0.995143
1.01852
1.03531
1.04602
1.05141
1.05292
1.05278
0.110967
0.124547
0.174504
0.237549
0.31387
0.395572
0.482891
0.574727
0.670076
0.76769
0.855646
0.921846
0.968527
1.00153
1.02516
1.04192
1.05271
1.05787
1.05949
1.05939
0.0895854
0.103172
0.153804
0.218371
0.296376
0.380076
0.469721
0.5642
0.662573
0.763382
0.85503
0.925162
0.973722
1.00775
1.0319
1.04863
1.05929
1.06439
1.06583
1.06577
0.0689411
0.0827589
0.133899
0.199742
0.279207
0.36473
0.456474
0.553255
0.654236
0.758481
0.854788
0.927978
0.978862
1.01445
1.03888
1.05559
1.06604
1.07085
1.07226
1.07215
0.0486307
0.0630942
0.114612
0.181562
0.262276
0.349419
0.443037
0.54193
0.645549
0.753238
0.853056
0.929691
0.983889
1.02113
1.04639
1.06299
1.07291
1.07747
1.07857
1.07842
0.028628
0.0439087
0.0958045
0.163762
0.245553
0.334123
0.429446
0.530329
0.63637
0.746906
0.850252
0.931226
0.98846
1.0282
1.05465
1.07106
1.08015
1.08387
1.08467
1.08446
0.00908817
0.0251084
0.0774418
0.146345
0.229062
0.318872
0.415711
0.518399
0.626536
0.73961
0.846428
0.931235
0.992591
1.03561
1.06392
1.08028
1.0879
1.0902
1.09031
1.09016
-0.0098686
0.00670223
0.0595373
0.129335
0.212861
0.303722
0.401859
0.5061
0.616077
0.731482
0.841445
0.930355
0.996073
1.04319
1.07439
1.09155
1.09738
1.09594
1.09518
1.09587
-0.0281928
-0.0112121
0.0421505
0.112779
0.19702
0.288753
0.387957
0.493516
0.605108
0.722549
0.835026
0.927811
0.998417
1.05052
1.08604
1.10543
1.11031
1.1046
1.09912
1.09712
-0.0458725
-0.0285506
0.025335
0.0967238
0.181608
0.274058
0.374107
0.480733
0.593686
0.712738
0.827458
0.924018
0.999196
1.05713
1.09864
1.12262
1.13095
1.11914
1.11594
1.12045
-0.0629006
-0.0452391
0.00915449
0.0812248
0.166682
0.25972
0.360421
0.467855
0.581886
0.702358
0.819133
0.918191
0.997798
1.0619
1.11091
1.14267
1.15834
1.13332
1.08973
1.04959
-0.079222
-0.0612925
-0.00642923
0.0662109
0.152136
0.245612
0.346769
0.454758
0.569547
0.691163
0.809346
0.910299
0.9936
1.06363
1.12141
1.16451
1.19526
1.19054
1.20778
1.2612
-0.0947875
-0.0767536
-0.0215048
0.05154
0.137776
0.231504
0.332891
0.441139
0.556289
0.678612
0.797822
0.899847
0.985134
1.05955
1.1219
1.1684
1.19232
1.18286
1.14779
1.15874
-0.109571
-0.0916002
-0.0360355
0.0372589
0.123675
0.217488
0.318907
0.427169
0.542366
0.664821
0.784088
0.886186
0.971189
1.0456
1.1071
1.15106
1.14903
1.10292
1.04279
1.03191
-0.12357
-0.105824
-0.0500187
0.0233639
0.109826
0.203558
0.304829
0.412863
0.527726
0.649653
0.768387
0.869502
0.951662
1.02024
1.07498
1.09161
1.06125
0.989487
0.917338
0.900361
-0.136822
-0.119419
-0.0634709
0.00983383
0.0962068
0.189699
0.290653
0.398226
0.512376
0.633275
0.750756
0.849438
0.925636
0.981589
1.01177
1.00336
0.95297
0.853672
0.76767
0.748401
-0.149787
-0.132794
-0.0767844
-0.00369685
0.0824648
0.175597
0.276097
0.382999
0.496097
0.615389
0.730577
0.825331
0.89445
0.934642
0.930698
0.898261
0.793076
0.672683
0.566589
0.541887
-0.163365
-0.146743
-0.0906646
-0.017856
0.0680296
0.160769
0.260734
0.366819
0.478634
0.595893
0.70794
0.797676
0.859579
0.876725
0.841934
0.757535
0.603035
0.451728
0.324183
0.298463
-0.178076
-0.161683
-0.105426
-0.0328732
0.0527183
0.14508
0.244461
0.34962
0.459983
0.574757
0.68275
0.76688
0.81742
0.808002
0.752669
0.604866
0.40404
0.190597
0.0102948
-0.0363743
-0.194016
-0.17769
-0.121132
-0.0487738
0.036561
0.128563
0.227322
0.331461
0.440198
0.552137
0.655009
0.733649
0.769292
0.727997
0.639169
0.449211
0.214122
-0.0786571
-0.403939
-0.548733
-0.211261
-0.194879
-0.137889
-0.0656342
0.0195023
0.111159
0.209262
0.3123
0.419264
0.528065
0.6252
0.697778
0.716489
0.643008
0.504976
0.294436
0.0539026
-0.297545
-0.894345
-1.47144
-0.229866
-0.2133
-0.155763
-0.0835164
0.00153381
0.0928875
0.190344
0.292244
0.397358
0.50302
0.594335
0.659048
0.660025
0.566898
0.37421
0.133073
-0.0782013
-0.32359
-0.898137
-2.45272
-0.24983
-0.233089
-0.174846
-0.102533
-0.0175052
0.0735569
0.170333
0.27103
0.374192
0.476475
0.561918
0.617306
0.599403
0.506576
0.276077
0.0293276
-0.127122
-0.173073
-0.174585
-0.571956
-0.271038
-0.254278
-0.195294
-0.122984
-0.0379916
0.0526961
0.148646
0.247916
0.348794
0.447086
0.527181
0.572419
0.537513
0.457961
0.224185
0.0106169
-0.108378
-0.120746
-0.0707518
-0.113245
-0.293473
-0.276787
-0.217097
-0.144904
-0.0599946
0.0301915
0.125136
0.222772
0.321029
0.414828
0.490185
0.526421
0.483469
0.406524
0.189306
0.0167096
-0.0700888
-0.0780681
-0.125503
-0.132638
-0.317021
-0.300289
-0.240172
-0.168305
-0.0834804
0.00605053
0.0998054
0.195544
0.290874
0.380059
0.450856
0.478084
0.435301
0.345729
0.161505
0.0262789
-0.0509488
-0.0202162
-0.0434449
-0.0453146
-0.341562
-0.324517
-0.264433
-0.193052
-0.108285
-0.0196351
0.0727439
0.166425
0.258499
0.343107
0.409483
0.426689
0.392882
0.278432
0.126671
0.032056
-0.0193061
-0.0588867
-0.0357541
-0.0434494
-0.366511
-0.34912
-0.28976
-0.218989
-0.134174
-0.0466562
0.044181
0.1356
0.224077
0.304344
0.366754
0.373459
0.35013
0.214093
0.0865914
0.0188511
0.0283712
-0.0332627
-0.00860953
-0.0145991
-0.391353
-0.373801
-0.315926
-0.245619
-0.160791
-0.0747448
0.0144564
0.103555
0.188033
0.264252
0.324054
0.321961
0.300506
0.161246
0.0549911
-0.00248282
0.0243369
-0.00759422
-0.00941448
-0.0100924
-0.415441
-0.398183
-0.342016
-0.272245
-0.187817
-0.10345
-0.0159538
0.0707212
0.150973
0.22316
0.281349
0.272907
0.244271
0.115571
0.0350652
-0.0052522
-0.0238217
-0.0123941
-0.0175163
-0.0145634
-0.438156
-0.421614
-0.36706
-0.297998
-0.2148
-0.132199
-0.0464171
0.0378068
0.113865
0.181614
0.239359
0.2261
0.185716
0.0793379
0.020634
0.00144528
-0.0491033
-0.0143404
-0.020935
-0.0139162
-0.458483
-0.443062
-0.390154
-0.322091
-0.241274
-0.160143
-0.076157
0.00560163
0.0779026
0.140132
0.198153
0.180614
0.128824
0.0523028
0.00751808
0.00675212
-0.0525462
-0.00142063
-0.0101989
-0.00307262
-0.475285
-0.461358
-0.410598
-0.343927
-0.266036
-0.186235
-0.104235
-0.0250286
0.0440778
0.0998119
0.157896
0.134987
0.0688817
0.0319687
0.0279737
0.0551489
0.0391192
0.0244063
0.00903233
0.00682325
-0.487427
-0.475446
-0.427446
-0.362766
-0.287606
-0.209454
-0.129665
-0.0528441
0.0139178
0.0626305
0.120831
0.0952256
0.00211075
-0.00235777
0.0798414
0.116705
0.0875014
0.0502164
0.0310347
0.0159998
-0.493845
-0.484035
-0.439666
-0.377184
-0.304447
-0.228605
-0.151136
-0.0765511
-0.0114786
0.0313198
0.0851885
0.0638223
-0.0715664
-0.15085
-0.134341
-0.16783
-0.173293
-0.161468
-0.158123
-0.152676
-0.493928
-0.486108
-0.445661
-0.385963
-0.315789
-0.24235
-0.167202
-0.094503
-0.0304484
0.010429
0.0537866
0.0396144
-0.144028
-0.421634
-0.732489
-0.899309
-0.936862
-0.891582
-0.809276
-0.739059
-0.486651
-0.479447
-0.44374
-0.387615
-0.320438
-0.249527
-0.17652
-0.104957
-0.0402979
0.00291764
0.0377736
0.0334108
-0.161341
-0.518929
-0.986954
-1.20749
-1.23138
-1.14235
-1.05442
-0.980302
-0.468428
-0.460871
-0.431776
-0.381022
-0.317588
-0.249232
-0.178038
-0.10644
-0.0383042
0.0129534
0.0498919
0.0717339
-0.0205454
-0.165488
-0.364905
-0.414343
-0.343255
-0.255361
-0.139603
-0.0724025
-0.433385
-0.426521
-0.408524
-0.366046
-0.30708
-0.241228
-0.171204
-0.0979518
-0.0230724
0.0448055
0.100866
0.193446
0.303271
0.518842
0.705361
0.882448
1.0418
1.14328
1.20044
1.23929
-0.387209
-0.3833
-0.37749
-0.343706
-0.29061
-0.226824
-0.156575
-0.0802783
0.00371349
0.0952933
0.187185
0.339766
0.590998
0.990632
1.37369
1.69256
1.91698
2.05313
2.11974
2.14245
-0.352388
-0.352089
-0.346695
-0.320604
-0.272098
-0.208989
-0.136897
-0.0568524
0.0348043
0.14406
0.262323
0.406893
0.709319
1.1065
1.49354
1.82318
2.06273
2.20243
2.26391
2.28022
-0.320958
-0.321861
-0.316224
-0.299328
-0.254892
-0.1916
-0.116842
-0.0349715
0.0578085
0.167675
0.285102
0.384382
0.635758
0.957948
1.2608
1.52014
1.72416
1.8476
1.90447
1.92141
-0.291345
-0.29084
-0.290423
-0.281356
-0.237102
-0.174153
-0.0991783
-0.0180683
0.0696635
0.168215
0.277761
0.343828
0.530864
0.789799
1.02538
1.22544
1.3889
1.49175
1.53787
1.55022
-0.268803
-0.267638
-0.273331
-0.262295
-0.218001
-0.155832
-0.0830364
-0.00539207
0.0743144
0.157081
0.257511
0.308031
0.431408
0.630251
0.816469
0.966339
1.08535
1.16541
1.20144
1.21098
-0.229613
-0.229982
-0.235833
-0.224389
-0.187087
-0.129604
-0.0628897
0.0078351
0.078346
0.145675
0.235274
0.280919
0.354695
0.501474
0.647324
0.758495
0.843412
0.901772
0.927195
0.933
-0.162086
-0.163897
-0.167406
-0.159695
-0.131627
-0.0867326
-0.0333466
0.025544
0.0856837
0.140154
0.216277
0.260191
0.303183
0.410119
0.51977
0.599802
0.659485
0.700999
0.719
0.725005
-0.0736678
-0.0755298
-0.0774223
-0.0727159
-0.0550609
-0.0269182
0.00881078
0.0514577
0.0996452
0.143203
0.203545
0.242822
0.270278
0.350528
0.428799
0.484519
0.527756
0.560671
0.57351
0.576966
0.0182211
0.0169299
0.015488
0.017136
0.0249236
0.0388051
0.0582155
0.084611
0.119979
0.151757
0.196924
0.228213
0.24789
0.31046
0.365848
0.402694
0.434492
0.455775
0.466016
0.469527
0.0954724
0.0944627
0.093201
0.0923457
0.0934435
0.0975531
0.105356
0.119058
0.141359
0.161826
0.193374
0.219168
0.231701
0.28169
0.321072
0.346646
0.366417
0.379221
0.384814
0.38616
0.151326
0.15069
0.149313
0.14652
0.143025
0.14131
0.142389
0.147489
0.158786
0.17154
0.190868
0.211863
0.223068
0.257895
0.285722
0.304233
0.315608
0.321544
0.323062
0.322086
0.184904
0.18441
0.183083
0.179476
0.173621
0.168815
0.166252
0.166294
0.171044
0.179066
0.190942
0.205133
0.216462
0.236992
0.253979
0.26493
0.27159
0.272774
0.271636
0.270301
0.202134
0.201716
0.200515
0.197003
0.190887
0.184903
0.180342
0.177702
0.179316
0.183623
0.191976
0.20027
0.209133
0.219637
0.227829
0.232341
0.234656
0.234492
0.232718
0.231378
0.208917
0.208576
0.207552
0.2047
0.199541
0.193984
0.189008
0.185124
0.184813
0.185547
0.191118
0.195027
0.198395
0.204523
0.209542
0.212469
0.213528
0.213399
0.211881
0.209705
0.210221
0.209946
0.209089
0.206958
0.202948
0.198548
0.194094
0.189833
0.188168
0.186417
0.188848
0.189127
0.188665
0.19239
0.197156
0.200567
0.201914
0.199667
0.197842
0.196042
0.208731
0.208521
0.20782
0.206297
0.203301
0.19996
0.196276
0.192541
0.190456
0.187538
0.186455
0.184509
0.183645
0.1863
0.190212
0.192362
0.192647
0.190521
0.188618
0.187458
0.206216
0.206051
0.205525
0.204348
0.202086
0.199665
0.196789
0.193754
0.191493
0.188006
0.185113
0.182058
0.18092
0.184655
0.18899
0.190877
0.191595
0.193794
0.19434
0.192364
0.20326
0.203126
0.202759
0.201947
0.200366
0.19872
0.196778
0.194194
0.192213
0.187886
0.184007
0.17904
0.1748
0.183517
0.191504
0.196074
0.201701
0.20552
0.207195
0.204761
0.20035
0.200245
0.200056
0.199413
0.198323
0.197437
0.196706
0.194366
0.193089
0.188937
0.182991
0.178239
0.172025
0.181016
0.192861
0.200517
0.206093
0.206718
0.206486
0.205688
0.197173
0.197137
0.197155
0.196978
0.196567
0.195688
0.195829
0.19498
0.194725
0.192202
0.188265
0.181604
0.177183
0.184247
0.191725
0.195954
0.195352
0.194306
0.194502
0.194525
0.192761
0.192796
0.192959
0.193036
0.193257
0.193287
0.193978
0.195572
0.196266
0.195662
0.196737
0.188289
0.18358
0.190736
0.194694
0.197279
0.201267
0.206324
0.210083
0.207922
0.185645
0.185785
0.186221
0.187165
0.187893
0.190001
0.190555
0.194108
0.199037
0.201264
0.209322
0.201497
0.193172
0.199022
0.206678
0.218167
0.234725
0.244037
0.246148
0.242566
0.175284
0.175418
0.175915
0.177382
0.179009
0.182627
0.185343
0.190935
0.197793
0.205344
0.213517
0.219229
0.2082
0.209397
0.213125
0.220538
0.229024
0.234175
0.234751
0.230115
0.161264
0.161693
0.162485
0.164296
0.166937
0.171615
0.177138
0.18388
0.192562
0.204537
0.216078
0.230811
0.219522
0.206542
0.192165
0.184417
0.17167
0.162104
0.162174
0.161692
0.140235
0.140832
0.141954
0.144381
0.14796
0.154173
0.162739
0.171624
0.184673
0.199005
0.216198
0.218843
0.211094
0.182853
0.158763
0.143129
0.128916
0.115733
0.116074
0.118579
0.109766
0.110224
0.112608
0.116638
0.121565
0.127562
0.134567
0.142746
0.153793
0.163649
0.18384
0.1819
0.176691
0.15509
0.148681
0.136517
0.14645
0.14926
0.134315
0.138928
0.0688626
0.0691141
0.0705146
0.0750506
0.0815377
0.088811
0.0954068
0.102348
0.105543
0.10875
0.133391
0.141927
0.128815
0.117374
0.130337
0.143699
0.156436
0.173149
0.148276
0.15034
0.0240664
0.0238727
0.0234274
0.0237252
0.0247741
0.0261228
0.0257923
0.0232389
0.020487
0.0396727
0.0648162
0.0884554
0.0713878
0.0631065
0.0726614
0.0739854
0.0645587
0.0746716
0.068941
0.0674955
-0.906816
-0.0494671
0.221759
0.503465
0.691214
0.853267
0.987436
1.12365
1.27048
1.34894
0.0886212
0.503817
0.525404
0.71739
0.847204
0.963249
1.06374
1.15261
1.18145
1.13827
0.477298
0.696468
0.735922
0.874528
0.96441
1.0474
1.11578
1.16692
1.16995
1.18313
0.714422
0.8616
0.897853
1.0034
1.06088
1.12146
1.16742
1.20042
1.20991
1.23329
0.897968
1.00155
1.03141
1.10219
1.14652
1.18943
1.22224
1.24686
1.25697
1.28829
1.04358
1.1141
1.1446
1.18908
1.2257
1.25659
1.28139
1.30227
1.31671
1.34481
1.16438
1.21597
1.24182
1.2705
1.29881
1.323
1.34329
1.36269
1.37778
1.40414
1.26909
1.30686
1.32812
1.34915
1.37044
1.39017
1.40777
1.42599
1.44093
1.46457
1.3638
1.39272
1.40982
1.42544
1.44189
1.45817
1.47384
1.49085
1.50446
1.52677
1.45259
1.47334
1.48843
1.5018
1.51555
1.52945
1.54299
1.5576
1.56914
1.58879
1.53867
1.55454
1.56849
1.58044
1.59246
1.60411
1.61523
1.6269
1.63456
1.65137
1.62417
1.63709
1.65087
1.66253
1.67309
1.68283
1.69159
1.69982
1.70338
1.71466
1.71344
1.72444
1.73791
1.74712
1.75455
1.76174
1.76892
1.77545
1.77647
1.78389
1.81187
1.8166
1.82464
1.82913
1.83241
1.83687
1.84287
1.85061
1.85445
1.86433
1.92516
1.91148
1.90404
1.89843
1.89576
1.89716
1.90362
1.91601
1.93079
1.96045
2.0461
1.99035
1.9595
1.94242
1.93427
1.93424
1.94298
1.96253
1.99449
2.06369
)
;

boundaryField
{
    wall-4
    {
        type            zeroGradient;
    }
    pressure-outlet-7
    {
        type            fixedValue;
        value           uniform 0;
    }
    velocity-inlet-6
    {
        type            zeroGradient;
    }
    velocity-inlet-5
    {
        type            zeroGradient;
    }
    frontAndBackPlanes
    {
        type            empty;
    }
}


// ************************************************************************* //
