/*--------------------------------*- C++ -*----------------------------------*\
  =========                 |
  \\      /  F ield         | OpenFOAM: The Open Source CFD Toolbox
   \\    /   O peration     | Website:  https://openfoam.org
    \\  /    A nd           | Version:  9
     \\/     M anipulation  |
\*---------------------------------------------------------------------------*/
FoamFile
{
    format      ascii;
    class       surfaceScalarField;
    location    "35";
    object      phi;
}
// * * * * * * * * * * * * * * * * * * * * * * * * * * * * * * * * * * * * * //

dimensions      [0 3 -1 0 0 0 0];

internalField   nonuniform List<scalar> 
4262
(
0.107142
0.470846
0.0955874
0.70514
0.0694152
0.858475
0.0474359
1.02074
0.031108
1.21484
0.0198879
1.44944
0.0124102
1.73334
0.00720034
2.07625
0.00332467
2.48912
-0.000239002
2.98586
-0.00378764
2.98584
-0.00765897
2.48911
-0.0128576
2.07623
-0.0201828
1.73319
-0.0311829
1.44922
-0.0473197
1.21465
-0.0691572
1.0206
-0.0953654
0.858511
-0.10711
0.70533
0.470878
0.112883
0.357963
0.135287
0.682736
0.120353
0.87341
0.097725
1.04337
0.0744172
1.23815
0.0527816
1.47108
0.0345416
1.75158
0.0203849
2.0904
0.00902532
2.50048
-0.00108961
2.99597
-0.011258
2.99601
-0.0224378
2.50029
-0.0363192
2.09012
-0.0542721
1.75114
-0.0759252
1.47087
-0.09951
1.23824
-0.122468
1.04356
-0.136513
0.872556
-0.113397
0.682215
0.357481
0.0921101
0.265853
0.125116
0.649731
0.121344
0.877181
0.105166
1.05955
0.0864669
1.25685
0.0672858
1.49026
0.0484473
1.77042
0.0305264
2.10832
0.0141569
2.51685
-0.00167631
3.0118
-0.0173129
3.01165
-0.0333732
2.51635
-0.0509439
2.10769
-0.0696138
1.76981
-0.0882957
1.48955
-0.105947
1.25589
-0.120675
1.05829
-0.125427
0.877308
-0.0923773
0.649165
0.265104
0.0640497
0.201803
0.104935
0.608846
0.106735
0.87538
0.0954181
1.07087
0.081623
1.27065
0.0669511
1.50493
0.0507256
1.78665
0.033494
2.12556
0.0158369
2.53451
-0.00268531
3.03033
-0.0209147
3.02988
-0.0379902
2.53343
-0.0545842
2.12428
-0.0700588
1.78529
-0.0840262
1.50352
-0.0976664
1.26953
-0.109221
1.06984
-0.106439
0.874526
-0.0646381
0.607364
0.200466
0.0374493
0.164354
0.080715
0.56558
0.0910949
0.865
0.083999
1.07796
0.0716333
1.28301
0.0599809
1.51658
0.047104
1.79952
0.03232
2.14034
0.0155623
2.55126
-0.00345062
3.04934
-0.0222626
3.04869
-0.0386117
2.54978
-0.052785
2.13845
-0.0649896
1.79749
-0.0761366
1.51467
-0.0879281
1.28132
-0.0942506
1.07616
-0.0827412
0.863017
-0.0381876
0.56281
0.162278
0.019546
0.144808
0.0574755
0.527651
0.0730344
0.849441
0.0709876
1.08001
0.0622229
1.29178
0.0514097
1.52739
0.0402436
1.81069
0.0277784
2.1528
0.0128687
2.56617
-0.0046858
3.06689
-0.0218826
3.06588
-0.0359102
2.56381
-0.0472419
2.14979
-0.0574894
1.80774
-0.0674235
1.5246
-0.0752328
1.28913
-0.0763196
1.07725
-0.0595107
0.846208
-0.0202266
0.523526
0.142051
0.0106846
0.134123
0.0424412
0.495894
0.0585952
0.833287
0.0589064
1.0797
0.0527348
1.29795
0.0434317
1.5367
0.033443
1.82068
0.0224802
2.16377
0.00981306
2.57884
-0.00561462
3.08232
-0.0207083
3.08098
-0.0325129
2.57561
-0.0424725
2.15975
-0.0512279
1.81649
-0.0594691
1.53284
-0.0645168
1.29418
-0.0629546
1.07569
-0.0450441
0.828297
-0.0114732
0.489955
0.130578
0.00653492
0.127589
0.0329138
0.469515
0.0492765
0.816925
0.0509488
1.07803
0.0459925
1.3029
0.0377259
1.54496
0.0282646
1.83014
0.0177192
2.17431
0.00604661
2.59051
-0.00754294
3.09591
-0.0205585
3.09399
-0.0310248
2.58608
-0.0400728
2.16879
-0.047844
1.82426
-0.0545828
1.53958
-0.0579771
1.29757
-0.0546822
1.07239
-0.0361946
0.80981
-0.00756492
0.461325
0.123013
0.00474543
0.122843
0.0266561
0.447605
0.0425674
0.801013
0.0449739
1.07562
0.0407632
1.30712
0.0335695
1.55216
0.0248714
1.83884
0.0148335
2.18435
0.00356817
2.60178
-0.00892802
3.10841
-0.0207465
3.10581
-0.0305609
2.59589
-0.038845
2.17708
-0.0460535
1.83147
-0.0517301
1.54526
-0.0542189
1.30006
-0.0495589
1.06773
-0.030686
0.790937
-0.00597987
0.436619
0.117033
0.00376868
0.119074
0.0216687
0.429704
0.0369746
0.785707
0.0400552
1.07254
0.036177
1.31099
0.029347
1.55899
0.0210536
1.84713
0.0112849
2.19412
0.000259761
2.6128
-0.0116353
3.1203
-0.0227789
3.11696
-0.0318548
2.60497
-0.0394031
2.18463
-0.0451423
1.83721
-0.0494768
1.54959
-0.0508966
1.30148
-0.0450961
1.06193
-0.0264117
0.772252
-0.00525505
0.415463
0.111778
0.00287254
0.116202
0.0169185
0.415658
0.0307138
0.771912
0.0339745
1.06928
0.0305003
1.31447
0.024237
1.56525
0.0165554
1.85481
0.00741415
2.20326
-0.00292163
2.62314
-0.0139621
3.13134
-0.0241324
3.12713
-0.0323412
2.61318
-0.0387413
2.19103
-0.0438146
1.84229
-0.0474787
1.55326
-0.0481566
1.30216
-0.0412692
1.05505
-0.0228612
0.753844
-0.00474705
0.397348
0.107031
0.00205882
0.114143
0.0126635
0.405054
0.0247498
0.759826
0.0280331
1.06599
0.0246716
1.31783
0.0186181
1.5713
0.0112305
1.8622
0.00273355
2.21176
-0.00690031
2.63277
-0.0174635
3.14191
-0.0267323
3.13639
-0.0336862
2.62013
-0.0388622
2.1962
-0.0427892
1.84621
-0.0454463
1.55592
-0.0451114
1.30182
-0.0373557
1.04729
-0.0198101
0.736299
-0.00429842
0.381837
0.102733
0.00134399
0.112799
0.00920524
0.397193
0.0194996
0.749531
0.0220509
1.06344
0.0184167
1.32146
0.0123698
1.57735
0.00532969
1.86924
-0.0025667
2.21965
-0.011525
2.64173
-0.021555
3.15194
-0.0301085
3.14495
-0.0356367
2.62566
-0.0392625
2.19983
-0.0421944
1.84914
-0.0440549
1.55778
-0.0431862
1.30095
-0.0348118
1.03892
-0.0178211
0.719308
-0.00409804
0.368114
0.0986349
0.000652468
0.112147
0.00577822
0.392067
0.0137155
0.741594
0.0159748
1.06118
0.0121731
1.32527
0.00564176
1.58388
-0.00183321
1.87671
-0.00974059
2.22756
-0.0181584
2.65015
-0.0269536
3.16073
-0.0337849
3.15178
-0.0378138
2.62969
-0.0404779
2.20249
-0.0428758
1.85154
-0.0437365
1.55864
-0.0417608
1.29898
-0.0325298
1.02969
-0.016236
0.703014
-0.00403198
0.35591
0.0946029
-0.000252161
0.112399
0.00178766
0.390027
0.00746567
0.735916
0.00859107
1.06006
0.0048649
1.32899
-0.00133835
1.59009
-0.00868144
1.88406
-0.0166993
2.23558
-0.0248741
2.65832
-0.0325479
3.1684
-0.0382259
3.15746
-0.041444
2.63291
-0.0432319
2.20428
-0.0441916
1.8525
-0.0436588
1.5581
-0.040541
1.29586
-0.0305401
1.01968
-0.0147736
0.687248
-0.00382655
0.344963
0.0907763
-0.00128012
0.113679
-0.00186887
0.390616
0.00119104
0.732856
0.00151916
1.05973
-0.0025914
1.3331
-0.00894799
1.59644
-0.0165091
1.89162
-0.0247187
2.24379
-0.0332131
2.66682
-0.0407696
3.17596
-0.0454955
3.16218
-0.0473593
2.63477
-0.0477574
2.20468
-0.0468298
1.85157
-0.0448842
1.55616
-0.0398957
1.29087
-0.0287175
1.00851
-0.0135994
0.67213
-0.00365769
0.335021
0.0871187
-0.00254003
0.116219
-0.00530696
0.393383
-0.00628629
0.733836
-0.0076668
1.06111
-0.0118541
1.33729
-0.0180657
1.60265
-0.0255748
1.89913
-0.0340561
2.25227
-0.0427153
2.67548
-0.0500013
3.18325
-0.053862
3.16604
-0.0544048
2.63531
-0.0527177
2.20299
-0.0501073
1.84896
-0.046596
1.55265
-0.0401711
1.28445
-0.0282162
0.996551
-0.0133487
0.657262
-0.00369564
0.325368
0.083423
-0.00376401
0.119983
-0.00974959
0.399368
-0.0137531
0.737839
-0.0171454
1.0645
-0.0224439
1.34259
-0.0295932
1.6098
-0.0378475
1.90738
-0.0466298
2.26105
-0.0550448
2.68389
-0.0615576
3.18976
-0.0638463
3.16833
-0.0624498
2.63392
-0.0593171
2.19986
-0.0554069
1.84505
-0.0499631
1.5472
-0.0416254
1.27611
-0.0283928
0.983319
-0.0136821
0.642552
-0.00395481
0.315641
0.0794682
-0.00528095
0.125264
-0.0148363
0.408924
-0.0226841
0.745687
-0.0285807
1.0704
-0.0348354
1.34884
-0.0430625
1.61803
-0.0523674
1.91669
-0.0619827
2.27067
-0.0707074
2.69262
-0.0761707
3.19522
-0.0761347
3.1683
-0.0725676
2.63035
-0.0671472
2.19444
-0.0609134
1.83882
-0.0535182
1.53981
-0.0438541
1.26645
-0.0299035
0.969368
-0.0148601
0.627508
-0.00434873
0.305129
0.0751195
-0.00644207
0.131706
-0.0186289
0.42111
-0.0302763
0.757334
-0.0392141
1.07934
-0.0479222
1.35755
-0.0580923
1.6282
-0.0690024
1.9276
-0.0798786
2.28154
-0.0887929
2.70153
-0.0933852
3.19982
-0.0917928
3.1667
-0.0860994
2.62466
-0.0784356
2.18677
-0.0703417
1.83073
-0.0612271
1.53069
-0.0494203
1.25464
-0.0334811
0.953429
-0.0170631
0.61109
-0.00503019
0.293096
0.0700893
-0.0086521
0.140358
-0.0248332
0.437291
-0.0409254
0.773427
-0.0531935
1.09161
-0.0639227
1.36828
-0.0761692
1.64045
-0.0891157
1.94054
-0.10148
2.29391
-0.111496
2.71155
-0.116101
3.20442
-0.112031
3.16263
-0.103235
2.61586
-0.0928092
2.17635
-0.0818379
1.81975
-0.0703432
1.5192
-0.0567246
1.24102
-0.0390492
0.935754
-0.0203501
0.592391
-0.00594875
0.278695
0.0641405
-0.0108852
0.151243
-0.0310497
0.457456
-0.0516488
0.794026
-0.0681081
1.10806
-0.083074
1.38325
-0.0988796
1.65625
-0.114344
1.95601
-0.128534
2.3081
-0.138469
2.72148
-0.140977
3.20693
-0.1346
3.15626
-0.123625
2.60489
-0.110917
2.16364
-0.098258
1.8071
-0.0847673
1.50571
-0.0680202
1.22427
-0.0464748
0.914208
-0.0241785
0.570095
-0.00699563
0.261512
0.0571449
-0.0154444
0.166688
-0.0424768
0.484488
-0.0688866
0.820435
-0.090019
1.1292
-0.108428
1.40165
-0.127274
1.6751
-0.145806
1.97454
-0.161639
2.32393
-0.172177
2.73202
-0.17406
3.20881
-0.165171
3.14737
-0.150229
2.58994
-0.133654
2.14706
-0.116974
1.79042
-0.0998483
1.48858
-0.0795624
1.20399
-0.0545
0.889146
-0.028395
0.54399
-0.00804004
0.241157
0.0491049
-0.0192804
0.185968
-0.0542413
0.519449
-0.0890424
0.855236
-0.116278
1.15643
-0.140421
1.4258
-0.164421
1.6991
-0.18566
1.99578
-0.202776
2.34105
-0.212506
2.74175
-0.210819
3.20713
-0.197186
3.13373
-0.179077
2.57183
-0.160121
2.12811
-0.141141
1.77144
-0.120756
1.4682
-0.0953462
1.17858
-0.0642516
0.858051
-0.0326919
0.51243
-0.00888575
0.217351
0.0402191
-0.0325949
0.218563
-0.079742
0.566596
-0.122829
0.898323
-0.156833
1.19044
-0.186715
1.45568
-0.213441
1.72582
-0.236212
2.01855
-0.253139
2.35797
-0.261258
2.74987
-0.256933
3.2028
-0.240618
3.11742
-0.218727
2.54994
-0.194625
2.10401
-0.169695
1.74651
-0.14313
1.44163
-0.111718
1.14717
-0.074899
0.821233
-0.0379519
0.475483
-0.00998657
0.189386
0.0302325
-0.0469715
0.265534
-0.117767
0.637392
-0.176113
0.95667
-0.216344
1.23067
-0.250147
1.48948
-0.278858
1.75454
-0.300892
2.04059
-0.315131
2.37221
-0.318425
2.75316
-0.307278
3.19165
-0.283227
3.09337
-0.255474
2.52219
-0.227723
2.07626
-0.200177
1.71896
-0.169599
1.41106
-0.131596
1.10916
-0.086798
0.776435
-0.0414555
0.43014
-0.00983196
0.157762
0.0204006
-0.0328433
0.298378
-0.0924525
0.697001
-0.146056
1.01027
-0.190619
1.27523
-0.231927
1.53079
-0.267275
1.78988
-0.301226
2.07454
-0.331474
2.40246
-0.353651
2.77534
-0.361878
3.19988
-0.35207
3.08356
-0.329992
2.50011
-0.297789
2.04405
-0.25537
1.67654
-0.205868
1.36155
-0.15006
1.05335
-0.0896069
0.715981
-0.0369959
0.377529
-0.00813018
0.128896
0.0122704
-0.0113806
0.309758
-0.0429492
0.72857
-0.0810836
1.04841
-0.117554
1.3117
-0.153178
1.56641
-0.186837
1.82354
-0.218307
2.10601
-0.244901
2.42905
-0.262736
2.79317
-0.265321
3.20247
-0.248697
3.06694
-0.217807
2.46922
-0.179216
2.00546
-0.139353
1.63668
-0.0984414
1.32064
-0.057704
1.01262
-0.0241353
0.682412
-0.00462382
0.358018
0.000179826
0.124093
0.0124502
0.00184833
0.30791
-0.0202405
0.750659
-0.0479091
1.07608
-0.0762877
1.34008
-0.105031
1.59516
-0.133972
1.85248
-0.161725
2.13376
-0.185114
2.45244
-0.20024
2.8083
-0.201259
3.20348
-0.183619
3.0493
-0.154088
2.43969
-0.120635
1.97201
-0.0830217
1.59907
-0.0434441
1.28106
-0.00914259
0.978316
0.0112514
0.662018
0.0129128
0.356356
0.00495123
0.132054
0.0174015
0.00238082
0.305529
-0.00873449
0.761774
-0.0288235
1.09617
-0.0522901
1.36355
-0.0763568
1.61922
-0.100862
1.87699
-0.124658
2.15756
-0.144621
2.47241
-0.156635
2.82031
-0.154341
3.20119
-0.135172
3.03013
-0.108186
2.41271
-0.0749238
1.93875
-0.0392737
1.56342
-0.00926813
1.25106
0.0120598
0.956988
0.0214599
0.652618
0.0173328
0.360484
0.00614349
0.143244
0.023545
0.00466391
0.300865
-0.00334455
0.769783
-0.0203431
1.11316
-0.0395971
1.3828
-0.0597776
1.6394
-0.0808181
1.89803
-0.101505
2.17824
-0.119151
2.49005
-0.129906
2.83107
-0.128494
3.19978
-0.112068
3.0137
-0.0857744
2.38641
-0.0563945
1.90937
-0.0282375
1.53526
-0.00194165
1.22476
0.0170704
0.937976
0.0230734
0.646615
0.01676
0.366797
0.00562664
0.154377
0.0291716
0.0056374
0.295228
0.00033437
0.775086
-0.0148192
1.12832
-0.0324926
1.40047
-0.0505887
1.6575
-0.069214
1.91666
-0.0875734
2.1966
-0.103265
2.50574
-0.112484
2.84029
-0.110086
3.19738
-0.093878
2.99749
-0.0716662
2.3642
-0.0466684
1.88437
-0.0206735
1.50926
0.000931553
1.20316
0.0154233
0.923484
0.0200384
0.642
0.0133322
0.373503
0.00419365
0.163516
0.0333653
0.00383047
0.291397
-7.1802e-05
0.778988
-0.0129464
1.14119
-0.0288811
1.41641
-0.0455392
1.67416
-0.0627218
1.93384
-0.0798183
2.2137
-0.0947575
2.52068
-0.104386
2.84992
-0.102913
3.19591
-0.0884538
2.98303
-0.0669876
2.34273
-0.0441814
1.86156
-0.0237089
1.48879
-0.00370219
1.18315
0.00961713
0.910165
0.0131822
0.638435
0.00921381
0.377472
0.00291408
0.169815
0.0362793
0.00251653
0.288881
-0.000878623
0.782383
-0.0126381
1.15295
-0.0275669
1.43134
-0.0433628
1.68995
-0.0595688
1.95004
-0.0757445
2.22987
-0.0900395
2.53498
-0.0988103
2.85869
-0.0974335
3.19453
-0.0851213
2.97072
-0.0671205
2.32473
-0.0467933
1.84124
-0.0257578
1.46776
-0.0100071
1.1674
0.00111326
0.899044
0.00546465
0.634084
0.00321251
0.379724
0.00121214
0.171816
0.0374915
-0.000150819
0.289032
-0.00374026
0.785972
-0.0141715
1.16338
-0.0275232
1.44469
-0.0425465
1.70498
-0.0583006
1.9658
-0.0742713
2.24584
-0.0889373
2.54964
-0.0995679
2.86932
-0.10224
3.1972
-0.0908481
2.95933
-0.072462
2.30635
-0.0524726
1.82125
-0.0355565
1.45084
-0.0206035
1.15245
-0.0102345
0.888675
-0.00496485
0.628814
-0.00267842
0.377437
-0.000761178
0.169898
0.0367303
-0.000711656
0.289743
-0.00576234
0.791023
-0.0156915
1.17331
-0.0283223
1.45732
-0.0428148
1.71947
-0.0581284
1.98111
-0.073848
2.26156
-0.0884057
2.5642
-0.0985421
2.87946
-0.0991069
3.19777
-0.0888782
2.9491
-0.0740095
2.29148
-0.058799
1.80604
-0.0423172
1.43436
-0.0284361
1.13857
-0.0172134
0.877452
-0.00967974
0.62128
-0.00585292
0.37361
-0.00172592
0.165771
0.0350044
-0.00263656
0.29238
-0.00799024
0.796377
-0.0173463
1.18267
-0.0292894
1.46926
-0.0431778
1.73336
-0.0582343
1.99617
-0.0740554
2.27739
-0.0893429
2.57949
-0.102057
2.89217
-0.10823
3.20394
-0.101942
2.94281
-0.0857297
2.27527
-0.0660737
1.78638
-0.0509439
1.41923
-0.0361611
1.12378
-0.0248484
0.86614
-0.0162613
0.612693
-0.00792525
0.365274
-0.00237295
0.160219
0.0326314
-0.00391591
0.296296
-0.00955112
0.802012
-0.0188005
1.19192
-0.0304232
1.48089
-0.043841
1.74678
-0.0585965
2.01092
-0.0745664
2.29336
-0.090499
2.59542
-0.103378
2.90505
-0.108566
3.20913
-0.1028
2.93705
-0.0908992
2.26336
-0.0761141
1.77159
-0.0576369
1.40075
-0.0432959
1.10944
-0.0301095
0.852953
-0.0190094
0.601593
-0.01019
0.356455
-0.00296031
0.15299
0.0296711
-0.00440513
0.300701
-0.0107497
0.808357
-0.0198864
1.20105
-0.0311253
1.49212
-0.0441875
1.75984
-0.0588028
2.02554
-0.074883
2.30944
-0.0912614
2.6118
-0.106144
2.91993
-0.117236
3.22022
-0.115658
2.93547
-0.101345
2.24905
-0.0814496
1.7517
-0.0648821
1.38418
-0.0486515
1.09321
-0.0355383
0.83984
-0.0235826
0.589638
-0.010957
0.343829
-0.00303575
0.145068
0.0266354
-0.00449765
0.305199
-0.011436
0.815295
-0.0206965
1.21031
-0.0317659
1.50319
-0.0445093
1.77258
-0.0588281
2.03986
-0.0749066
2.32551
-0.0919606
2.62885
-0.108228
2.9362
-0.118955
3.23095
-0.117766
2.93428
-0.108416
2.2397
-0.0933937
1.73668
-0.0720929
1.36288
-0.0545342
1.07565
-0.0382053
0.823511
-0.0236626
0.575095
-0.01163
0.331797
-0.00292905
0.136367
0.0237063
-0.00455055
0.309749
-0.0118676
0.822612
-0.0210005
1.21945
-0.0317967
1.51399
-0.0443069
1.78509
-0.0584967
2.05405
-0.0746719
2.34169
-0.0922332
2.64641
-0.109802
2.95377
-0.124863
3.24601
-0.130202
2.93962
-0.119794
2.22929
-0.0996724
1.71655
-0.0798979
1.34311
-0.0582072
1.05396
-0.0409961
0.8063
-0.0261983
0.560297
-0.0111703
0.316769
-0.00250582
0.127703
0.0212005
-0.00460174
0.314351
-0.0120686
0.830079
-0.0211282
1.22851
-0.0317554
1.52462
-0.0439995
1.79734
-0.0579298
2.06798
-0.0740635
2.35782
-0.092066
2.66442
-0.110794
2.9725
-0.126784
3.262
-0.132151
2.94499
-0.126216
2.22336
-0.11206
1.7024
-0.0875333
1.31858
-0.0631301
1.02956
-0.0394295
0.7826
-0.0205642
0.541432
-0.00888408
0.305089
-0.00167115
0.12049
0.0195294
-0.00463518
0.318986
-0.0120805
0.837524
-0.0208444
1.23727
-0.0311561
1.53493
-0.0431635
1.80934
-0.0569597
2.08177
-0.0730828
2.37395
-0.0913528
2.68269
-0.111049
2.99219
-0.129929
3.28088
-0.141712
2.95677
-0.137701
2.21935
-0.11922
1.68392
-0.0957862
1.29515
-0.0655435
0.999316
-0.0385651
0.755621
-0.016768
0.519635
-0.00398117
0.292302
-0.00213124
0.11864
0.0173981
-0.0045967
0.323583
-0.0119437
0.844871
-0.0205101
1.24584
-0.0305636
1.54498
-0.042242
1.82102
-0.0557283
2.09526
-0.0716985
2.38992
-0.0901889
2.70118
-0.110793
3.0128
-0.131471
3.30156
-0.143518
2.96882
-0.143609
2.21944
-0.132779
1.67309
-0.105866
1.26823
-0.0715279
0.964979
-0.0301237
0.714217
0.00811664
0.481394
0.0268318
0.273587
0.0225616
0.12291
0.0399597
-0.00447037
0.328053
-0.0116397
0.852041
-0.0198572
1.25405
-0.0295233
1.55465
-0.0408741
1.83237
-0.0541399
2.10853
-0.0699709
2.40575
-0.0885467
2.71975
-0.109669
3.03392
-0.131813
3.3237
-0.148191
2.98519
-0.153438
2.22469
-0.14093
1.66058
-0.116856
1.24416
-0.0759571
0.92408
-0.029583
0.667843
0.0215306
0.430281
0.0389106
0.256207
0.016978
0.144843
0.0569376
-0.00426997
0.332323
-0.0112489
0.85902
-0.0192212
1.26203
-0.0285516
1.56398
-0.0395321
1.84335
-0.0524123
2.12141
-0.0679807
2.42132
-0.0865095
2.73828
-0.10815
3.05556
-0.132523
3.34807
-0.15115
3.00382
-0.158447
2.23198
-0.155563
1.6577
-0.13246
1.22106
-0.0919919
0.883612
-0.022188
0.598039
0.0810028
0.32709
0.173919
0.163291
0.176275
0.142487
0.233213
-0.00410725
0.33643
-0.0109543
0.865867
-0.0187854
1.26986
-0.0280503
1.57324
-0.0392087
1.85451
-0.0525815
2.13478
-0.069044
2.43778
-0.0891316
2.75837
-0.113466
3.07989
-0.141303
3.37591
-0.165161
3.02768
-0.180845
2.24767
-0.179812
1.65666
-0.163007
1.20425
-0.120402
0.841007
-0.0722704
0.549908
-0.10152
0.356339
-0.362217
0.423988
-0.932039
0.712309
0.89604
-1.59487
-0.00390535
0.340336
-0.0105579
0.872519
-0.0182328
1.27753
-0.0273573
1.58237
-0.0383688
1.86552
-0.051761
2.14817
-0.0685648
2.45458
-0.0894871
2.77929
-0.115509
3.10592
-0.147706
3.40811
-0.178949
3.05892
-0.198604
2.26732
-0.214587
1.67265
-0.212599
1.20226
-0.200845
0.829253
-0.281652
0.630715
-0.690328
0.765015
-1.42078
1.15444
-2.03304
1.32457
1.21897
-2.35598
-0.00368859
0.344024
-0.0100473
0.878878
-0.0174167
1.2849
-0.0262877
1.59124
-0.0371707
1.87641
-0.050662
2.16166
-0.0678134
2.47173
-0.0896163
2.80109
-0.1176
3.1339
-0.152709
3.44322
-0.187097
3.09331
-0.218382
2.29861
-0.238858
1.69312
-0.243882
1.20729
-0.331541
0.916912
-0.749414
1.04859
-1.52
1.5356
-2.09732
1.73176
-2.33991
1.56716
1.33464
-2.45557
-0.00347428
0.347499
-0.00950552
0.884909
-0.0166385
1.29204
-0.025311
1.59991
-0.0359835
1.88708
-0.0494196
2.1751
-0.0667981
2.48911
-0.0892979
2.82359
-0.118682
3.16328
-0.157651
3.48219
-0.201582
3.13724
-0.237297
2.33432
-0.275141
1.73097
-0.364143
1.29629
-0.695961
1.24873
-1.42072
1.77334
-2.01673
2.13162
-2.25913
1.97416
-2.37396
1.68199
1.40049
-2.43981
-0.00320372
0.350702
-0.00883259
0.890538
-0.0155781
1.29878
-0.0239251
1.60826
-0.0344673
1.89762
-0.0479129
2.18854
-0.0655034
2.5067
-0.0886902
2.84678
-0.119899
3.19449
-0.162589
3.52488
-0.210248
3.1849
-0.260009
2.38408
-0.312021
1.78298
-0.490555
1.47483
-1.08135
1.83952
-1.77213
2.46413
-2.10115
2.46064
-2.25242
2.12542
-2.33575
1.76532
1.46643
-2.4017
-0.00310805
0.35381
-0.00863836
0.896068
-0.0154075
1.30555
-0.0238367
1.61669
-0.034587
1.90837
-0.0482395
2.2022
-0.0662755
2.52474
-0.0903028
2.87081
-0.122945
3.22713
-0.168551
3.57048
-0.225708
3.24206
-0.278731
2.4371
-0.3727
1.87695
-0.751037
1.85316
-1.4762
2.56469
-1.95829
2.94621
-2.16034
2.6627
-2.26777
2.23285
-2.34508
1.84263
1.53086
-2.40951
-0.00317017
0.356981
-0.00892073
0.901819
-0.0159761
1.31261
-0.0247766
1.62549
-0.0360559
1.91965
-0.0503947
2.21654
-0.0692929
2.54364
-0.0945321
2.89605
-0.129275
3.26188
-0.179442
3.62065
-0.238388
3.301
-0.306469
2.50519
-0.497477
2.06796
-1.03716
2.39284
-1.66577
3.1933
-1.94906
3.2295
-2.09797
2.81162
-2.21327
2.34815
-2.30742
1.93679
1.5936
-2.37016
-0.00318141
0.360162
-0.00922368
0.907861
-0.0167693
1.32015
-0.0261193
1.63484
-0.0378771
1.93141
-0.0527996
2.23146
-0.0724966
2.56333
-0.0989154
2.92247
-0.135283
3.29824
-0.187295
3.67266
-0.253738
3.36744
-0.345971
2.59742
-0.621044
2.34303
-1.24908
3.02088
-1.74611
3.69032
-1.95613
3.43952
-2.09902
2.9545
-2.22476
2.47389
-2.33772
2.04975
1.65323
-2.39735
-0.00313091
0.363293
-0.00940948
0.91414
-0.0173018
1.32804
-0.027083
1.64462
-0.0394291
1.94375
-0.0551077
2.24714
-0.0757373
2.58396
-0.103365
2.95009
-0.141662
3.33654
-0.198137
3.72914
-0.268247
3.43755
-0.392612
2.72178
-0.768588
2.719
-1.39659
3.64889
-1.7585
4.05223
-1.93437
3.61539
-2.03933
3.05946
-2.13109
2.56565
-2.20113
2.11979
1.64702
-2.19492
-0.00300854
0.366301
-0.00953892
0.92067
-0.0180104
1.33651
-0.0284426
1.65505
-0.0413361
1.95665
-0.0576209
2.26342
-0.079039
2.60538
-0.107852
2.97891
-0.147814
3.3765
-0.204502
3.78582
-0.284588
3.51764
-0.454239
2.89143
-0.895147
3.15991
-1.45053
4.20428
-1.71821
4.3199
-1.87554
3.77272
-1.97194
3.15587
-1.97671
2.57042
-1.91286
2.05594
1.62
-1.88585
-0.00270443
0.369006
-0.00949271
0.927458
-0.0182336
1.34526
-0.0289909
1.66581
-0.0423746
1.97003
-0.0591688
2.28022
-0.0810498
2.62726
-0.110142
3.008
-0.150293
3.41665
-0.207872
3.8434
-0.294865
3.60463
-0.494949
3.09152
-0.970287
3.63525
-1.41805
4.65204
-1.59112
4.49297
-1.66141
3.84301
-1.66871
3.16317
-1.52431
2.42602
-1.0269
1.55853
0.593106
-0.00229296
0.371299
-0.00920598
0.934371
-0.0185932
1.35464
-0.0302221
1.67744
-0.0445239
1.98433
-0.0624601
2.29815
-0.085983
2.65079
-0.117661
3.03968
-0.161798
3.46079
-0.223976
3.90558
-0.326021
3.70668
-0.576157
3.34165
-1.10432
4.16341
-1.47127
5.019
-1.5742
4.5959
-1.57473
3.84354
-1.47568
3.06412
-1.23889
2.18923
-0.643209
0.962848
-0.0501024
-0.0018343
0.373133
-0.0086315
0.941169
-0.0181962
1.36421
-0.0303081
1.68955
-0.0455626
1.99959
-0.0648822
2.31747
-0.0903091
2.67621
-0.124454
3.07382
-0.172292
3.50863
-0.242621
3.97591
-0.365329
3.82939
-0.667595
3.64392
-1.21689
4.71271
-1.4896
5.2917
-1.55296
4.65926
-1.53479
3.82537
-1.33576
2.86509
-0.796349
1.64982
-0.115226
0.281725
-0.165328
-0.00111345
0.374247
-0.00752727
0.947582
-0.0176307
1.37431
-0.030669
1.70259
-0.0467312
2.01565
-0.0670778
2.33782
-0.0940327
2.70317
-0.130769
3.11056
-0.182339
3.5602
-0.257969
4.05154
-0.401282
3.9727
-0.761254
4.00389
-1.29729
5.24875
-1.48258
5.47698
-1.51294
4.68963
-1.43097
3.7434
-1.11442
2.54853
-0.326371
0.861772
0.0294222
-0.0740681
-0.135906
-0.000287432
0.374534
-0.00585806
0.953153
-0.0158793
1.38433
-0.0292034
1.71591
-0.046025
2.03247
-0.0676753
2.35947
-0.0964266
2.73192
-0.135244
3.14938
-0.189477
3.61443
-0.274864
4.13693
-0.445613
4.14345
-0.861537
4.41982
-1.3358
5.72301
-1.45947
5.60066
-1.4678
4.69796
-1.25998
3.53558
-0.710192
1.99874
-0.0674192
0.218999
0.0333592
-0.174847
-0.102547
0.00156295
0.372971
-0.00276222
0.957478
-0.0133189
1.39489
-0.0276899
1.73028
-0.0450074
2.04979
-0.0674049
2.38187
-0.0972832
2.7618
-0.138092
3.19018
-0.194723
3.67106
-0.286977
4.22918
-0.479585
4.33606
-0.944851
4.88508
-1.33371
6.11186
-1.40555
5.67251
-1.36838
4.66078
-1.08256
3.24976
-0.347385
1.26357
-0.00680823
-0.121578
0.0107423
-0.192397
-0.0918046
0.00338919
0.369582
0.000976685
0.959891
-0.00934409
1.40521
-0.0233835
1.74432
-0.0409749
2.06738
-0.0644294
2.40532
-0.0955554
2.79292
-0.137477
3.2321
-0.196158
3.72974
-0.29661
4.32964
-0.513688
4.55313
-1.00341
5.37481
-1.28925
6.3977
-1.32945
5.71271
-1.21483
4.54616
-0.808939
2.84387
-0.0937423
0.548372
0.0446587
-0.259979
0.0256678
-0.173406
-0.0661368
0.00573819
0.363844
0.00485883
0.96077
-0.00419288
1.41426
-0.0181798
1.75831
-0.0358582
2.08506
-0.0594294
2.42889
-0.0907986
2.82429
-0.133789
3.2751
-0.194047
3.79
-0.299744
4.43533
-0.536271
4.78966
-1.01439
5.85292
-1.2177
6.60102
-1.23944
5.73444
-1.04192
4.34864
-0.489763
2.29171
0.000559413
0.058049
0.0152653
-0.274684
0.01671
-0.174851
-0.0494268
0.00848246
0.355361
0.0103373
0.958915
0.00371586
1.42088
-0.00868697
1.77071
-0.0264432
2.10281
-0.0502246
2.45267
-0.0816285
2.8557
-0.123897
3.31736
-0.184387
3.85049
-0.294465
4.54541
-0.547519
5.04272
-0.989785
6.29519
-1.12368
6.73491
-1.10505
5.71581
-0.869124
4.11271
-0.306418
1.72901
-0.0693544
-0.179015
-0.041207
-0.302832
-0.0117238
-0.204334
-0.0611506
0.0126849
0.342676
0.018865
0.952735
0.0143228
1.42543
0.00316359
1.78187
-0.014703
2.12068
-0.0371286
2.4751
-0.0669121
2.88548
-0.108305
3.35876
-0.167519
3.90971
-0.278998
4.65689
-0.530663
5.29438
-0.907834
6.67236
-0.988447
6.81553
-0.955013
5.68238
-0.701612
3.85931
-0.155922
1.18332
-0.0791713
-0.255765
-0.0473255
-0.334678
-0.0173718
-0.234288
-0.0785225
0.0177926
0.324884
0.0293514
0.941176
0.0284016
1.42637
0.0189535
1.79132
0.00328982
2.13635
-0.0170123
2.4954
-0.045136
2.9136
-0.0833008
3.39692
-0.138698
3.96511
-0.245513
4.7637
-0.477425
5.52629
-0.781361
6.9763
-0.843146
6.87731
-0.761195
5.60043
-0.460469
3.55859
-0.015906
0.738755
0.0090405
-0.280712
0.00562251
-0.33126
0.00757636
-0.236242
-0.0709461
0.0246228
0.300261
0.0438081
0.921991
0.0473917
1.42279
0.0403596
1.79835
0.0281331
2.14857
0.0101622
2.51337
-0.0144701
2.93823
-0.0481772
3.43063
-0.0976845
4.01461
-0.19373
4.85975
-0.388602
5.72116
-0.593687
7.18138
-0.643388
6.92701
-0.565969
5.52301
-0.225877
3.21849
0.100454
0.412425
0.0546467
-0.234904
0.0465549
-0.323168
0.0461708
-0.235857
-0.0247753
0.0325677
0.267693
0.0612731
0.893286
0.0718895
1.41217
0.0700385
1.8002
0.061612
2.157
0.0469128
2.52807
0.0266897
2.95846
-0.000906173
3.45822
-0.0415155
4.05522
-0.111412
4.92965
-0.255384
5.86514
-0.380886
7.30688
-0.448942
6.99507
-0.470353
5.54442
-0.353396
3.10154
-0.329856
0.388885
-0.318109
-0.246652
-0.178852
-0.462425
-0.0314529
-0.383256
-0.0562282
0.0419041
0.225789
0.08351
0.85168
0.103306
1.39238
0.107053
1.79646
0.103351
2.1607
0.0936525
2.53777
0.0809342
2.97118
0.0623459
3.47681
0.0346536
4.08291
0.0040763
4.96022
-0.0557292
5.92494
-0.119008
7.37016
-0.194802
7.07086
-0.330697
5.68032
-0.483117
3.25396
-0.740193
0.645961
-0.739053
-0.247791
-0.532124
-0.669354
-0.248786
-0.666594
-0.305014
0.0513049
0.174484
0.109386
0.793598
0.142404
1.35936
0.154659
1.7842
0.157758
2.1576
0.153504
2.54202
0.148522
2.97616
0.142142
3.48319
0.137131
4.08793
0.133332
4.96402
0.18706
5.87121
0.240453
7.31677
0.226071
7.08525
0.141856
5.76453
-0.147231
3.54304
-0.615327
1.11406
-0.776284
-0.0868341
-0.647606
-0.798033
-0.357953
-0.956247
-0.662967
0.0554627
0.119022
0.136618
0.712443
0.188011
1.30797
0.211755
1.76046
0.223095
2.14626
0.226956
2.53816
0.23182
2.97129
0.23952
3.47549
0.259529
4.06792
0.300272
4.92328
0.4758
5.69569
0.753459
7.03911
0.997204
6.8415
1.21504
5.54669
0.993991
3.76409
0.417253
1.6908
-0.0296733
0.360092
-0.251631
-0.576075
-0.226928
-0.98095
-0.889895
0.0501495
0.0688721
0.163204
0.599389
0.242625
1.22855
0.282254
1.72083
0.303732
2.12478
0.315978
2.52592
0.330821
2.95645
0.353593
3.45272
0.399924
4.02159
0.502689
4.82051
0.811799
5.38658
1.41184
6.43906
1.81944
6.43391
2.13795
5.22818
2.06803
3.83402
1.55588
2.20294
1.06994
0.846029
0.51449
-0.0206256
0.175514
-0.641975
-0.714381
0.0374749
0.0313972
0.188852
0.448012
0.299324
1.11808
0.362127
1.65802
0.396145
2.09076
0.421165
2.5009
0.444089
2.93353
0.480384
3.41642
0.551739
3.95023
0.699611
4.67264
1.09494
4.99125
1.83248
5.70152
2.24163
6.02477
2.47464
4.99517
2.45946
3.8492
2.02525
2.63715
1.4771
1.39418
0.95911
0.497365
0.421963
-0.104828
-0.292418
0.0295844
0.00181284
0.209372
0.268224
0.368224
0.959224
0.45808
1.56817
0.504818
2.04403
0.540416
2.4653
0.569112
2.90483
0.615224
3.37031
0.689993
3.87546
0.837713
4.52492
1.15507
4.6739
1.87291
4.98367
2.25097
5.6467
2.43403
4.81211
2.41706
3.86617
2.12732
2.92688
1.59064
1.93087
1.01231
1.07569
0.41706
0.490422
0.124642
0.0282289
-0.0264161
0.190587
0.105866
0.423834
0.725977
0.559686
1.43232
0.626016
1.9777
0.671213
2.4201
0.70543
2.87061
0.743085
3.33266
0.794015
3.82453
0.904672
4.41426
1.08526
4.49331
1.59487
4.47406
2.0064
5.23516
2.07053
4.74798
1.99548
3.94123
1.76215
3.16022
1.3243
2.36872
0.830307
1.56968
0.353365
0.967365
0.478007
0.0254765
-0.0518926
0.12719
0.00415277
0.383066
0.470101
0.551801
1.26358
0.626338
1.90316
0.653314
2.39313
0.664354
2.85957
0.656118
3.34089
0.647798
3.83285
0.651295
4.41077
0.68926
4.45535
0.877312
4.28601
1.10824
5.00424
1.10533
4.75089
1.02288
4.02368
0.886123
3.29697
0.673692
2.58115
0.40854
1.83483
0.161492
1.21441
0.639498
0.0190589
-0.0709515
0.0691933
-0.0459816
0.229535
0.309759
0.374643
1.11847
0.454127
1.82367
0.486758
2.3605
0.505359
2.84097
0.509147
3.33711
0.508743
3.83326
0.502444
4.41707
0.502054
4.45574
0.61027
4.1778
0.780917
4.83359
0.786561
4.74525
0.709375
4.10086
0.600124
3.40622
0.451487
2.72978
0.265582
2.02074
0.0941627
1.38583
0.733661
0.0223389
-0.0932904
0.0481745
-0.0718173
0.104539
0.253395
0.203949
1.01906
0.277121
1.7505
0.321098
2.31652
0.350842
2.81123
0.368951
3.319
0.375425
3.82678
0.372637
4.41985
0.359808
4.46857
0.413627
4.12398
0.532015
4.7152
0.535966
4.7413
0.47257
4.16426
0.384707
3.49409
0.275949
2.83854
0.147505
2.14918
0.0361265
1.49721
0.769788
0.0148658
-0.108156
0.0127787
-0.0697302
2.11396e-05
0.266152
0.0439639
0.97512
0.104306
1.69016
0.160162
2.26066
0.206387
2.765
0.237895
3.28749
0.257727
3.80695
0.266713
4.41087
0.252578
4.4827
0.274605
4.10195
0.347492
4.64231
0.341496
4.74729
0.289023
4.21673
0.218169
3.56494
0.139822
2.91689
0.0571808
2.23183
-0.00809552
1.56249
0.761692
-0.00596932
-0.102187
-0.0427891
-0.0329104
-0.0882414
0.311604
-0.0900898
0.976969
-0.0421242
1.64219
0.0202925
2.19825
0.0782793
2.70702
0.127046
3.23872
0.163226
3.77077
0.179585
4.39451
0.167116
4.49517
0.175555
4.09351
0.216461
4.60141
0.202405
4.76135
0.159357
4.25978
0.108194
3.6161
0.0553248
2.96976
0.00215429
2.285
-0.0298624
1.5945
0.73183
-0.0269911
-0.0751957