/*--------------------------------*- C++ -*----------------------------------*\
  =========                 |
  \\      /  F ield         | OpenFOAM: The Open Source CFD Toolbox
   \\    /   O peration     | Website:  https://openfoam.org
    \\  /    A nd           | Version:  9
     \\/     M anipulation  |
\*---------------------------------------------------------------------------*/
FoamFile
{
    format      ascii;
    class       volVectorField;
    location    "35";
    object      U;
}
// * * * * * * * * * * * * * * * * * * * * * * * * * * * * * * * * * * * * * //

dimensions      [0 1 -1 0 0 0 0];

internalField   nonuniform List<vector> 
2200
(
(0.878827 -0.0304145 0)
(1.00577 -0.0512833 0)
(1.00324 -0.0354103 0)
(1.00019 -0.0244558 0)
(0.999806 -0.0167004 0)
(1.00004 -0.0107956 0)
(1.00004 -0.00686529 0)
(1.00002 -0.00419938 0)
(0.999988 -0.00222574 0)
(1.00016 -0.000730422 0)
(1.00004 0.000940925 0)
(0.999924 0.00242013 0)
(0.999977 0.00440765 0)
(1.00011 0.00705497 0)
(1.00008 0.01088 0)
(0.999774 0.0166861 0)
(1.00016 0.0244379 0)
(1.00344 0.0351007 0)
(1.0059 0.0513451 0)
(0.878956 0.0303517 0)
(0.712019 -0.0327645 0)
(0.996633 -0.0630223 0)
(1.03334 -0.0561477 0)
(1.02492 -0.046386 0)
(1.01586 -0.036043 0)
(1.00964 -0.0263033 0)
(1.00597 -0.0181511 0)
(1.00377 -0.0115117 0)
(1.00257 -0.00611385 0)
(1.00202 -0.00159317 0)
(1.00204 0.00255354 0)
(1.00259 0.00709303 0)
(1.00377 0.0123479 0)
(1.00575 0.0188512 0)
(1.00941 0.0269038 0)
(1.01575 0.0367177 0)
(1.02486 0.0470999 0)
(1.03312 0.0573549 0)
(0.996634 0.0631528 0)
(0.711823 0.032953 0)
(0.535459 -0.0239032 0)
(0.969862 -0.0569798 0)
(1.05643 -0.0547895 0)
(1.05229 -0.0489032 0)
(1.03629 -0.0405686 0)
(1.02437 -0.0323249 0)
(1.01578 -0.0241037 0)
(1.01033 -0.0162632 0)
(1.00718 -0.00906328 0)
(1.00569 -0.00245572 0)
(1.00564 0.00386983 0)
(1.00705 0.010368 0)
(1.01008 0.0174059 0)
(1.01543 0.0250884 0)
(1.0241 0.0332908 0)
(1.03603 0.0412773 0)
(1.052 0.0494006 0)
(1.05635 0.0538741 0)
(0.96925 0.057543 0)
(0.534459 0.0239293 0)
(0.392128 -0.0136623 0)
(0.911624 -0.0464032 0)
(1.0574 -0.0470106 0)
(1.06943 -0.0443079 0)
(1.05492 -0.0382766 0)
(1.03935 -0.0316967 0)
(1.02743 -0.024833 0)
(1.01898 -0.0175722 0)
(1.0136 -0.0100883 0)
(1.0109 -0.00257036 0)
(1.01074 0.00484352 0)
(1.01325 0.0121756 0)
(1.01849 0.0193543 0)
(1.02697 0.0263823 0)
(1.03871 0.0328577 0)
(1.05424 0.0392452 0)
(1.06866 0.0453195 0)
(1.05589 0.0479773 0)
(0.910282 0.0468116 0)
(0.390346 0.0137356 0)
(0.307539 -0.00449795 0)
(0.846665 -0.0323782 0)
(1.04939 -0.0399153 0)
(1.07935 -0.0382441 0)
(1.068 -0.0336392 0)
(1.0516 -0.0281459 0)
(1.03835 -0.0228403 0)
(1.02817 -0.0168298 0)
(1.02117 -0.00998809 0)
(1.01744 -0.00242939 0)
(1.01725 0.00537237 0)
(1.02068 0.0127771 0)
(1.02747 0.0194549 0)
(1.03732 0.0251539 0)
(1.05044 0.030131 0)
(1.06675 0.0354129 0)
(1.07772 0.0397063 0)
(1.04735 0.0413564 0)
(0.843513 0.03284 0)
(0.304515 0.00467629 0)
(0.263997 8.37715e-05 0)
(0.788464 -0.0201392 0)
(1.03281 -0.0316272 0)
(1.08315 -0.0322767 0)
(1.07693 -0.0289872 0)
(1.0605 -0.0240836 0)
(1.04707 -0.0196344 0)
(1.03624 -0.0145655 0)
(1.02837 -0.00861462 0)
(1.02385 -0.00165764 0)
(1.02356 0.00567165 0)
(1.02759 0.0123375 0)
(1.03503 0.0178511 0)
(1.04557 0.0224334 0)
(1.05874 0.0265536 0)
(1.07508 0.03098 0)
(1.08098 0.0338144 0)
(1.03002 0.0329777 0)
(0.783834 0.0206217 0)
(0.259915 7.86504e-05 0)
(0.240018 0.00105393 0)
(0.737996 -0.0123261 0)
(1.0135 -0.025031 0)
(1.08395 -0.0268512 0)
(1.08279 -0.0245404 0)
(1.06755 -0.0203809 0)
(1.05402 -0.0164696 0)
(1.04323 -0.0121345 0)
(1.03517 -0.00699211 0)
(1.03034 -0.000883327 0)
(1.02991 0.0057018 0)
(1.03401 0.0115243 0)
(1.04142 0.0161968 0)
(1.05195 0.020151 0)
(1.06521 0.0235202 0)
(1.08 0.0272081 0)
(1.08046 0.0290447 0)
(1.00844 0.0266503 0)
(0.730675 0.012946 0)
(0.234555 -0.000888337 0)
(0.225604 0.000971964 0)
(0.694888 -0.00801643 0)
(0.992413 -0.0207285 0)
(1.08176 -0.0231856 0)
(1.08657 -0.0213982 0)
(1.07307 -0.0178945 0)
(1.05953 -0.0140848 0)
(1.04896 -0.00991259 0)
(1.04112 -0.00516654 0)
(1.03636 0.000299062 0)
(1.0358 0.00618656 0)
(1.03953 0.0112511 0)
(1.04666 0.0153782 0)
(1.05644 0.0188472 0)
(1.0697 0.0219508 0)
(1.08274 0.0248219 0)
(1.07702 0.0258768 0)
(0.985336 0.0227426 0)
(0.684934 0.00885546 0)
(0.218687 -0.000776202 0)
(0.216045 0.000609694 0)
(0.659481 -0.00569497 0)
(0.971909 -0.017689 0)
(1.07885 -0.020343 0)
(1.08959 -0.0189612 0)
(1.07761 -0.0160075 0)
(1.06412 -0.0125265 0)
(1.05367 -0.00852671 0)
(1.04598 -0.00390918 0)
(1.04133 0.00118616 0)
(1.04054 0.00648145 0)
(1.04379 0.0110715 0)
(1.05047 0.0149835 0)
(1.06034 0.0181544 0)
(1.07345 0.0211768 0)
(1.08447 0.0233421 0)
(1.07218 0.023972 0)
(0.961724 0.0201873 0)
(0.645684 0.00671845 0)
(0.207081 -0.0003921 0)
(0.208775 0.000279199 0)
(0.630828 -0.00419598 0)
(0.952858 -0.0150268 0)
(1.07542 -0.0180757 0)
(1.09244 -0.0169067 0)
(1.08201 -0.0142352 0)
(1.06847 -0.0108508 0)
(1.05786 -0.0069185 0)
(1.05006 -0.00235986 0)
(1.0453 0.00256706 0)
(1.04427 0.00740642 0)
(1.04721 0.0117751 0)
(1.05361 0.0153064 0)
(1.06324 0.01833 0)
(1.07603 0.0204374 0)
(1.0853 0.0222174 0)
(1.0659 0.0222176 0)
(0.938566 0.0179552 0)
(0.612742 0.00543277 0)
(0.197536 -2.00419e-05 0)
(0.203097 0.000101327 0)
(0.607916 -0.00296222 0)
(0.934841 -0.012254 0)
(1.07205 -0.0152921 0)
(1.09518 -0.0144073 0)
(1.0861 -0.0119767 0)
(1.07261 -0.00883725 0)
(1.06198 -0.00511369 0)
(1.05402 -0.000820305 0)
(1.04889 0.00379617 0)
(1.04755 0.0081667 0)
(1.05033 0.0121218 0)
(1.05662 0.0153563 0)
(1.06595 0.017798 0)
(1.07869 0.0199884 0)
(1.08605 0.0211394 0)
(1.0599 0.0208582 0)
(0.91641 0.0159127 0)
(0.584652 0.00453486 0)
(0.188935 0.000226161 0)
(0.198917 5.47249e-05 0)
(0.590515 -0.00197223 0)
(0.919748 -0.0095184 0)
(1.0687 -0.0127364 0)
(1.09796 -0.0118473 0)
(1.09022 -0.00952809 0)
(1.0767 -0.00647135 0)
(1.06585 -0.00299432 0)
(1.05764 0.00103751 0)
(1.05224 0.00539614 0)
(1.0506 0.00956006 0)
(1.05299 0.0129778 0)
(1.05891 0.0156899 0)
(1.06816 0.0177798 0)
(1.08035 0.0192215 0)
(1.08603 0.0201686 0)
(1.0519 0.0192586 0)
(0.894413 0.0139709 0)
(0.56068 0.00387551 0)
(0.181217 0.000366664 0)
(0.195974 1.55051e-05 0)
(0.577361 -0.00119531 0)
(0.906093 -0.00739173 0)
(1.06604 -0.010175 0)
(1.10109 -0.00917484 0)
(1.09465 -0.00675754 0)
(1.08096 -0.00380621 0)
(1.06957 -0.000575311 0)
(1.06066 0.00307507 0)
(1.05447 0.00717797 0)
(1.05215 0.0112696 0)
(1.05444 0.0143283 0)
(1.06054 0.0162451 0)
(1.06989 0.0176009 0)
(1.08226 0.0187629 0)
(1.08573 0.0194095 0)
(1.04467 0.0183206 0)
(0.874323 0.0126283 0)
(0.539895 0.00353358 0)
(0.173984 0.000474973 0)
(0.194188 1.07643e-05 0)
(0.567915 -0.000541055 0)
(0.8951 -0.00493542 0)
(1.06368 -0.0075506 0)
(1.10458 -0.00652928 0)
(1.09938 -0.003931 0)
(1.08548 -0.00065379 0)
(1.07363 0.00253852 0)
(1.06421 0.00604357 0)
(1.05764 0.0097942 0)
(1.05508 0.0133001 0)
(1.057 0.0155785 0)
(1.06272 0.0169734 0)
(1.07207 0.0178767 0)
(1.08372 0.0189423 0)
(1.08467 0.0191069 0)
(1.0351 0.0174029 0)
(0.853615 0.0114799 0)
(0.521124 0.00334834 0)
(0.166962 0.000558946 0)
(0.194037 -0.000125426 0)
(0.562682 0.000479377 0)
(0.887631 -0.00243186 0)
(1.06226 -0.00437164 0)
(1.10784 -0.00328851 0)
(1.10424 -0.000799454 0)
(1.09042 0.00226901 0)
(1.07839 0.00556632 0)
(1.06872 0.00905443 0)
(1.06149 0.0125205 0)
(1.05784 0.0153718 0)
(1.05885 0.0172694 0)
(1.06422 0.0182973 0)
(1.07343 0.0188555 0)
(1.08366 0.019268 0)
(1.08291 0.0187026 0)
(1.02684 0.016636 0)
(0.835681 0.0104588 0)
(0.505106 0.00311153 0)
(0.160323 0.0005769 0)
(0.195194 7.15621e-05 0)
(0.562444 0.00133928 0)
(0.881433 5.68856e-05 0)
(1.06151 -0.0013048 0)
(1.11149 -2.74171e-05 0)
(1.10873 0.00241318 0)
(1.09484 0.0055658 0)
(1.08259 0.00896009 0)
(1.0727 0.0126198 0)
(1.06517 0.0161838 0)
(1.06111 0.0187358 0)
(1.06099 0.0201277 0)
(1.0649 0.0205429 0)
(1.07331 0.0206473 0)
(1.0829 0.0199423 0)
(1.07913 0.0188682 0)
(1.01467 0.0159365 0)
(0.815527 0.00947037 0)
(0.489524 0.00296373 0)
(0.15376 0.000579664 0)
(0.19864 0.000549052 0)
(0.564481 0.00196287 0)
(0.880596 0.00285066 0)
(1.06204 0.00236475 0)
(1.11445 0.00400754 0)
(1.11276 0.00639973 0)
(1.09886 0.00935111 0)
(1.086 0.0128912 0)
(1.07525 0.0166897 0)
(1.06642 0.0202641 0)
(1.0608 0.0225443 0)
(1.05994 0.0235542 0)
(1.06417 0.0233535 0)
(1.07235 0.0223341 0)
(1.0811 0.0209383 0)
(1.07484 0.0192796 0)
(1.00468 0.0157538 0)
(0.799469 0.00908349 0)
(0.476453 0.00302448 0)
(0.147683 0.000590113 0)
(0.203772 0.000686799 0)
(0.570075 0.00309114 0)
(0.883256 0.00546594 0)
(1.06406 0.0061245 0)
(1.11864 0.00843599 0)
(1.11739 0.0111372 0)
(1.10306 0.0145179 0)
(1.08952 0.0183043 0)
(1.0777 0.0220067 0)
(1.06769 0.0254242 0)
(1.06145 0.0272814 0)
(1.05969 0.0275346 0)
(1.06225 0.0263908 0)
(1.06961 0.0249336 0)
(1.07734 0.0228671 0)
(1.06767 0.0203721 0)
(0.990109 0.0158945 0)
(0.779355 0.00901611 0)
(0.461421 0.00327157 0)
(0.140825 0.000628607 0)
(0.212207 0.000854964 0)
(0.582852 0.00446154 0)
(0.890968 0.00851446 0)
(1.06879 0.0108751 0)
(1.12307 0.0135117 0)
(1.12268 0.0166787 0)
(1.10841 0.0206604 0)
(1.09441 0.0247106 0)
(1.08159 0.0287959 0)
(1.06985 0.0320152 0)
(1.06136 0.0331909 0)
(1.05809 0.032304 0)
(1.06043 0.0303602 0)
(1.06712 0.0277351 0)
(1.07308 0.0249598 0)
(1.06102 0.0214042 0)
(0.978609 0.0165592 0)
(0.764499 0.00961957 0)
(0.448645 0.00368255 0)
(0.13416 0.000652794 0)
(0.221646 0.00110167 0)
(0.597276 0.00534052 0)
(0.902158 0.0110975 0)
(1.07633 0.0149166 0)
(1.12988 0.0186275 0)
(1.12965 0.0228842 0)
(1.11481 0.027405 0)
(1.09998 0.0322882 0)
(1.08605 0.0366438 0)
(1.07279 0.0396503 0)
(1.06261 0.040273 0)
(1.05753 0.0387637 0)
(1.0573 0.0357042 0)
(1.06247 0.0321642 0)
(1.06705 0.0287076 0)
(1.05117 0.0242755 0)
(0.961447 0.0184044 0)
(0.74256 0.010894 0)
(0.430697 0.00433065 0)
(0.12558 0.000723601 0)
(0.235262 0.00149742 0)
(0.619073 0.00710984 0)
(0.920011 0.0148159 0)
(1.08735 0.0204491 0)
(1.13808 0.0251669 0)
(1.13749 0.0300457 0)
(1.12162 0.0358103 0)
(1.1053 0.0411989 0)
(1.08936 0.0462179 0)
(1.07377 0.049594 0)
(1.06114 0.0498967 0)
(1.05436 0.0467815 0)
(1.05388 0.0425686 0)
(1.05823 0.0378288 0)
(1.06057 0.0331069 0)
(1.04154 0.0277292 0)
(0.947156 0.0211295 0)
(0.725456 0.0129985 0)
(0.414132 0.00519042 0)
(0.116799 0.000814136 0)
(0.251499 0.00204351 0)
(0.64418 0.00873297 0)
(0.941581 0.0185554 0)
(1.10165 0.0261234 0)
(1.14865 0.032287 0)
(1.14707 0.0394865 0)
(1.12937 0.0460014 0)
(1.111 0.0525836 0)
(1.09261 0.0580149 0)
(1.07436 0.0609532 0)
(1.0588 0.0599977 0)
(1.04971 0.0562314 0)
(1.04671 0.0509773 0)
(1.04974 0.0450565 0)
(1.05128 0.0400006 0)
(1.02831 0.0333538 0)
(0.925482 0.025203 0)
(0.696997 0.0155 0)
(0.388782 0.00612788 0)
(0.104823 0.00093888 0)
(0.274167 0.00284692 0)
(0.678556 0.012458 0)
(0.969963 0.0247728 0)
(1.12041 0.0346171 0)
(1.16253 0.0427143 0)
(1.15868 0.0507164 0)
(1.13867 0.0590709 0)
(1.11758 0.0665841 0)
(1.09602 0.0724964 0)
(1.07442 0.0755216 0)
(1.05615 0.0740562 0)
(1.04523 0.0687533 0)
(1.04163 0.0617109 0)
(1.04336 0.0540804 0)
(1.04148 0.0473094 0)
(1.01386 0.038949 0)
(0.904788 0.0295296 0)
(0.672815 0.0182548 0)
(0.365258 0.00715801 0)
(0.0928666 0.000994197 0)
(0.305239 0.00373328 0)
(0.723503 0.0152787 0)
(1.00713 0.0320805 0)
(1.14465 0.0450038 0)
(1.17973 0.0546513 0)
(1.17305 0.0661212 0)
(1.1495 0.0756525 0)
(1.12518 0.0842682 0)
(1.10025 0.0903624 0)
(1.07497 0.0925091 0)
(1.05247 0.089021 0)
(1.03752 0.0817994 0)
(1.03076 0.0737874 0)
(1.03075 0.0651199 0)
(1.02827 0.057055 0)
(0.994907 0.0471448 0)
(0.875125 0.0350356 0)
(0.633726 0.0213999 0)
(0.329719 0.0080111 0)
(0.0770132 0.00103065 0)
(0.341143 0.00725243 0)
(0.779728 0.0245142 0)
(1.05199 0.0445294 0)
(1.17403 0.0607854 0)
(1.20117 0.0737896 0)
(1.18918 0.0865327 0)
(1.16141 0.0974004 0)
(1.1329 0.106341 0)
(1.10351 0.11204 0)
(1.07383 0.113239 0)
(1.04815 0.108606 0)
(1.03199 0.100376 0)
(1.02445 0.0900495 0)
(1.02222 0.0789748 0)
(1.01329 0.0680981 0)
(0.971765 0.0553613 0)
(0.843302 0.0409971 0)
(0.59838 0.0248336 0)
(0.297851 0.00927958 0)
(0.0624205 0.000960599 0)
(0.422234 0.0109853 0)
(0.86407 0.0353084 0)
(1.11222 0.0648739 0)
(1.21027 0.0857779 0)
(1.22553 0.0992881 9.91653e-34)
(1.20698 0.115224 -4.34607e-34)
(1.17344 0.126081 0)
(1.14009 0.13436 0)
(1.10605 0.138574 0)
(1.07186 0.13744 0)
(1.04168 0.129637 0)
(1.02033 0.117654 0)
(1.00822 0.105242 0)
(1.0029 0.0929435 0)
(0.993146 0.0805829 0)
(0.944106 0.0658531 0)
(0.802235 0.0478422 0)
(0.544699 0.028789 0)
(0.248667 0.00938867 0)
(0.042381 0.000738601 0)
(0.491909 0.0261413 8.14091e-20)
(0.961611 0.0590409 -6.11962e-20)
(1.1765 0.0980054 0)
(1.24703 0.12183 4.46521e-20)
(1.25166 0.138047 -3.61871e-20)
(1.22376 0.154089 4.58539e-34)
(1.1844 0.163298 0)
(1.14581 0.169702 2.3003e-20)
(1.10633 0.171811 -7.46186e-20)
(1.06656 0.168125 1.50321e-20)
(1.03204 0.158001 0)
(1.00951 0.144675 -3.63857e-20)
(0.997275 0.130649 -4.30945e-20)
(0.98891 0.115195 7.52116e-20)
(0.96568 0.0982521 -5.92019e-20)
(0.899902 0.078627 0)
(0.741932 0.0567937 -2.12326e-20)
(0.475225 0.0321612 0)
(0.19481 0.0110769 -1.16975e-19)
(0.0244979 0.000993046 1.38135e-19)
(0.525421 0.0539229 -1.02753e-20)
(1.02003 0.102512 2.02724e-19)
(1.22213 0.148043 -1.7208e-20)
(1.27838 0.169246 -1.23169e-19)
(1.27426 0.186332 -7.68753e-20)
(1.23836 0.20035 1.2446e-19)
(1.19362 0.207366 0)
(1.14966 0.211666 0)
(1.10467 0.211404 1.19225e-19)
(1.05973 0.2049 0)
(1.02006 0.191321 1.332e-19)
(0.989997 0.174439 3.9039e-20)
(0.967341 0.15603 3.55988e-22)
(0.948024 0.138142 -8.20069e-20)
(0.925058 0.121184 0)
(0.857353 0.101494 0)
(0.694203 0.0736342 -3.47001e-19)
(0.433735 0.0441086 8.68889e-19)
(0.178555 0.0151365 -5.15425e-19)
(0.0190111 0.00243057 -6.08611e-19)
(0.531632 0.0766586 -1.49277e-19)
(1.05469 0.159009 5.28457e-20)
(1.2564 0.20926 2.47822e-20)
(1.30326 0.228587 2.17317e-19)
(1.29165 0.243356 1.41337e-20)
(1.24956 0.252921 -3.27785e-19)
(1.19999 0.256305 1.08944e-19)
(1.15069 0.257639 0)
(1.10014 0.25435 -2.53291e-19)
(1.04896 0.24461 2.16972e-19)
(1.00327 0.22863 -3.58852e-19)
(0.968991 0.208857 1.66916e-19)
(0.94618 0.190299 -1.05295e-19)
(0.929471 0.173349 2.38502e-19)
(0.895399 0.153263 0)
(0.82031 0.128262 -8.61795e-20)
(0.663216 0.0960437 0)
(0.422802 0.0563144 4.77653e-19)
(0.179811 0.0243308 -1.13443e-18)
(0.0244516 0.00284202 7.10515e-19)
(0.522913 0.108329 5.16062e-19)
(1.06931 0.215401 -2.17207e-19)
(1.27542 0.273938 -4.19268e-20)
(1.31937 0.292379 0)
(1.30274 0.304776 -1.56005e-19)
(1.25621 0.309571 1.90487e-19)
(1.20247 0.308661 -1.16562e-19)
(1.1484 0.306237 0)
(1.09301 0.298913 1.80244e-19)
(1.03747 0.285107 -1.53098e-19)
(0.987552 0.264621 3.10382e-19)
(0.948137 0.242253 0)
(0.918012 0.222278 -2.24123e-19)
(0.888971 0.200798 1.2707e-19)
(0.859036 0.180332 3.15649e-19)
(0.792226 0.157857 -2.77634e-19)
(0.648337 0.122394 4.43338e-19)
(0.424123 0.0771457 -9.81139e-19)
(0.195355 0.0356982 6.19647e-19)
(0.0350315 0.00640851 -7.7544e-19)
(0.510316 0.13262 -2.44369e-19)
(1.07627 0.270412 1.7808e-19)
(1.28551 0.340554 -1.36502e-19)
(1.3275 0.357885 2.41099e-19)
(1.3073 0.367728 -2.09204e-19)
(1.25795 0.367878 6.34978e-20)
(1.20122 0.36285 3.651e-21)
(1.14332 0.356453 -2.16469e-19)
(1.08391 0.345233 -1.90212e-19)
(1.02303 0.32738 -3.28704e-19)
(0.966549 0.30388 -6.66585e-19)
(0.923783 0.279369 -2.01358e-19)
(0.893071 0.256272 2.45515e-21)
(0.870268 0.236541 -4.2908e-19)
(0.833026 0.21635 -6.33568e-21)
(0.763723 0.187919 4.02194e-19)
(0.628059 0.148714 -1.2112e-19)
(0.422557 0.0977772 -7.06984e-20)
(0.208057 0.0488374 0)
(0.0443558 0.0106358 1.63962e-18)
(0.491918 0.153117 0)
(1.06807 0.319441 -4.01859e-20)
(1.28651 0.403498 -3.88897e-20)
(1.32904 0.421616 -1.25333e-20)
(1.30647 0.430041 2.13648e-19)
(1.25522 0.42616 -1.42451e-19)
(1.19612 0.417217 1.29531e-19)
(1.13523 0.406861 3.5266e-19)
(1.07209 0.391109 -1.04629e-19)
(1.00735 0.368939 1.66329e-19)
(0.948818 0.341463 3.57888e-19)
(0.902849 0.313505 4.36921e-19)
(0.866834 0.28971 -2.60019e-19)
(0.832691 0.266062 4.62773e-19)
(0.802942 0.245045 -3.65012e-19)
(0.744351 0.220009 0)
(0.621522 0.177194 -9.16264e-19)
(0.42875 0.121274 1.23368e-18)
(0.220783 0.0634905 9.19658e-20)
(0.0522491 0.015343 -1.72294e-18)
(0.478002 0.17369 -5.16757e-21)
(1.06012 0.368224 2.36807e-19)
(1.28319 0.464495 2.89553e-19)
(1.32579 0.483127 -2.95203e-19)
(1.30121 0.490264 1.63121e-19)
(1.24865 0.48294 -1.4444e-19)
(1.18798 0.47075 2.64439e-19)
(1.12474 0.456776 -1.12474e-19)
(1.0588 0.437378 -4.29134e-19)
(0.990832 0.411893 1.79174e-22)
(0.92797 0.379595 -3.86803e-19)
(0.878364 0.349006 -4.68376e-19)
(0.842902 0.322013 2.84611e-19)
(0.818381 0.301154 -1.65939e-19)
(0.781766 0.278812 3.94426e-19)
(0.720014 0.247302 0)
(0.604425 0.203606 -5.65484e-19)
(0.427236 0.142708 8.34933e-19)
(0.228405 0.0772362 1.58368e-18)
(0.0575417 0.0197476 -1.86358e-18)
(0.46328 0.191098 3.473e-19)
(1.04645 0.412313 -1.85873e-19)
(1.27571 0.521826 -2.49431e-19)
(1.31907 0.541904 3.12535e-19)
(1.29286 0.548291 1.15231e-20)
(1.23927 0.537885 -2.94564e-19)
(1.17728 0.522642 -1.48348e-19)
(1.11221 0.505247 -1.3464e-19)
(1.04399 0.482017 -2.37733e-19)
(0.972617 0.451189 3.80512e-19)
(0.907226 0.415651 3.96784e-19)
(0.857444 0.382784 7.45096e-19)
(0.820058 0.354937 0)
(0.784064 0.328066 5.93176e-21)
(0.754534 0.303776 -1.07526e-18)
(0.703153 0.278775 2.50309e-19)
(0.595959 0.230471 1.21631e-18)
(0.425819 0.164923 -3.58517e-19)
(0.23102 0.0899724 7.4869e-19)
(0.0600962 0.0233366 -6.25924e-20)
(0.454372 0.209981 5.94736e-21)
(1.03539 0.455845 -1.34637e-19)
(1.26628 0.576721 -1.65125e-19)
(1.30974 0.597889 4.55703e-19)
(1.28203 0.603389 -4.46409e-19)
(1.22768 0.590304 3.032e-19)
(1.16461 0.572588 1.55368e-19)
(1.09798 0.552287 4.1231e-19)
(1.02728 0.525897 4.87278e-19)
(0.953382 0.493104 -4.28802e-19)
(0.886241 0.455467 0)
(0.833481 0.41644 -2.77151e-19)
(0.79405 0.385787 3.18195e-19)
(0.769947 0.360349 3.93482e-19)
(0.734408 0.336584 -2.27777e-19)
(0.67806 0.302061 -5.52044e-19)
(0.575359 0.254702 -1.64624e-19)
(0.415466 0.18229 -1.36877e-21)
(0.225518 0.100099 0)
(0.0593191 0.0252839 0)
(0.446071 0.225722 1.03791e-19)
(1.02267 0.495806 0)
(1.25507 0.628061 -1.60855e-19)
(1.29855 0.65103 5.26406e-20)
(1.2696 0.655931 4.8687e-19)
(1.21465 0.640382 -1.28005e-19)
(1.15089 0.620321 1.60461e-19)
(1.08325 0.597311 -2.8416e-19)
(1.01163 0.567839 3.7498e-19)
(0.937063 0.530681 -1.33011e-19)
(0.866668 0.485559 2.26392e-19)
(0.812275 0.446678 8.80338e-19)
(0.773712 0.413603 1.37312e-20)
(0.73515 0.385042 -4.12332e-19)
(0.707872 0.357752 7.54322e-19)
(0.660873 0.329705 4.40511e-21)
(0.564064 0.275343 1.76126e-19)
(0.406379 0.198839 -8.39866e-19)
(0.217913 0.106695 8.58533e-19)
(0.0562948 0.0268402 -1.01845e-18)
(0.44002 0.244727 3.74244e-23)
(1.01153 0.534637 0)
(1.24306 0.676826 0)
(1.28605 0.701297 -7.10964e-20)
(1.25603 0.705335 -1.62964e-19)
(1.20065 0.687579 1.5741e-19)
(1.13625 0.665613 -3.1758e-19)
(1.06753 0.640233 0)
(0.993591 0.608154 -5.47286e-19)
(0.913879 0.568513 6.1815e-19)
(0.840569 0.523522 6.334e-19)
(0.786029 0.47966 -3.21161e-19)
(0.746257 0.442215 -3.83248e-19)
(0.722434 0.413603 8.95887e-19)
(0.68788 0.386349 -2.6801e-19)
(0.635963 0.346704 -3.19177e-19)
(0.541571 0.293797 -1.90846e-19)
(0.39139 0.210073 -9.04047e-19)
(0.207936 0.110984 1.30759e-19)
(0.0520333 0.0273203 1.09741e-18)
(0.436488 0.263182 2.98684e-20)
(1.00065 0.570921 6.34995e-20)
(1.23028 0.722485 2.33909e-20)
(1.27278 0.748862 -8.63869e-23)
(1.24191 0.75224 -1.12101e-19)
(1.18615 0.732412 3.00226e-19)
(1.1212 0.708614 0)
(1.05145 0.681211 1.6775e-19)
(0.976286 0.647001 -1.32273e-19)
(0.897524 0.604441 1.03555e-18)
(0.82547 0.554305 -1.42971e-19)
(0.766699 0.507305 1.61647e-19)
(0.723563 0.469456 0)
(0.687109 0.434011 -4.83633e-19)
(0.660378 0.402123 5.81061e-19)
(0.617439 0.37055 0)
(0.526666 0.307803 -4.11661e-19)
(0.375214 0.220099 1.21001e-18)
(0.196074 0.113148 1.42355e-19)
(0.0469183 0.0269214 -1.34924e-18)
(0.434567 0.28001 4.73805e-20)
(0.990958 0.605728 -6.00564e-20)
(1.21742 0.765469 0)
(1.25915 0.793417 -1.42634e-19)
(1.22746 0.796101 0)
(1.17132 0.774527 -3.46025e-19)
(1.10582 0.749224 0)
(1.03539 0.719987 0)
(0.959066 0.683806 -1.63058e-19)
(0.876717 0.639313 -9.80299e-19)
(0.796696 0.587751 -1.16707e-18)
(0.736448 0.536433 1.85052e-19)
(0.697465 0.491564 6.60405e-19)
(0.671973 0.458084 5.2923e-19)
(0.640424 0.426663 -1.86457e-18)
(0.591139 0.380777 -7.46475e-19)
(0.501347 0.320953 4.36956e-19)
(0.35615 0.224689 0)
(0.183268 0.113457 1.2251e-18)
(0.0416512 0.0255711 -1.45225e-18)
(0.433264 0.295718 -3.68117e-20)
(0.981433 0.638329 5.27004e-20)
(1.20454 0.805704 0)
(1.24535 0.835499 -1.05884e-20)
(1.21295 0.837664 6.7458e-20)
(1.15654 0.814411 0)
(1.09072 0.787633 9.68942e-20)
(1.01959 0.756802 1.08793e-19)
(0.941905 0.71905 -3.19121e-19)
(0.857912 0.67264 1.35133e-19)
(0.779252 0.616413 0)
(0.719226 0.562334 7.71103e-19)
(0.672599 0.517818 4.55859e-21)
(0.636039 0.47554 2.85043e-19)
(0.611174 0.436664 3.37376e-19)
(0.570929 0.400196 0)
(0.484154 0.327862 -7.15051e-19)
(0.337631 0.228657 1.40381e-18)
(0.16993 0.111975 -1.48612e-18)
(0.0365692 0.0238255 3.12564e-18)
(0.432239 0.310793 0)
(0.972753 0.669707 0)
(1.19202 0.843416 4.33931e-20)
(1.23173 0.874698 0)
(1.19866 0.876356 0)
(1.14199 0.851792 -3.47167e-19)
(1.07578 0.823837 1.00957e-19)
(1.00393 0.791602 1.74108e-20)
(0.924825 0.752305 -7.6938e-20)
(0.838347 0.704311 0)
(0.754922 0.648114 -1.74605e-19)
(0.687845 0.591296 -6.26739e-19)
(0.644369 0.538598 -7.46779e-19)
(0.619418 0.496215 -2.97608e-19)
(0.589389 0.458215 3.65336e-19)
(0.543376 0.402923 -8.61062e-19)
(0.456941 0.335581 1.53768e-18)
(0.3163 0.227333 4.15387e-21)
(0.156632 0.108952 -1.42614e-18)
(0.0320051 0.0218382 -2.10739e-19)
(0.431264 0.325523 0)
(0.964401 0.699374 3.2151e-20)
(1.17979 0.87884 -3.59806e-20)
(1.2183 0.911758 0)
(1.18461 0.913011 0)
(1.12774 0.887125 7.25433e-19)
(1.06128 0.858006 0)
(0.988769 0.824511 0)
(0.908577 0.784287 -7.07525e-19)
(0.820825 0.735314 1.76607e-19)
(0.735559 0.675239 -1.57594e-18)
(0.66853 0.614721 0)
(0.62004 0.562719 -8.06083e-19)
(0.580413 0.511807 1.10489e-20)
(0.556426 0.46131 -1.17202e-18)
(0.520444 0.416718 4.63189e-19)
(0.439238 0.333427 2.52692e-21)
(0.299771 0.225417 -1.62083e-18)
(0.145315 0.104933 7.68336e-19)
(0.0279789 0.0199557 2.2562e-19)
(0.430373 0.339868 0)
(0.956772 0.72782 -1.80342e-21)
(1.16801 0.912014 -3.92023e-20)
(1.20525 0.946119 -1.91138e-19)
(1.17101 0.946957 -9.17372e-20)
(1.11399 0.920148 8.75938e-20)
(1.04728 0.890213 -8.46489e-20)
(0.974257 0.855698 7.71979e-19)
(0.89292 0.814399 7.56852e-19)
(0.802845 0.764255 1.38628e-18)
(0.714408 0.704959 1.30989e-18)
(0.641462 0.644677 2.25582e-19)
(0.58913 0.583345 1.158e-18)
(0.561022 0.529582 7.05856e-19)
(0.532018 0.480003 8.40573e-19)
(0.490691 0.409545 -5.06006e-19)
(0.410859 0.332093 -5.92749e-19)
(0.280169 0.214234 6.93967e-19)
(0.135413 0.0998253 -4.11093e-19)
(0.0278825 0.0230041 7.29604e-19)
(0.429513 0.35375 2.87041e-20)
(0.949423 0.754594 -2.94608e-21)
(1.15655 0.943249 -1.65899e-20)
(1.19256 0.978663 1.63037e-20)
(1.15782 0.979121 2.62348e-19)
(1.10068 0.951296 -2.05513e-19)
(1.03387 0.920488 8.6769e-20)
(0.960403 0.885111 -2.09686e-20)
(0.878176 0.843224 -8.88175e-19)
(0.786453 0.792821 -1.4982e-18)
(0.694325 0.731806 9.30121e-20)
(0.618682 0.665923 0)
(0.564485 0.606871 0)
(0.51832 0.545835 -3.69247e-19)
(0.492309 0.477151 -1.3683e-18)
(0.461302 0.415601 1.08917e-18)
(0.395382 0.309717 6.47507e-19)
(0.282547 0.195659 0)
(0.145336 0.0770707 1.31124e-18)
(0.0217032 -0.000705862 -7.80723e-19)
(0.428727 0.366983 -1.38827e-20)
(0.942583 0.780043 1.5312e-20)
(1.14554 0.972415 2.19901e-20)
(1.18033 1.00868 7.56362e-20)
(1.14514 1.00873 7.76188e-20)
(1.08798 0.980257 -5.9091e-20)
(1.0211 0.948984 0)
(0.947293 0.91289 -9.78158e-19)
(0.864082 0.870389 1.08824e-19)
(0.770795 0.819426 0)
(0.677811 0.759269 0)
(0.597525 0.696535 1.39949e-19)
(0.532323 0.62977 1.82597e-19)
(0.495719 0.562398 -3.97338e-19)
(0.461873 0.496758 9.81377e-19)
(0.42193 0.396915 -1.18284e-18)
(0.356687 0.292404 -1.38443e-18)
(0.275005 0.17129 1.22338e-18)
(0.188634 0.107846 -4.68284e-19)
(0.11478 0.0839751 2.73751e-19)
(0.427811 0.379422 3.61621e-20)
(0.935874 0.803842 0)
(1.13486 0.999865 0)
(1.16851 1.03717 3.42286e-20)
(1.13295 1.03683 -2.77101e-20)
(1.07577 1.00753 -2.09729e-20)
(1.00892 0.975613 3.5921e-19)
(0.93491 0.93907 1.04067e-18)
(0.851132 0.896191 1.63388e-18)
(0.756348 0.84536 -1.1062e-19)
(0.657382 0.78474 2.22772e-19)
(0.570712 0.717766 -1.26762e-18)
(0.508543 0.653807 -1.23252e-18)
(0.448685 0.583889 -2.12511e-19)
(0.408628 0.491195 0)
(0.37544 0.404487 -1.02456e-20)
(0.323907 0.231552 7.54862e-19)
(0.281821 0.0710259 -1.28579e-18)
(0.241713 -0.0645773 9.82766e-19)
(0.080577 -0.0951088 8.25229e-19)
(0.426858 0.391349 -8.65097e-20)
(0.929486 0.826414 -4.66066e-20)
(1.12454 1.02553 6.78044e-21)
(1.15707 1.06351 -7.9109e-21)
(1.12114 1.06283 0)
(1.064 1.03313 -3.88528e-19)
(0.997192 1.00109 -4.91308e-19)
(0.922956 0.964194 2.16745e-20)
(0.838353 0.921297 -8.63308e-19)
(0.741997 0.870511 -1.0889e-19)
(0.643803 0.810709 1.01138e-19)
(0.557527 0.7496 1.11173e-18)
(0.475713 0.681562 1.20337e-18)
(0.423103 0.603052 2.06295e-19)
(0.37286 0.523198 1.03836e-18)
(0.304653 0.382386 0)
(0.192191 0.219727 0)
(0.0211986 0.236628 8.79412e-19)
(-0.0745672 0.628804 -3.21522e-20)
(0.00395346 1.52391 -1.05548e-18)
(0.425711 0.402626 5.12387e-20)
(0.923228 0.847672 9.24658e-20)
(1.11449 1.04996 -4.97882e-20)
(1.14595 1.08899 -5.9636e-20)
(1.10967 1.08813 4.56628e-20)
(1.05251 1.05794 -3.97819e-19)
(0.985691 1.02561 0)
(0.9113 0.988825 -8.91204e-19)
(0.82628 0.946134 0)
(0.7285 0.895851 1.59975e-18)
(0.623634 0.837228 -1.17259e-19)
(0.524707 0.773973 1.31477e-19)
(0.452172 0.710636 1.37249e-18)
(0.369735 0.641936 -4.40792e-19)
(0.281571 0.529693 -5.27355e-19)
(0.207085 0.441994 0)
(0.0987417 0.542095 0)
(0.0303925 1.29467 0)
(0.0747771 2.44771 -5.0187e-19)
(0.10376 2.90318 -3.06033e-19)
(0.424414 0.413348 0)
(0.917255 0.867744 0)
(1.10483 1.0728 2.4141e-20)
(1.13524 1.1125 5.90986e-20)
(1.0986 1.11154 -1.24292e-19)
(1.04147 1.0813 3.78075e-19)
(0.97471 1.0493 6.07434e-20)
(0.900107 1.01261 -4.72942e-20)
(0.814305 0.970634 1.18717e-19)
(0.71496 0.921692 -1.83717e-18)
(0.610832 0.865153 2.18529e-19)
(0.518397 0.808525 1.11076e-18)
(0.419873 0.748168 -1.37136e-18)
(0.343695 0.665376 -1.47062e-18)
(0.271036 0.593711 4.9304e-19)
(0.200955 0.718358 0)
(0.132376 1.52553 6.87741e-19)
(0.131507 2.68257 7.71746e-19)
(0.139072 3.08419 -8.63459e-19)
(0.130045 3.22039 9.38368e-19)
(0.422934 0.423586 0)
(0.911402 0.886523 1.23852e-19)
(1.09544 1.09448 -3.73369e-21)
(1.12491 1.1353 -2.01596e-20)
(1.08796 1.13438 1.30464e-19)
(1.03082 1.10394 0)
(0.964029 1.07194 0)
(0.889318 1.03578 0)
(0.803146 0.994443 7.30805e-19)
(0.702988 0.946515 9.05661e-20)
(0.594317 0.891992 0)
(0.484784 0.835733 -1.10937e-18)
(0.40313 0.780159 0)
(0.294201 0.719359 1.05478e-18)
(0.212144 0.791886 -7.09469e-19)
(0.163766 1.45418 -5.68192e-19)
(0.166662 2.6715 -1.34008e-18)
(0.187137 3.12634 -7.16948e-19)
(0.177672 3.26924 -1.01851e-18)
(0.162983 3.30983 7.98527e-19)
(0.421419 0.433014 -4.89617e-20)
(0.905831 0.904196 1.54071e-20)
(1.08647 1.11473 -7.06875e-21)
(1.11504 1.15623 2.99071e-20)
(1.07774 1.15541 0)
(1.02064 1.12522 0)
(0.953918 1.09385 0)
(0.879036 1.05816 6.15753e-20)
(0.792405 1.01812 -9.18272e-19)
(0.69111 0.972627 0)
(0.581405 0.921713 0)
(0.484758 0.872623 0)
(0.371474 0.822558 0)
(0.308244 0.808484 7.80261e-19)
(0.277258 1.17962 1.8995e-18)
(0.261635 2.36139 5.61381e-19)
(0.272511 3.08246 1.16301e-18)
(0.266227 3.28706 -9.17041e-19)
(0.216488 3.35382 3.42934e-19)
(0.183085 3.36638 0)
(0.419765 0.442064 5.32669e-20)
(0.900152 0.921108 -3.05534e-19)
(1.07753 1.13449 -6.66996e-20)
(1.1053 1.17722 -8.03437e-21)
(1.06773 1.17663 -3.6055e-20)
(1.01067 1.14644 3.84864e-19)
(0.943911 1.11526 -3.906e-20)
(0.869049 1.08036 -8.19423e-19)
(0.782212 1.04132 0)
(0.680385 0.997198 -1.06441e-19)
(0.569393 0.948201 9.68278e-20)
(0.453947 0.90038 0)
(0.369929 0.863238 0)
(0.321548 0.988857 -9.76136e-19)
(0.284824 1.84818 1.38608e-19)
(0.279958 2.93754 -4.43306e-19)
(0.29974 3.29189 9.48227e-19)
(0.273072 3.39185 7.29829e-19)
(0.206041 3.41681 -1.07362e-18)
(0.18064 3.42578 5.36358e-19)
(0.417771 0.451263 1.13117e-19)
(0.894184 0.938481 3.16652e-19)
(1.06823 1.15456 7.22631e-20)
(1.09523 1.1979 0)
(1.05738 1.19745 0)
(1.00044 1.16756 -2.92766e-19)
(0.933903 1.13713 3.43995e-19)
(0.859071 1.10282 7.37316e-19)
(0.772284 1.06532 4.23676e-20)
(0.670193 1.02432 1.45218e-18)
(0.557744 0.980909 -1.57784e-18)
(0.454319 0.938374 0)
(0.376486 0.945578 0)
(0.342811 1.34879 -6.86041e-19)
(0.344881 2.46909 -8.13975e-19)
(0.387541 3.19923 0)
(0.41283 3.37621 -1.066e-18)
(0.342804 3.44009 -1.6272e-20)
(0.270949 3.48433 6.8506e-19)
(0.247463 3.50994 -2.75662e-19)
(0.415325 0.460857 -2.2091e-19)
(0.887352 0.956539 -1.56475e-19)
(1.05795 1.17579 0)
(1.08429 1.22037 0)
(1.04633 1.22009 0)
(0.989583 1.19002 0)
(0.923207 1.15958 -3.7883e-19)
(0.848751 1.12595 7.3378e-19)
(0.762001 1.08938 0)
(0.659833 1.04962 -1.32597e-18)
(0.549147 1.00705 2.85112e-18)
(0.437809 0.974141 1.13229e-19)
(0.382678 1.05861 1.43531e-19)
(0.391406 1.73687 1.13488e-18)
(0.412657 2.89127 -6.35795e-19)
(0.449708 3.32536 0)
(0.431549 3.45236 3.16613e-19)
(0.344677 3.54011 9.47853e-20)
(0.265312 3.60602 8.13311e-20)
(0.189878 3.58563 1.09239e-19)
(0.412367 0.470774 1.07771e-19)
(0.879899 0.975766 -1.77964e-19)
(1.04694 1.19795 0)
(1.0726 1.24279 -3.2056e-21)
(1.03447 1.24246 -2.56936e-20)
(0.978039 1.21251 0)
(0.91221 1.18271 0)
(0.838124 1.14955 -1.30954e-18)
(0.752126 1.11438 -9.42707e-20)
(0.650961 1.07797 1.35506e-18)
(0.536402 1.04255 -1.36577e-18)
(0.451176 1.02755 7.69542e-19)
(0.416285 1.24274 0)
(0.437021 2.17456 -6.0988e-19)
(0.477905 3.14473 3.87403e-19)
(0.538524 3.43131 2.85074e-19)
(0.532229 3.52981 0)
(0.467051 3.61588 1.88973e-20)
(0.39423 3.65893 -2.99978e-19)
(0.312152 3.62982 -6.12365e-20)
(0.408703 0.480976 -2.30874e-19)
(0.871205 0.995613 2.59251e-19)
(1.03466 1.22129 1.45354e-19)
(1.05983 1.26734 -3.10904e-20)