/*--------------------------------*- C++ -*----------------------------------*\
  =========                 |
  \\      /  F ield         | OpenFOAM: The Open Source CFD Toolbox
   \\    /   O peration     | Website:  https://openfoam.org
    \\  /    A nd           | Version:  9
     \\/     M anipulation  |
\*---------------------------------------------------------------------------*/
FoamFile
{
    format      ascii;
    class       volScalarField;
    location    "38";
    object      p;
}
// * * * * * * * * * * * * * * * * * * * * * * * * * * * * * * * * * * * * * //

dimensions      [0 2 -2 0 0 0 0];

internalField   nonuniform List<scalar> 
2200
(
0.80498
0.783479
0.767568
0.751897
0.737283
0.724751
0.714381
0.706248
0.700514
0.697499
0.697908
0.701662
0.707932
0.716444
0.727086
0.739819
0.754579
0.770444
0.786457
0.807962
0.73742
0.734161
0.731234
0.727109
0.721633
0.715147
0.708513
0.702529
0.697979
0.695512
0.695916
0.699154
0.704275
0.710687
0.717632
0.724353
0.729995
0.734116
0.737
0.740337
0.697544
0.697762
0.699805
0.701133
0.70151
0.700638
0.698626
0.695926
0.693344
0.691801
0.692271
0.694631
0.697834
0.701001
0.703316
0.704322
0.704042
0.702988
0.701266
0.701024
0.675037
0.676484
0.679083
0.681541
0.683981
0.685988
0.687125
0.687324
0.686909
0.68656
0.687105
0.688373
0.689492
0.689813
0.689077
0.687366
0.685172
0.68294
0.680339
0.678925
0.66074
0.66271
0.665529
0.66836
0.6712
0.674006
0.676441
0.67826
0.679423
0.680127
0.680752
0.681126
0.680804
0.679629
0.677705
0.675289
0.672704
0.669964
0.667175
0.665244
0.65352
0.65512
0.657311
0.659818
0.662452
0.665082
0.667623
0.669989
0.671937
0.673335
0.674068
0.673975
0.673031
0.671432
0.669462
0.66727
0.664913
0.662559
0.660453
0.658875
0.650151
0.651175
0.652436
0.654288
0.656417
0.658561
0.660703
0.662927
0.665065
0.666803
0.66768
0.667533
0.666619
0.665306
0.663836
0.662191
0.660433
0.65881
0.657673
0.656659
0.647569
0.648235
0.648865
0.650167
0.651778
0.653442
0.655144
0.656988
0.658928
0.660744
0.661812
0.661928
0.661475
0.660731
0.659847
0.658805
0.657669
0.656687
0.656208
0.655537
0.644516
0.644961
0.645358
0.64635
0.647602
0.648954
0.650391
0.651947
0.653633
0.655386
0.656687
0.657282
0.657381
0.657189
0.656769
0.656184
0.655504
0.6549
0.654676
0.654218
0.640673
0.640974
0.641332
0.642202
0.643306
0.64456
0.64596
0.647494
0.649164
0.650967
0.652567
0.653642
0.654178
0.654329
0.654192
0.653861
0.653429
0.653001
0.652827
0.652512
0.636135
0.636332
0.636715
0.637569
0.638689
0.640012
0.64154
0.643245
0.645116
0.647163
0.649129
0.650579
0.651429
0.651793
0.651826
0.65166
0.651363
0.651037
0.65087
0.650649
0.631175
0.631308
0.631686
0.632549
0.633759
0.635248
0.636975
0.638918
0.64109
0.643509
0.645923
0.647797
0.648949
0.649542
0.649729
0.649658
0.649458
0.649241
0.649102
0.648945
0.62602
0.62611
0.626484
0.627315
0.628562
0.630177
0.632139
0.634439
0.637077
0.64005
0.643035
0.645374
0.646839
0.647645
0.648008
0.648094
0.648073
0.647984
0.647885
0.647758
0.620501
0.620556
0.620938
0.621788
0.623102
0.62484
0.627014
0.629709
0.632936
0.63665
0.640297
0.643064
0.644873
0.64599
0.646671
0.647063
0.647241
0.647285
0.647239
0.647124
0.614457
0.614471
0.61488
0.615777
0.617244
0.619154
0.62154
0.624529
0.628261
0.632707
0.637176
0.640679
0.64312
0.64482
0.645962
0.646649
0.64701
0.647175
0.647179
0.647078
0.60798
0.607891
0.608323
0.609305
0.610945
0.613087
0.615738
0.619056
0.623245
0.628436
0.633966
0.638606
0.641994
0.644409
0.646035
0.647009
0.647581
0.647862
0.647915
0.647833
0.600953
0.60095
0.601304
0.602317
0.604223
0.606682
0.609802
0.613749
0.618754
0.624979
0.631779
0.637615
0.641918
0.644939
0.647001
0.648363
0.649228
0.649652
0.649759
0.649683
0.592969
0.592957
0.593389
0.594609
0.596813
0.599707
0.60352
0.60847
0.61472
0.622431
0.630718
0.637708
0.64282
0.646503
0.649125
0.650913
0.652029
0.652603
0.652772
0.652692
0.583766
0.583684
0.584235
0.58573
0.588232
0.591663
0.596285
0.602317
0.610066
0.619636
0.629773
0.63824
0.644502
0.649068
0.652353
0.654632
0.656063
0.656831
0.657069
0.656976
0.572801
0.572689
0.573301
0.575023
0.577993
0.58208
0.587573
0.594817
0.604187
0.61585
0.628306
0.638781
0.646631
0.652415
0.656599
0.659518
0.661414
0.662413
0.662726
0.662608
0.559651
0.559522
0.560213
0.562191
0.565687
0.57067
0.577469
0.5864
0.597887
0.612118
0.627268
0.640037
0.649592
0.656738
0.661947
0.665692
0.668166
0.669426
0.669816
0.669657
0.543177
0.543086
0.544045
0.546534
0.550976
0.557351
0.566017
0.577382
0.59179
0.609225
0.62739
0.642599
0.653999
0.662533
0.668851
0.67341
0.676425
0.677922
0.678362
0.678156
0.522451
0.52229
0.523593
0.526978
0.532861
0.541312
0.552683
0.567341
0.585435
0.606742
0.62846
0.646361
0.65974
0.669759
0.677201
0.682605
0.686164
0.687888
0.688377
0.68812
0.495127
0.495163
0.497259
0.502032
0.51021
0.521826
0.536964
0.555805
0.578332
0.604184
0.629983
0.650988
0.666617
0.678357
0.687122
0.693455
0.697552
0.699472
0.699978
0.699669
0.458306
0.458605
0.462223
0.46995
0.482061
0.4985
0.518822
0.543001
0.570844
0.601876
0.63216
0.656542
0.674622
0.688195
0.698384
0.705808
0.710502
0.712614
0.713126
0.712727
0.40878
0.409221
0.416331
0.42934
0.447936
0.471499
0.498763
0.529591
0.56371
0.600561
0.635669
0.663514
0.684054
0.699567
0.71129
0.719744
0.724898
0.727037
0.727412
0.726992
0.342816
0.345778
0.361146
0.382606
0.410135
0.442408
0.477777
0.516141
0.557286
0.60066
0.641175
0.673152
0.696932
0.714973
0.728613
0.738626
0.744677
0.74699
0.747185
0.746971
0.267565
0.277297
0.302974
0.334409
0.372026
0.413294
0.456779
0.50292
0.551471
0.601866
0.648618
0.685624
0.71324
0.734381
0.750735
0.762638
0.769807
0.772133
0.772207
0.772351
0.200664
0.215718
0.24787
0.287894
0.334923
0.38503
0.436508
0.490391
0.546261
0.603522
0.656159
0.6977
0.728867
0.75276
0.770941
0.784304
0.792303
0.795687
0.796376
0.796359
0.14996
0.163456
0.200927
0.246838
0.301018
0.358445
0.417344
0.478535
0.541343
0.605172
0.663327
0.709132
0.743196
0.769142
0.789017
0.803923
0.812464
0.816099
0.816765
0.816847
0.108214
0.120819
0.161813
0.211596
0.271174
0.334398
0.399677
0.467349
0.536445
0.606341
0.669904
0.719473
0.756032
0.78372
0.804624
0.820253
0.829392
0.833332
0.834128
0.834241
0.0722905
0.085141
0.12854
0.181162
0.244971
0.312843
0.383483
0.456769
0.531541
0.607279
0.67579
0.728498
0.767069
0.795974
0.81766
0.833464
0.842987
0.847248
0.848216
0.848323
0.0408889
0.0538941
0.0992812
0.154414
0.221663
0.293371
0.368546
0.446686
0.526582
0.607359
0.679876
0.735574
0.775951
0.805856
0.827887
0.843964
0.854034
0.858547
0.859717
0.859809
0.0127814
0.025846
0.0728917
0.130298
0.200481
0.275441
0.354477
0.436777
0.521131
0.606436
0.68339
0.741736
0.783399
0.814052
0.836737
0.853046
0.863432
0.868213
0.86948
0.86954
-0.0128931
0.000138814
0.0484428
0.108031
0.180826
0.258608
0.340978
0.426967
0.515472
0.605378
0.685953
0.746662
0.789953
0.821511
0.844668
0.861182
0.871751
0.876575
0.877827
0.877649
-0.0370174
-0.0236339
0.0254501
0.0870813
0.16217
0.242477
0.327816
0.41712
0.509282
0.602919
0.686971
0.751035
0.795861
0.828202
0.85184
0.868477
0.878729
0.883626
0.884847
0.884682
-0.0596612
-0.0461539
0.00370103
0.0671391
0.144209
0.226776
0.314712
0.406855
0.502224
0.599671
0.688339
0.754992
0.80149
0.834806
0.85846
0.875113
0.885372
0.89007
0.891402
0.891292
-0.0810279
-0.0675529
-0.0170066
0.0479664
0.126722
0.211284
0.301504
0.396246
0.494822
0.596151
0.688317
0.757842
0.806917
0.84103
0.865147
0.881715
0.891827
0.896455
0.89763
0.897557
-0.101625
-0.0879277
-0.0368767
0.0293614
0.109548
0.1959
0.288229
0.385432
0.486925
0.591514
0.687426
0.761044
0.812087
0.847536
0.872033
0.888444
0.898352
0.9027
0.903832
0.90372
-0.121881
-0.107543
-0.0561141
0.0112045
0.0926172
0.180598
0.274881
0.374275
0.478245
0.585982
0.686058
0.76309
0.817041
0.854352
0.879384
0.895582
0.904909
0.908978
0.909842
0.909711
-0.14183
-0.126652
-0.0748497
-0.00654463
0.0759379
0.165362
0.261366
0.362711
0.468991
0.579794
0.683682
0.764519
0.82192
0.861463
0.887496
0.90337
0.911822
0.91504
0.915637
0.91546
-0.161315
-0.145398
-0.0931474
-0.0238926
0.0595231
0.150179
0.247667
0.350785
0.459305
0.572942
0.680139
0.765001
0.826227
0.868936
0.896687
0.91232
0.91921
0.920952
0.920983
0.92084
-0.180214
-0.163737
-0.110991
-0.0408433
0.043387
0.135089
0.233871
0.338613
0.449137
0.565013
0.675033
0.764275
0.829913
0.876686
0.907211
0.923272
0.928198
0.926346
0.925622
0.926368
-0.198495
-0.18161
-0.128335
-0.0573594
0.0275887
0.120176
0.220059
0.326179
0.438328
0.556132
0.669163
0.76231
0.832623
0.884303
0.919038
0.936973
0.940589
0.934487
0.929006
0.927142
-0.216136
-0.198898
-0.14511
-0.0733927
0.0121906
0.105519
0.206294
0.313511
0.427025
0.546639
0.662014
0.75844
0.833719
0.891338
0.931948
0.954177
0.960777
0.948593
0.94593
0.950355
-0.233143
-0.215559
-0.16126
-0.0888768
-0.0027345
0.0911937
0.192657
0.300729
0.415369
0.536453
0.653655
0.753127
0.83298
0.896632
0.944755
0.974609
0.98777
0.961342
0.918339
0.879303
-0.249444
-0.23158
-0.176815
-0.10388
-0.0172899
0.0770802
0.179022
0.287699
0.403173
0.525439
0.644161
0.745741
0.829067
0.899059
0.956082
0.997234
1.02523
1.01698
1.03395
1.08837
-0.265001
-0.247028
-0.191871
-0.118542
-0.0316539
0.0629624
0.165144
0.274131
0.390046
0.513004
0.632706
0.73543
0.821323
0.89579
0.957549
1.00233
1.02367
1.01116
0.974459
0.986239
-0.279776
-0.261856
-0.206384
-0.132814
-0.0457581
0.0489389
0.151157
0.260172
0.376141
0.499286
0.619372
0.72224
0.80783
0.882608
0.943854
0.986455
0.982457
0.934645
0.873555
0.86228
-0.293776
-0.276074
-0.220356
-0.1467
-0.0596052
0.0350056
0.137074
0.245863
0.36151
0.484297
0.604007
0.705773
0.788813
0.858036
0.912602
0.927842
0.896767
0.824029
0.751423
0.73322
-0.307027
-0.28966
-0.233797
-0.160223
-0.0732241
0.0211404
0.122885
0.231213
0.346182
0.468009
0.586348
0.685869
0.763127
0.819853
0.849893
0.840866
0.789137
0.689576
0.603422
0.583504
-0.319993
-0.303039
-0.247107
-0.173751
-0.0869697
0.00702547
0.108311
0.215987
0.329961
0.450236
0.566407
0.662239
0.732279
0.773093
0.768999
0.736466
0.630478
0.509965
0.403799
0.378603
-0.33357
-0.316986
-0.260983
-0.187913
-0.10142
-0.00782632
0.0929234
0.199811
0.312553
0.4308
0.543945
0.634557
0.69721
0.71479
0.680767
0.596232
0.441885
0.290659
0.162995
0.136926
-0.348289
-0.33194
-0.275755
-0.202946
-0.116754
-0.0235468
0.0766284
0.18262
0.293926
0.409711
0.518911
0.604011
0.655591
0.646055
0.592011
0.444439
0.244482
0.0318058
-0.148071
-0.195021
-0.364244
-0.347957
-0.291473
-0.218872
-0.132949
-0.0401048
0.0594548
0.164443
0.27414
0.387099
0.49121
0.570746
0.607297
0.566558
0.47887
0.290088
0.056584
-0.234454
-0.558218
-0.703572
-0.381522
-0.365174
-0.30826
-0.23577
-0.150054
-0.0575627
0.0413473
0.145243
0.253182
0.36304
0.461299
0.53488
0.554048
0.482257
0.345429
0.136835
-0.101448
-0.450149
-1.04371
-1.61915
-0.40018
-0.383628
-0.326173
-0.253702
-0.168087
-0.0759063
0.0223493
0.125112
0.231231
0.337927
0.430238
0.496255
0.497717
0.406872
0.215526
-0.0228127
-0.231277
-0.473135
-1.04193
-2.58568
-0.420227
-0.403456
-0.345315
-0.272785
-0.187203
-0.095333
0.00223432
0.103789
0.207958
0.31135
0.397775
0.454524
0.43696
0.34752
0.119497
-0.124916
-0.278133
-0.321042
-0.318959
-0.713661
-0.441569
-0.42471
-0.365848
-0.293321
-0.207797
-0.116319
-0.0195958
0.0805381
0.182431
0.281903
0.363045
0.409581
0.37586
0.298743
0.0674481
-0.142149
-0.258006
-0.268562
-0.217457
-0.259282
-0.464145
-0.447324
-0.387766
-0.31535
-0.229931
-0.138981
-0.0432785
0.0552006
0.15445
0.249481
0.325936
0.362733
0.321871
0.247291
0.0336966
-0.134894
-0.219596
-0.227087
-0.274625
-0.281009
-0.487851
-0.471042
-0.410983
-0.338883
-0.253589
-0.163318
-0.0688343
0.0277665
0.124075
0.21448
0.286356
0.314235
0.274252
0.186672
0.00548282
-0.125505
-0.199743
-0.170868
-0.193365
-0.195196
-0.512522
-0.495483
-0.4354
-0.363794
-0.278602
-0.18924
-0.0961727
-0.00167539
0.0914011
0.177197
0.24448
0.262378
0.232255
0.119731
-0.0287429
-0.120248
-0.167853
-0.208588
-0.184918
-0.192925
-0.537717
-0.520342
-0.460873
-0.389916
-0.304753
-0.21656
-0.125078
-0.0328455
0.0566705
0.138165
0.201546
0.209265
0.189807
0.0571319
-0.0673089
-0.135438
-0.123744
-0.183304
-0.159667
-0.165154
-0.562792
-0.54521
-0.487207
-0.416806
-0.33167
-0.245002
-0.155225
-0.0653987
0.0200872
0.0976001
0.158091
0.157699
0.139252
0.00397645
-0.0970745
-0.154153
-0.133052
-0.158624
-0.1611
-0.161255
-0.587168
-0.569825
-0.513556
-0.44376
-0.359041
-0.274169
-0.186162
-0.0988232
-0.0176591
0.0560135
0.115069
0.108654
0.0832981
-0.0411284
-0.114568
-0.151736
-0.175233
-0.160431
-0.166335
-0.162894
-0.610087
-0.593462
-0.53892
-0.469925
-0.386417
-0.303467
-0.217294
-0.132483
-0.0556352
0.013684
0.0724551
0.0629431
0.0260496
-0.0791364
-0.131289
-0.134076
-0.19384
-0.158129
-0.16611
-0.159826
-0.63066
-0.615149
-0.562317
-0.494384
-0.413385
-0.332091
-0.247857
-0.165672
-0.0927111
-0.0287185
0.0296869
0.0182106
-0.0263022
-0.101231
-0.148166
-0.13196
-0.188247
-0.147347
-0.152266
-0.147991
-0.64762
-0.633654
-0.583082
-0.516664
-0.438752
-0.358965
-0.276918
-0.197439
-0.127759
-0.0700914
-0.0121064
-0.0265079
-0.0762875
-0.109456
-0.13259
-0.121176
-0.129973
-0.135182
-0.138283
-0.137034
-0.659885
-0.647892
-0.600171
-0.535863
-0.460999
-0.383085
-0.303477
-0.226722
-0.159752
-0.108829
-0.0517716
-0.0692155
-0.133918
-0.121504
-0.0582647
-0.0467968
-0.074372
-0.121128
-0.138757
-0.144271
-0.666352
-0.656617
-0.612643
-0.550811
-0.478664
-0.403266
-0.326309
-0.252203
-0.187404
-0.142493
-0.0878769
-0.106511
-0.200342
-0.218771
-0.134047
-0.161057
-0.174883
-0.193498
-0.202563
-0.202112
-0.666449
-0.658736
-0.618758
-0.559918
-0.490774
-0.418223
-0.344025
-0.272244
-0.209188
-0.16769
-0.119635
-0.137331
-0.283084
-0.468128
-0.596507
-0.693691
-0.702019
-0.648998
-0.602942
-0.570511
-0.659295
-0.652059
-0.616985
-0.562048
-0.496221
-0.426689
-0.355203
-0.2852
-0.222441
-0.180691
-0.141624
-0.153099
-0.347591
-0.691942
-1.14373
-1.38542
-1.40361
-1.3513
-1.22402
-1.129
-0.640873
-0.633187
-0.60488
-0.555692
-0.494185
-0.427916
-0.358778
-0.289348
-0.224295
-0.177054
-0.142263
-0.130106
-0.282179
-0.547444
-0.872096
-0.988334
-0.924566
-0.834294
-0.751613
-0.696913
-0.604594
-0.597682
-0.581308
-0.541112
-0.484502
-0.42127
-0.354168
-0.283806
-0.212997
-0.152856
-0.104844
-0.0395161
0.0213658
0.142836
0.239976
0.361036
0.477554
0.565642
0.631207
0.695486
-0.558959
-0.555177
-0.550403
-0.518886
-0.469021
-0.408592
-0.341776
-0.268991
-0.189498
-0.106858
-0.0272094
0.115795
0.338918
0.701341
1.05316
1.34539
1.55951
1.69138
1.75676
1.77504
-0.526692
-0.526774
-0.520674
-0.496927
-0.452062
-0.392512
-0.323604
-0.247041
-0.158874
-0.0546031
0.0566972
0.215238
0.509062
0.914584
1.31233
1.64429
1.87782
2.009
2.06489
2.08084
-0.494687
-0.495476
-0.489632
-0.476797
-0.43674
-0.377108
-0.304938
-0.225265
-0.133473
-0.0233228
0.0942948
0.210323
0.473421
0.804687
1.12636
1.40204
1.60977
1.73441
1.79168
1.80907
-0.465902
-0.464693
-0.463873
-0.460127
-0.421663
-0.362462
-0.288884
-0.207162
-0.117558
-0.0145318
0.0963602
0.172934
0.379665
0.651178
0.904152
1.12177
1.29677
1.4058
1.45492
1.46813
-0.453105
-0.451371
-0.456662
-0.448744
-0.409445
-0.34797
-0.274382
-0.194209
-0.111198
-0.0226959
0.0802868
0.135508
0.27926
0.496523
0.696925
0.860944
0.992611
1.07936
1.11831
1.12878
-0.429289
-0.428302
-0.43616
-0.427408
-0.391
-0.328691
-0.257754
-0.182652
-0.107375
-0.0340085
0.0599838
0.107301
0.19756
0.363837
0.521369
0.643638
0.738914
0.803488
0.831648
0.837709
-0.379967
-0.380607
-0.387819
-0.380431
-0.35173
-0.294364
-0.23352
-0.166931
-0.100301
-0.040702
0.0419531
0.0870583
0.141262
0.265028
0.384995
0.47472
0.542835
0.588352
0.607752
0.614556
-0.300152
-0.302498
-0.306077
-0.301529
-0.279773
-0.241343
-0.196141
-0.143377
-0.0873249
-0.0398057
0.0289107
0.0712307
0.104387
0.198144
0.285856
0.349249
0.398724
0.434544
0.447484
0.450987
-0.202132
-0.203952
-0.20575
-0.203834
-0.192243
-0.171525
-0.144572
-0.110178
-0.0674405
-0.0312655
0.021928
0.0580587
0.0813453
0.153289
0.215739
0.258499
0.294276
0.318947
0.330303
0.333761
-0.109911
-0.111117
-0.112661
-0.113259
-0.109991
-0.102419
-0.090072
-0.0712318
-0.0434029
-0.0183637
0.0197515
0.0483609
0.0662363
0.121704
0.165068
0.194158
0.217283
0.231851
0.238928
0.240933
-0.0375861
-0.0384379
-0.0399104
-0.0425835
-0.0449986
-0.0456699
-0.0429735
-0.0352329
-0.0201262
-0.00545938
0.0195684
0.0424677
0.0554278
0.0963586
0.125191
0.144843
0.158773
0.165871
0.168186
0.168083
0.0101399
0.00957348
0.00817429
0.0043278
-0.00166428
-0.00669242
-0.0093345
-0.00841637
-0.00225748
0.00537474
0.0196635
0.0363088
0.0457058
0.0729294
0.0922015
0.104638
0.112161
0.114438
0.1137
0.112517
0.0365737
0.0361054
0.0347701
0.0306302
0.0233619
0.0164672
0.0110294
0.00816804
0.00954321
0.0134613
0.0214472
0.0304312
0.0376559
0.0528249
0.0648805
0.0727688
0.0764161
0.0768212
0.0754354
0.0737617
0.0481495
0.0477641
0.0465944
0.0429451
0.0362578
0.0292553
0.0229289
0.0183712
0.0174156
0.0189823
0.0241711
0.0274122
0.0313646
0.0391003
0.0449752
0.0484928
0.0496317
0.048399
0.0466695
0.045168
0.0515245
0.0512069
0.0502683
0.0473705
0.042057
0.0361268
0.0302788
0.0252625
0.0232246
0.022609
0.0260176
0.0272792
0.0274264
0.0307213
0.0331488
0.0335807
0.0329186
0.0303419
0.0280201
0.0267001
0.0505706
0.0503383
0.0496311
0.0475889
0.043743
0.0391253
0.0343214
0.029504
0.0269424
0.0249177
0.0269587
0.0282954
0.0281048
0.0296142
0.0300334
0.0294443
0.0278473
0.0262331
0.0242742
0.0226648
0.0476634
0.0474998
0.0469618
0.0455187
0.0426593
0.0391747
0.0353408
0.0311859
0.0286539
0.0261515
0.0270124
0.0277605
0.0285569
0.0306607
0.0311053
0.0309493
0.0297172
0.0283575
0.0273199
0.02583
0.0436709
0.0435506
0.0431202
0.0421376
0.0400271
0.0374828
0.0344944
0.0311132
0.0288743
0.0264358
0.0265434
0.0269516
0.0273473
0.0291627
0.0308745
0.031001
0.0321238
0.0316794
0.0310346
0.0299388
0.0394503
0.0393364
0.0389797
0.0382494
0.0367363
0.0349713
0.0327073
0.0300663
0.0280154
0.0253459
0.0253088
0.0247196
0.0263417
0.0269891
0.0296265
0.0319061
0.0337803
0.0357885
0.0366062
0.0348973
0.0355115
0.0354045
0.0351513
0.0346395
0.0335416
0.0323034
0.0306083
0.0285239
0.0268223
0.0236051
0.023281
0.0217689
0.0232668
0.0248837
0.0287027
0.0334013
0.0355823
0.0382323
0.0401223
0.0384101
0.0321139
0.0320015
0.0318267
0.0314339
0.0306777
0.0298574
0.0286362
0.0267913
0.0256543
0.022396
0.0205061
0.0183902
0.018145
0.0222985
0.0279426
0.0332157
0.0385577
0.0402466
0.0413441
0.0403847
0.0290913
0.0289768
0.0289101
0.0286431
0.0280938
0.0274697
0.0268722
0.0251483
0.0236878
0.0208718
0.0174797
0.013494
0.0106171
0.0153133
0.0248554
0.0303849
0.0351145
0.0364547
0.0362915
0.0355505
0.02621
0.0260878
0.0260289
0.0258694
0.0257091
0.0253398
0.025194
0.0242262
0.0229456
0.0191298
0.0146296
0.010426
0.00474138
0.0100434
0.018054
0.0226145
0.0231389
0.0254865
0.0273164
0.0261528
0.0232323
0.0231593
0.0232047
0.0232594
0.0233182
0.022967
0.0231878
0.0228534
0.0216055
0.0194837
0.0151145
0.0110104
0.00392038
0.0110144
0.0160686
0.0179986
0.0231485
0.027093
0.0293413
0.0288016
0.0194442
0.0193239
0.0194004
0.0196695
0.0198459
0.0199188
0.0195614
0.0208341
0.0226167
0.0210734
0.0194791
0.0143713
0.00693776
0.0125862
0.0173637
0.022973
0.0327406
0.0369745
0.036542
0.0341113
0.0149238
0.0147884
0.0148093
0.0151365
0.0150335
0.0155091
0.0156235
0.0179715
0.0230198
0.0238286
0.0256818
0.0222738
0.0146548
0.0121928
0.0118172
0.0168731
0.0148904
0.0107758
0.00940394
0.00829436
0.0102686
0.0099845
0.00991166
0.0102187
0.00969398
0.00980555
0.0100234
0.0113341
0.0165094
0.0233702
0.0288274
0.0319821
0.0210468
0.0123222
-0.00171855
-0.014016
-0.0231345
-0.0280412
-0.0261134
-0.0241628
0.00306406
0.00297348
0.00208003
-0.000106176
-0.00203752
-0.00320349
-0.00405794
-0.00295251
0.000876992
0.013782
0.0377135
0.0346754
0.0194949
0.00987765
-0.00671969
-0.0215393
-0.0286997
-0.0306062
-0.0276398
-0.0256286
-1.06298
-0.210813
0.0596917
0.339684
0.525875
0.686394
0.818739
0.953232
1.09873
1.1779
-0.0719089
0.340231
0.360543
0.551411
0.679891
0.794756
0.894078
0.982096
1.01052
0.967608
0.312926
0.53021
0.568875
0.707011
0.795929
0.878234
0.945954
0.996681
0.999432
1.01285
0.54753
0.693787
0.729866
0.83479
0.891902
0.951991
0.997622
1.03047
1.03985
1.06331
0.729382
0.833243
0.86295
0.933094
0.977359
1.01992
1.05255
1.07709
1.08712
1.11852
0.875203
0.945297
0.975843
1.0199
1.0564
1.08712
1.11181
1.13266
1.14703
1.17518
0.995759
1.04717
1.07287
1.10132
1.12949
1.15358
1.17381
1.19316
1.20822
1.23461
1.10038
1.1377
1.15902
1.17999
1.20115
1.22078
1.23833
1.25653
1.27146
1.29511
1.19479
1.22398
1.24072
1.25621
1.27256
1.28879
1.30443
1.32142
1.33503
1.35734
1.28357
1.30409
1.31905
1.33242
1.34619
1.36008
1.3736
1.3882
1.39974
1.41938
1.36927
1.38524
1.3992
1.41111
1.4231
1.43474
1.44585
1.45751
1.46516
1.48198
1.45491
1.46771
1.48147
1.49312
1.50369
1.51344
1.52221
1.53044
1.53399
1.54526
1.54398
1.55503
1.56852
1.57775
1.58518
1.59238
1.59954
1.60604
1.60708
1.61448
1.6425
1.6472
1.65523
1.6597
1.66299
1.66745
1.67346
1.68119
1.68504
1.69493
1.75567
1.74202
1.73461
1.72902
1.72637
1.72777
1.73421
1.7466
1.76139
1.79105
1.87678
1.82101
1.79014
1.77304
1.76488
1.76484
1.77359
1.79315
1.82508
1.89429
)
;

boundaryField
{
    wall-4
    {
        type            zeroGradient;
    }
    pressure-outlet-7
    {
        type            fixedValue;
        value           uniform 0;
    }
    velocity-inlet-6
    {
        type            zeroGradient;
    }
    velocity-inlet-5
    {
        type            zeroGradient;
    }
    frontAndBackPlanes
    {
        type            empty;
    }
}


// ************************************************************************* //
