/*--------------------------------*- C++ -*----------------------------------*\
  =========                 |
  \\      /  F ield         | OpenFOAM: The Open Source CFD Toolbox
   \\    /   O peration     | Website:  https://openfoam.org
    \\  /    A nd           | Version:  9
     \\/     M anipulation  |
\*---------------------------------------------------------------------------*/
FoamFile
{
    format      ascii;
    class       surfaceScalarField;
    location    "38";
    object      phi;
}
// * * * * * * * * * * * * * * * * * * * * * * * * * * * * * * * * * * * * * //

dimensions      [0 3 -1 0 0 0 0];

internalField   nonuniform List<scalar> 
4262
(
0.107151
0.470837
0.0955974
0.705139
0.0694489
0.858452
0.0474883
1.02072
0.0311223
1.21488
0.01989
1.44945
0.0124832
1.73327
0.00730021
2.07622
0.00338638
2.48916
-0.000224518
2.9859
-0.00382677
2.98589
-0.00771545
2.48913
-0.0128421
2.07616
-0.0202038
1.73323
-0.0312649
1.44928
-0.0473838
1.21464
-0.0691587
1.02054
-0.095348
0.858492
-0.107111
0.705348
0.470878
0.112887
0.357951
0.135323
0.682703
0.120416
0.873358
0.0978483
1.04329
0.0746657
1.23806
0.0529693
1.47115
0.0344826
1.75176
0.0202047
2.0905
0.00891986
2.50044
-0.00113978
2.99596
-0.0111559
2.99591
-0.0221456
2.50012
-0.0361806
2.0902
-0.0544112
1.75146
-0.0760921
1.47096
-0.0996541
1.2382
-0.122672
1.04356
-0.136615
0.872436
-0.113426
0.68216
0.357452
0.0920617
0.265889
0.12501
0.649755
0.121144
0.877224
0.104889
1.05955
0.086248
1.25671
0.0672338
1.49016
0.0484444
1.77055
0.0305512
2.10839
0.0141218
2.51687
-0.00178432
3.01187
-0.0176311
3.01176
-0.0339687
2.51646
-0.051593
2.10782
-0.0698765
1.76974
-0.0882494
1.48933
-0.105775
1.25572
-0.120395
1.05818
-0.125345
0.877386
-0.092347
0.649161
0.265105
0.0641086
0.20178
0.105069
0.608795
0.10693
0.875363
0.0955411
1.07094
0.0814972
1.27075
0.0666985
1.50496
0.0506372
1.78661
0.0335122
2.12552
0.015833
2.53455
-0.00283517
3.03054
-0.0211993
3.03012
-0.0382484
2.53351
-0.0545405
2.12411
-0.0699356
1.78513
-0.0840617
1.50346
-0.0978372
1.2695
-0.109479
1.06982
-0.106622
0.874528
-0.0647297
0.607269
0.200375
0.0374904
0.16429
0.0807274
0.565558
0.0910537
0.865037
0.0839196
1.07807
0.0714033
1.28327
0.059583
1.51678
0.0467673
1.79942
0.0320448
2.14024
0.0153813
2.55121
-0.00346255
3.04938
-0.0220123
3.04867
-0.0380679
2.54956
-0.0521751
2.13822
-0.0643982
1.79736
-0.0758007
1.51486
-0.087851
1.28155
-0.0942867
1.07625
-0.0827604
0.863002
-0.03822
0.562729
0.162155
0.0194719
0.144818
0.0573214
0.527709
0.0728528
0.849505
0.0709157
1.08001
0.0623371
1.29184
0.0516119
1.52751
0.040325
1.81071
0.0277103
2.15285
0.0126608
2.56626
-0.0049931
3.06703
-0.0223079
3.06599
-0.036524
2.56378
-0.0481335
2.14983
-0.0582878
1.80751
-0.0680246
1.5246
-0.0756176
1.28914
-0.0765249
1.07716
-0.0596266
0.846104
-0.0202436
0.523346
0.141911
0.0107246
0.134093
0.0426443
0.495789
0.0589259
0.833224
0.0593502
1.07958
0.0534083
1.29779
0.0442961
1.53662
0.0341017
1.8209
0.0227893
2.16416
0.00976522
2.57929
-0.0058591
3.08266
-0.0211119
3.08124
-0.0332883
2.57596
-0.0433896
2.15993
-0.0525642
1.81669
-0.0606291
1.53267
-0.0653169
1.29383
-0.063508
1.07535
-0.0453864
0.827982
-0.0115648
0.489524
0.130347
0.0066381
0.127455
0.0331219
0.469305
0.0495433
0.816802
0.0511586
1.07797
0.0461746
1.30277
0.0379662
1.54483
0.028519
1.83035
0.0178012
2.17488
0.00584173
2.59125
-0.00783051
3.09633
-0.0209331
3.09434
-0.0316393
2.58666
-0.0408545
2.16915
-0.0484262
1.82426
-0.0549217
1.53916
-0.058287
1.2972
-0.0550241
1.07209
-0.0364339
0.809392
-0.00765659
0.460747
0.12269
0.00471076
0.122745
0.0266016
0.447414
0.0425209
0.800883
0.0447738
1.07571
0.040273
1.30727
0.0328371
1.55226
0.0241176
1.83907
0.0141697
2.18483
0.00303489
2.60238
-0.00941914
3.10879
-0.0212571
3.10618
-0.0309332
2.59634
-0.0390543
2.17727
-0.0460295
1.83123
-0.0518306
1.54496
-0.0545362
1.2999
-0.0499654
1.06752
-0.030925
0.790352
-0.00604323
0.435865
0.116647
0.0037756
0.118969
0.0217871
0.429403
0.0370372
0.785633
0.039999
1.07275
0.0358717
1.3114
0.0287369
1.5594
0.0203693
1.84744
0.0108258
2.19437
4.59727e-05
2.61316
-0.0119804
3.12081
-0.0231007
3.1173
-0.0318836
2.60512
-0.0392079
2.18459
-0.045278
1.8373
-0.0500636
1.54975
-0.0517365
1.30157
-0.0458469
1.06163
-0.0268797
0.771384
-0.00535912
0.414345
0.111288
0.003073
0.115896
0.017603
0.414873
0.0318118
0.771424
0.0351047
1.06946
0.0313282
1.31518
0.0246218
1.5661
0.0166627
1.8554
0.00742794
2.20361
-0.00304421
2.62363
-0.0147052
3.13247
-0.0254592
3.12805
-0.0336475
2.61331
-0.0399733
2.19092
-0.0450755
1.84241
-0.0490644
1.55374
-0.0497737
1.30228
-0.0426306
1.05449
-0.0237452
0.752499
-0.00499479
0.395594
0.106293
0.0023055
0.11359
0.0134294
0.403749
0.0258611
0.758993
0.0293944
1.06593
0.0261221
1.31845
0.0197847
1.57244
0.0119219
1.86326
0.00287064
2.21266
-0.00734562
2.63385
-0.0184013
3.14353
-0.0281408
3.13779
-0.0355176
2.62069
-0.0411339
2.19654
-0.0454858
1.84676
-0.0481391
1.55639
-0.0475449
1.30169
-0.0393377
1.04628
-0.0209979
0.734159
-0.00466497
0.379261
0.101628
0.00142666
0.112164
0.00955365
0.395622
0.0201747
0.748372
0.0230649
1.06304
0.0197668
1.32175
0.0139316
1.57828
0.00664222
1.87055
-0.00199721
2.2213
-0.0117955
2.64365
-0.0221932
3.15393
-0.0312257
3.14683
-0.0377432
2.6272
-0.0421637
2.20096
-0.0452945
1.84989
-0.0467949
1.55789
-0.0455471
1.30044
-0.0366279
1.03736
-0.0187947
0.716326
-0.00431573
0.364782
0.0973122
0.00071266
0.111451
0.00648357
0.389851
0.0151059
0.739749
0.0173598
1.06078
0.0135192
1.32559
0.00709477
1.5847
-0.000558666
1.8782
-0.00903486
2.22978
-0.0182667
2.65288
-0.0278683
3.16353
-0.0354952
3.15445
-0.040281
2.63199
-0.0434815
2.20416
-0.0456578
1.85206
-0.0466132
1.55885
-0.0445135
1.29834
-0.0347339
1.02758
-0.0173979
0.69899
-0.00420799
0.351592
0.0931042
-7.65729e-06
0.111459
0.00301379
0.38683
0.00913378
0.733629
0.0103822
1.05953
0.00618493
1.32978
-0.000549332
1.59144
-0.00844776
1.8861
-0.0170202
2.23835
-0.0257472
2.66161
-0.0340674
3.17185
-0.0401711
3.16056
-0.0436462
2.63547
-0.0457146
2.20622
-0.047381
1.85373
-0.0474063
1.55887
-0.0443259
1.29526
-0.0337727
1.01703
-0.0166127
0.68183
-0.00422815
0.339208
0.0888761
-0.000914533
0.112373
-0.000598698
0.386514
0.00341536
0.729615
0.00362504
1.05932
-0.00121607
1.33462
-0.00855425
1.59877
-0.0168604
1.89441
-0.0254935
2.24698
-0.034031
2.67015
-0.041806
3.17962
-0.0470055
3.16576
-0.0493193
2.63778
-0.0502733
2.20718
-0.0505021
1.85396
-0.0491389
1.55751
-0.0446445
1.29077
-0.0327861
1.00517
-0.015872
0.664916
-0.00422056
0.327556
0.0846555
-0.00212689
0.1145
-0.00415214
0.388539
-0.00396585
0.729429
-0.00510785
1.06047
-0.0100262
1.33954
-0.0173725
1.60612
-0.0258516
1.90289
-0.0348852
2.25601
-0.0441244
2.67938
-0.0520683
3.18757
-0.0562671
3.16995
-0.0571341
2.63865
-0.0562955
2.20634
-0.0545662
1.85223
-0.0515178
1.55446
-0.0453904
1.28464
-0.0324487
0.992226
-0.0155386
0.648006
-0.00422181
0.31624
0.0804337
-0.00341704
0.117917
-0.00806821
0.39319
-0.0108972
0.732258
-0.0140197
1.06359
-0.0199596
1.34548
-0.0280101
1.61417
-0.0370342
1.91191
-0.0466215
2.2656
-0.0558112
2.68857
-0.0631631
3.19492
-0.0665619
3.17335
-0.0661772
2.63826
-0.0636965
2.20386
-0.060524
1.84906
-0.055979
1.54991
-0.0475728
1.27623
-0.0329143
0.977567
-0.0157919
0.630883
-0.00443067
0.304878
0.076003
-0.00499827
0.122916
-0.0134153
0.401607
-0.0202062
0.739049
-0.0259727
1.06936
-0.0325842
1.35209
-0.0413778
1.62296
-0.0513766
1.92191
-0.0617402
2.27597
-0.0715645
2.6984
-0.0786053
3.20196
-0.0798741
3.17462
-0.0771107
2.6355
-0.0724092
2.19916
-0.0667447
1.84339
-0.0599221
1.54309
-0.0498469
1.26616
-0.0341378
0.961858
-0.0166792
0.613425
-0.00477382
0.292973
0.0712292
-0.00639071
0.129306
-0.0183694
0.413586
-0.0294633
0.750143
-0.0378938
1.07779
-0.0465481
1.36075
-0.0570889
1.63351
-0.0684535
1.93327
-0.0800995
2.28761
-0.0898826
2.70818
-0.0951695
3.20725
-0.0944613
3.17391
-0.0901755
2.63121
-0.0837272
2.19271
-0.0764113
1.83608
-0.0675185
1.5342
-0.0548892
1.25353
-0.0369807
0.94395
-0.0184039
0.594848
-0.00531599
0.279885
0.0659132
-0.00866586
0.137972
-0.0249707
0.429891
-0.0410379
0.76621
-0.0530903
1.08984
-0.0634822
1.37114
-0.0756023
1.64563
-0.0889193
1.94659
-0.101971
2.30066
-0.112875
2.71909
-0.118534
3.21291
-0.116256
3.17164
-0.108615
2.62357
-0.0986667
2.18276
-0.0878381
1.82525
-0.0761669
1.52253
-0.0613467
1.23871
-0.0416686
0.924272
-0.0212251
0.574404
-0.00609384
0.264754
0.0598194
-0.0109173
0.148889
-0.0313279
0.450301
-0.0522833
0.787165
-0.0686067
1.10616
-0.0830529
1.38559
-0.0989643
1.66154
-0.114777
1.9624
-0.129554
2.31544
-0.140351
2.72988
-0.143623
3.21618
-0.137502
3.16552
-0.127094
2.61316
-0.115408
2.17108
-0.103372
1.81321
-0.0897429
1.5089
-0.0718294
1.22079
-0.0486048
0.901047
-0.024845
0.550645
-0.00701751
0.246926
0.0528019
-0.0155944
0.164484
-0.0431097
0.477817
-0.0702443
0.8143
-0.0917967
1.12771
-0.110124
1.40391
-0.12901
1.68042
-0.147692
1.98109
-0.163756
2.3315
-0.174393
2.74052
-0.176452
3.21824
-0.168474
3.15754
-0.154672
2.59936
-0.138583
2.15499
-0.121972
1.7966
-0.104605
1.49153
-0.0835955
1.19979
-0.0569243
0.874376
-0.0291844
0.522905
-0.00809334
0.225835
0.0447086
-0.0195726
0.184056
-0.0553957
0.51364
-0.0914673
0.850371
-0.119493
1.15574
-0.143787
1.42821
-0.168102
1.70474
-0.189439
2.00242
-0.206244
2.34831
-0.215423
2.7497
-0.21315
3.21596
-0.198656
3.14304
-0.17969
2.58039
-0.161044
2.13634
-0.143268
1.77883
-0.123819
1.47208
-0.0985313
1.1745
-0.0663168
0.842161
-0.0332501
0.489838
-0.0088332
0.201418
0.0358754
-0.0327609
0.216817
-0.0808937
0.561773
-0.125803
0.895281
-0.161172
1.19111
-0.191945
1.45898
-0.219272
1.73206
-0.241741
2.02489
-0.25786
2.36443
-0.264679
2.75652
-0.258793
3.21008
-0.241026
3.12528
-0.219196
2.55856
-0.196171
2.11332
-0.172298
1.75495
-0.146742
1.44653
-0.115502
1.14326
-0.0769609
0.803621
-0.0381146
0.450992
-0.00971742
0.173021
0.0261579
-0.0471384
0.263956
-0.118948
0.633582
-0.178963
0.955296
-0.221077
1.23322
-0.256493
1.4944
-0.285771
1.76134
-0.307188
2.04631
-0.320127
2.37737
-0.321729
2.75812
-0.308878
3.19723
-0.283763
3.10016
-0.255145
2.52994
-0.227287
2.08546
-0.201596
1.72926
-0.173154
1.41808
-0.135121
1.10522
-0.0880882
0.756588
-0.0411999
0.404103
-0.00961529
0.141437
0.0165427
-0.0331302
0.297086
-0.09395
0.694402
-0.149326
1.01067
-0.195212
1.27911
-0.237644
1.53683
-0.273634
1.79733
-0.307363
2.08004
-0.336837
2.40684
-0.357668
2.77895
-0.364091
3.20365
-0.352003
3.08807
-0.32947
2.50741
-0.300517
2.05651
-0.262243
1.69099
-0.214481
1.37032
-0.156678
1.04742
-0.0924632
0.692373
-0.0375618
0.349202
-0.0082493
0.112124
0.00829335
-0.0117446
0.308831
-0.0442321
0.726889
-0.0835293
1.04997
-0.121348
1.31693
-0.158444
1.57393
-0.192287
1.83118
-0.223335
2.11109
-0.249083
2.43259
-0.265752
2.79562
-0.267382
3.20528
-0.250998
3.07169
-0.223048
2.47946
-0.185877
2.01934
-0.145884
1.651
-0.104926
1.32936
-0.0631095
1.0056
-0.0274146
0.656679
-0.00646085
0.328248
-0.00057634
0.10624
0.00771701
0.00152414
0.307306
-0.0211585
0.749572
-0.0493196
1.07813
-0.0784308
1.34604
-0.10824
1.60373
-0.137808
1.86074
-0.165562
2.13884
-0.188731
2.45576
-0.2037
2.81059
-0.204516
3.2061
-0.187888
3.05506
-0.158314
2.44989
-0.123879
1.9849
-0.0863
1.61342
-0.0461728
1.28924
-0.0105716
0.970003
0.0102507
0.635856
0.0116996
0.326799
0.00428625
0.113653
0.0120033
0.00205981
0.305247
-0.00952642
0.761158
-0.0300852
1.09869
-0.0540536
1.37001
-0.0786778
1.62836
-0.103397
1.88546
-0.127175
2.16262
-0.147082
2.47567
-0.158833
2.82234
-0.15722
3.20448
-0.13996
3.0378
-0.113104
2.42303
-0.0799136
1.95171
-0.0435628
1.57707
-0.0119327
1.25761
0.0110415
0.947029
0.020547
0.626351
0.0161965
0.33115
0.00556965
0.12428
0.0175729
0.00462747
0.300619
-0.00326042
0.769046
-0.0203415
1.11577
-0.0399968
1.38966
-0.0606773
1.64904
-0.0820367
1.90682
-0.102968
2.18355
-0.120815
2.49351
-0.132356
2.83388
-0.131726
3.20385
-0.114554
3.02063
-0.0880914
2.39657
-0.0589929
1.92261
-0.0292853
1.54736
-0.000289574
1.22861
0.0193025
0.927437
0.024412
0.621241
0.017072
0.33849
0.00561184
0.13574
0.0231848
0.00562848
0.294991
0.000321283
0.774353
-0.0148073
1.1309
-0.0324659
1.40732
-0.0506894
1.66726
-0.0694465
1.92558
-0.087978
2.20208
-0.103879
2.50941
-0.113218
2.84322
-0.110489
3.20112
-0.0954096
3.00555
-0.0739665
2.37512
-0.0474262
1.89607
-0.0193223
1.51925
0.00300192
1.20629
0.0177678
0.912671
0.0216234
0.617386
0.0140878
0.346025
0.00445776
0.14537
0.0276425
0.00400826
0.290982
0.000285594
0.778076
-0.0123897
1.14357
-0.0283148
1.42325
-0.044993
1.68394
-0.0622798
1.94287
-0.0795892
2.21939
-0.0949868
2.52481
-0.105487
2.85372
-0.107113
3.20275
-0.093555
2.99199
-0.0709288
2.3525
-0.0461116
1.87125
-0.0230719
1.49622
-0.00159326
1.18481
0.0123242
0.898753
0.0152414
0.614468
0.0100612
0.351206
0.00305634
0.152375
0.0306989
0.00254689
0.288436
-0.000752168
0.781375
-0.0123011
1.15512
-0.0269995
1.43794
-0.0425897
1.69953
-0.0587581
1.95903
-0.0751567
2.23579
-0.0897924
2.53945
-0.0990057
2.86293
-0.0969446
3.20069
-0.0833088
2.97836
-0.0651549
2.33434
-0.0455435
1.85164
-0.0242685
1.47494
-0.0070083
1.16755
0.00444875
0.887296
0.00833748
0.61058
0.00512876
0.354414
0.00178464
0.155719
0.0324835
9.04309e-06
0.288427
-0.00326873
0.784653
-0.0135144
1.16537
-0.0265731
1.451
-0.04142
1.71438
-0.0570849
1.9747
-0.0730879
2.25179
-0.0878268
2.55419
-0.0988318
2.87394
-0.101485
3.20334
-0.0914916
2.96836
-0.0721363
2.31499
-0.0501396
1.82965
-0.032789
1.45759
-0.0165946
1.15135
-0.0059604
0.876662
-0.00166298
0.606282
-0.000787417
0.353539
-0.00012167
0.155053
0.0323618
-0.000626944
0.289054
-0.00568297
0.789709
-0.0153435
1.17503
-0.0275901
1.46325
-0.0416731
1.72846
-0.0567881
1.98981
-0.0726909
2.2677
-0.0878374
2.56933
-0.0987515
2.88485
-0.100006
3.2046
-0.0898469
2.9582
-0.0755337
2.30068
-0.0591692
1.81328
-0.0396564
1.43808
-0.0257471
1.13744
-0.0147222
0.865637
-0.0075067
0.599067
-0.00462533
0.350657
-0.00131574
0.151744
0.0310461
-0.00256773
0.291621
-0.00770604
0.794847
-0.0167864
1.18411
-0.0283933
1.47486
-0.0420141
1.74208
-0.0569682
2.00477
-0.0728823
2.28361
-0.088224
2.58467
-0.100498
2.89713
-0.106854
3.21095
-0.0999015
2.95125
-0.082382
2.28316
-0.063063
1.79396
-0.0484975
1.42351
-0.0333027
1.12225
-0.0218328
0.854167
-0.0139731
0.591207
-0.00673465
0.343419
-0.00195637
0.146965
0.0290897
-0.00389368
0.295515
-0.00948548
0.800439
-0.0184881
1.19311
-0.0297781
1.48615
-0.0428579
1.75516
-0.0573606
2.01927
-0.0732356
2.29948
-0.0892714
2.60071
-0.103022
2.91088
-0.108909
3.21684
-0.101706
2.94405
-0.0893519
2.2708
-0.0737922
1.7784
-0.0554365
1.40516
-0.0409292
1.10774
-0.0281245
0.841362
-0.0174082
0.580491
-0.00921983
0.335231
-0.00263885
0.140384
0.0264509
-0.00437559
0.299891
-0.0106036
0.806667
-0.0195231
1.20203
-0.03043
1.49705
-0.0431847
1.76792
-0.0575943
2.03368
-0.0736686
2.31556
-0.0903159
2.61736
-0.105152
2.92571
-0.114439
3.22613
-0.113604
2.94321
-0.100012
2.25721
-0.0802303
1.75862
-0.0634723
1.3884
-0.0466813
1.09095
-0.033218
0.827899
-0.0217692
0.569042
-0.0100039
0.323465
-0.00274077
0.133121
0.0237101
-0.00448649
0.304377
-0.0114048
0.813585
-0.0204914
1.21112
-0.031254
1.50782
-0.0436778
1.78034
-0.0577839
2.04779
-0.0738613
2.33164
-0.0909422
2.63444
-0.107187
2.94196
-0.119216
3.23816
-0.118341
2.94234
-0.107263
2.24613
-0.0912964
1.74266
-0.0696826
1.36678
-0.0523706
1.07364
-0.0365252
0.812054
-0.0222953
0.554812
-0.0107444
0.311914
-0.00266327
0.12504
0.0210468
-0.00454398
0.308921
-0.0118144
0.820856
-0.0207861
1.22009
-0.0312883
1.51832
-0.0435305
1.79258
-0.0575594
2.06182
-0.0736965
2.34777
-0.09129
2.65203
-0.108839
2.95951
-0.122589
3.25191
-0.126265
2.94601
-0.11704
2.23691
-0.0970574
1.72267
-0.076949
1.34668
-0.055427
1.05212
-0.0382807
0.794908
-0.024019
0.54055
-0.0100596
0.297955
-0.00221812
0.117199
0.0188287
-0.00461624
0.313537
-0.0120781
0.828318
-0.0210097
1.22902
-0.0313933
1.5287
-0.0433846
1.80457
-0.0571229
2.07555
-0.0731681
2.36382
-0.0911142
2.66998
-0.109795
2.97819
-0.126596
3.26871
-0.13321
2.95263
-0.124891
2.22859
-0.108967
1.70675
-0.0840435
1.32175
-0.0597667
1.02784
-0.0367909
0.771932
-0.0186928
0.522452
-0.00774731
0.287009
-0.0013076
0.110759
0.0175211
-0.0046649
0.318202
-0.0121199
0.835773
-0.0207743
1.23768
-0.0308409
1.53877
-0.0425991
1.81633
-0.0562131
2.08917
-0.0722816
2.37989
-0.0906451
2.68834
-0.110401
2.99794
-0.128531
3.28684
-0.137636
2.96173
-0.133709
2.22466
-0.116023
1.68906
-0.0920049
1.29773
-0.0614229
0.997258
-0.0344221
0.744931
-0.0136458
0.501676
-0.00253496
0.275899
-0.00204695
0.110271
0.0154741
-0.00463045
0.322833
-0.0119973
0.843139
-0.0204834
1.24616
-0.0303468
1.54863
-0.0418104
1.8278
-0.0551308
2.10249
-0.0710372
2.39579
-0.0894787
2.70678
-0.109755
3.01822
-0.130249
3.30733
-0.143412
2.9749
-0.142407
2.22366
-0.129375
1.67603
-0.101519
1.26988
-0.0663105
0.96205
-0.0255408
0.704161
0.0115254
0.46461
0.0289748
0.258449
0.0231962
0.116049
0.0386703
-0.00451811
0.327351
-0.011742
0.850363
-0.0199008
1.25432
-0.0293715
1.5581
-0.0405094
1.83893
-0.0536186
2.1156
-0.069396
2.41157
-0.0879505
2.72534
-0.109157
3.03943
-0.131341
3.32951
-0.145711
2.98927
-0.150147
2.22809
-0.137276
1.66316
-0.112195
1.2448
-0.0699712
0.919826
-0.0230919
0.657282
0.0266673
0.41485
0.0407631
0.244354
0.0177688
0.139044
0.0564391
-0.0043142
0.331665
-0.0113299
0.857379
-0.0192579
1.26225
-0.0284512
1.5673
-0.0392733
1.84976
-0.0520226
2.12835
-0.0675215
2.42707
-0.0860215
2.74384
-0.107436
3.06084
-0.130676
3.35275
-0.149565
3.00816
-0.156647
2.23517
-0.152216
1.65873
-0.127294
1.21987
-0.0849475
0.877479
-0.013721
0.586056
0.0890999
0.31203
0.178534
0.154919
0.177823
0.139755
0.234262
-0.0041693
0.335834
-0.011096
0.864306
-0.0189028
1.27006
-0.0280197
1.57641
-0.0390078
1.86074
-0.0522463
2.14159
-0.0686567
2.44348
-0.0886954
2.76388
-0.112964
3.08511
-0.141222
3.38101
-0.164605
3.03154
-0.178586
2.24916
-0.176245
1.65639
-0.157385
1.20101
-0.1122
0.832295
-0.0619093
0.535765
-0.0946305
0.344751
-0.361266
0.421554
-0.934514
0.713003
0.897101
-1.59735
-0.00396226
0.339796
-0.0106584
0.871002
-0.0183105
1.27771
-0.0273391
1.58544
-0.0382385
1.87164
-0.0515282
2.15488
-0.0682752
2.46023
-0.089193
2.78479
-0.115034
3.11095
-0.146
3.41198
-0.175871
3.06141
-0.195399
2.26868
-0.210519
1.67151
-0.206069
1.19656
-0.191455
0.817681
-0.273913
0.618223
-0.691301
0.762139
-1.42594
1.15619
-2.03722
1.32428
1.21851
-2.35862
-0.00375798
0.343554
-0.0102136
0.877457
-0.0175833
1.28508
-0.0263458
1.5942
-0.0370959
1.88239
-0.0504852
2.16826
-0.0676041
2.47735
-0.0893299
2.80652
-0.117148
3.13877
-0.152731
3.44756
-0.187663
3.09634
-0.217676
2.2987
-0.235585
1.68942
-0.237577
1.19856
-0.324985
0.905089
-0.750965
1.0442
-1.5255
1.53667
-2.10034
1.73103
-2.34216
1.56611
1.33382
-2.45748
-0.00353477
0.347089
-0.00961797
0.883541
-0.0167436
1.2922
-0.0253521
1.60281
-0.0359504
1.89299
-0.0493164
2.18163
-0.0666594
2.49469
-0.0891645
2.82902
-0.118513
3.16812
-0.156597
3.48565
-0.198331
3.13807
-0.233095
2.33346
-0.27023
1.72655
-0.358795
1.28712
-0.69493
1.24122
-1.42456
1.77383
-2.01921
2.13133
-2.26095
1.97277
-2.37539
1.68054
1.39934
-2.44091
-0.00327787
0.350367
-0.00901216
0.889275
-0.0157766
1.29897
-0.024048
1.61108
-0.0344869
1.90343
-0.0478589
2.195
-0.0654329
2.51226
-0.0885709
2.85216
-0.119672
3.19922
-0.162542
3.52852
-0.211132
3.18666
-0.260453
2.38278
-0.310065
1.77616
-0.488432
1.46549
-1.08484
1.83764
-1.776
2.46498
-2.10308
2.45841
-2.25355
2.12324
-2.33651
1.76351
1.46517
-2.40235
-0.00318021
0.353547
-0.00876345
0.894858
-0.0155338
1.30574
-0.0239215
1.61947
-0.0346243
1.91413
-0.0482336
2.20861
-0.066265
2.53029
-0.0903472
2.87624
-0.122996
3.23186
-0.168072
3.57359
-0.223045
3.24164
-0.274308
2.43405
-0.368749
1.87061
-0.751664
1.8484
-1.48005
2.56602
-1.95981
2.94474
-2.16117
2.65977
-2.26823
2.23031
-2.34542
1.8407
1.52937
-2.40962
-0.0032679
0.356815
-0.00915147
0.900742
-0.0162449
1.31283
-0.0249831
1.62821
-0.0361656
1.92532
-0.050453
2.2229
-0.06936
2.5492
-0.0945806
2.90147
-0.129235
3.26652
-0.179559
3.62392
-0.239283
3.30136
-0.307966
2.50273
-0.497632
2.06027
-1.04055
2.39132
-1.66905
3.19452
-1.95054
3.22623
-2.0989
2.80813
-2.21369
2.3451
-2.3076
1.93461
1.59177
-2.37
-0.00327659
0.360092
-0.00937864
0.906844
-0.0169306
1.32038
-0.0262569
1.63754
-0.0379964
1.93706
-0.0529004
2.2378
-0.0726374
2.56894
-0.0991623
2.92799
-0.135602
3.30296
-0.187383
3.6757
-0.251993
3.36597
-0.34287
2.5936
-0.620837
2.33824
-1.25368
3.02416
-1.74851
3.68935
-1.95751
3.43523
-2.0995
2.95012
-2.22455
2.47014
-2.33672
2.04678
1.65099
-2.39594
-0.00325674
0.363348
-0.00971869
0.913306
-0.0176807
1.32835
-0.0274146
1.64727
-0.0396694
1.94931
-0.0553187
2.25345
-0.0759816
2.5896
-0.103625
2.95563
-0.141887
3.34122
-0.198356
3.73217
-0.269064
3.43668
-0.394223
2.71876
-0.77237
2.71639
-1.4008
3.65259
-1.76018
4.04873
-1.93515
3.61021
-2.03919
3.05415
-2.12989
2.56085
-2.19915
2.11603
1.64451
-2.19267
-0.00313719
0.366486
-0.009727
0.919896
-0.0182113
1.33683
-0.0286452
1.6577
-0.0415638
1.96223
-0.0578615
2.26975
-0.0793677
2.61111
-0.108345
2.98461
-0.148455
3.38133
-0.205031
3.78874
-0.2844
3.51605
-0.454297
2.88866
-0.899296
3.16138
-1.45437
4.20767
-1.72045
4.31481
-1.87618
3.76593
-1.97151
3.14949
-1.97536
2.5647
-1.91004
2.05071
1.61526
-1.88079
-0.00286314
0.369349
-0.00988584
0.926918
-0.0187437
1.34569
-0.0294796
1.66844
-0.0427812
1.97553
-0.059574
2.28654
-0.0815147
2.63305
-0.110679
3.01378
-0.150919
3.42157
-0.208426
3.84625
-0.296222
3.60384
-0.497659
3.0901
-0.976304
3.64003
-1.42195
4.65332
-1.59285
4.48571
-1.66201
3.83509
-1.66856
3.15604
-1.52312
2.41926
-1.02477
1.55235
0.590492
-0.0024635
0.371812
-0.00943456
0.933889
-0.0188452
1.3551
-0.0305036
1.6801
-0.0448849
1.98991
-0.0628816
2.30454
-0.0865549
2.65672
-0.118448
3.04567
-0.162753
3.46587
-0.225008
3.90851
-0.327252
3.70609
-0.578935
3.34178
-1.11044
4.17154
-1.47535
5.01823
-1.57669
4.58705
-1.57674
3.83514
-1.47632
3.05562
-1.23853
2.18146
-0.64044
0.954265
-0.0499478
-0.00198524
0.373798
-0.00911519
0.941019
-0.0188759
1.36486
-0.0310064
1.69223
-0.0461957
2.0051
-0.0655577
2.3239
-0.0910997
2.68226
-0.125385
3.07995
-0.173535
3.51402
-0.243693
3.97866
-0.367195
3.82959
-0.673617
3.6482
-1.225
4.72292
-1.49397
5.28719
-1.55599
4.64907
-1.53697
3.81612
-1.3367
2.85535
-0.79317
1.63794
-0.113639
0.274734
-0.163587
-0.00125929
0.375057
-0.0078327
0.947593
-0.0179638
1.37499
-0.0310503
1.70531
-0.0472713
2.02132
-0.0677504
2.34438
-0.0949537
2.70947
-0.132028
3.11703
-0.183822
3.56582
-0.260332
4.05517
-0.404904
3.97416
-0.768238
4.01154
-1.3041
5.25879
-1.48723
5.47032
-1.51844
4.68028
-1.43457
3.73225
-1.11158
2.53236
-0.323009
0.849367
0.0282577
-0.0765327
-0.135329
-0.000472934
0.37553
-0.0064556
0.953575
-0.0167303
1.38526
-0.0301304
1.71871
-0.0469281
2.03812
-0.0686772
2.36613
-0.0976584
2.73845
-0.136792
3.15616
-0.191353
3.62038
-0.277016
4.14084
-0.449837
4.14698
-0.872532
4.43423
-1.34587
5.73213
-1.46682
5.59128
-1.47338
4.68684
-1.26128
3.52014
-0.704695
1.97577
-0.0661509
0.210823
0.0325049
-0.175188
-0.102824
0.00127558
0.374254
-0.00328449
0.958135
-0.0137773
1.39576
-0.0282036
1.73314
-0.0457808
2.0557
-0.068416
2.38877
-0.0986621
2.76869
-0.139981
3.19748
-0.196966
3.67736
-0.290259
4.23413
-0.48589
4.34261
-0.956499
4.90484
-1.34137
6.11699
-1.41131
5.66122
-1.37295
4.64848
-1.08557
3.23277
-0.341854
1.23205
-0.00403203
-0.126999
0.0114985
-0.190719
-0.0913258
0.00320525
0.371049
0.000468051
0.960873
-0.0102554
1.40648
-0.0245247
1.74741
-0.0421308
2.0733
-0.0657763
2.41241
-0.0973192
2.80024
-0.139898
3.24006
-0.199476
3.73694
-0.300776
4.33543
-0.521124
4.56296
-1.01792
5.40164
-1.30175
6.40083
-1.34249
5.70195
-1.21856
4.52456
-0.800394
2.8146
-0.0891037
0.520762
0.0448037
-0.260907
0.0257876
-0.171703
-0.0655382
0.00555019
0.365499
0.00443565
0.961987
-0.0047218
1.41564
-0.0188623
1.76155
-0.0368738
2.09131
-0.0608649
2.4364
-0.0928117
2.83218
-0.136518
3.28377
-0.197522
3.79795
-0.304668
4.44258
-0.547582
4.80588
-1.03015
5.88421
-1.22939
6.60006
-1.24759
5.72015
-1.04358
4.32054
-0.478787
2.24981
0.000494491
0.0414809
0.0131441
-0.273556
0.0156872
-0.174246
-0.0498509
0.00838586
0.357113
0.00991727
0.960456
0.00282859
1.42273
-0.00995097
1.77433
-0.0276815
2.10905
-0.0518364
2.46056
-0.0839573
2.8643
-0.127275
3.32708
-0.189381
3.86005
-0.302387
4.55558
-0.562969
5.06646
-1.00799
6.32923
-1.13851
6.73057
-1.12484
5.70649
-0.881671
4.07737
-0.290907
1.65905
-0.0642168
-0.18521
-0.0374892
-0.300284
-0.0104207
-0.201315
-0.0602717
0.0124734
0.34464
0.0183339
0.954595
0.0137821
1.42728
0.00253529
1.78558
-0.015849
2.12743
-0.0389483
2.48366
-0.069684
2.89504
-0.11226
3.36966
-0.173134
3.92093
-0.287187
4.66964
-0.549075
5.32835
-0.93035
6.71051
-1.00613
6.80636
-0.956276
5.65664
-0.702229
3.82332
-0.139179
1.096
-0.0693269
-0.255062
-0.0433763
-0.326235
-0.0156606
-0.22903
-0.0759323
0.0178415
0.326798
0.0291754
0.943261
0.0277746
1.42868
0.0180342
1.79532
0.00206832
2.1434
-0.0188158
2.50454
-0.0478787
2.9241
-0.0877657
3.40955
-0.145975
3.97913
-0.258192
4.78185
-0.502546
5.5727
-0.810787
7.01875
-0.863235
6.8588
-0.776978
5.57038
-0.468973
3.51532
-0.0128837
0.639906
0.0103057
-0.278251
0.00398623
-0.319915
0.00252373
-0.227568
-0.0734085
0.0246183
0.30218
0.0435995
0.92428
0.0472029
1.42508
0.0399051
1.80262
0.0271184
2.15618
0.00832969
2.52333
-0.0176774
2.95011
-0.0533533
3.44522
-0.105714
4.0315
-0.207192
4.88333
-0.412463
5.77797
-0.630434
7.23672
-0.683624
6.91199
-0.584632
5.47139
-0.238668
3.16935
0.0808192
0.320419
0.0611028
-0.258535
0.0554338
-0.314246
0.0442455
-0.216379
-0.029163
0.0330873
0.269092
0.0618491
0.895518
0.0720987
1.41483
0.0699676
1.80475
0.0613819
2.16477
0.0457551
2.53896
0.0240713
2.97179
-0.00609583
3.47539
-0.0509505
4.07635
-0.130027
4.96241
-0.289625
5.93757
-0.425156
7.37225
-0.473167
6.96001
-0.455818
5.45404
-0.231085
2.94462
-0.135934
0.225268
-0.105882
-0.288586
-0.0313204
-0.388808
0.0305341
-0.278234
0.00137108
0.0425961
0.226496
0.0844641
0.85365
0.104421
1.39487
0.108102
1.80107
0.103871
2.169
0.0931018
2.54972
0.0785883
2.98631
0.0571981
3.49678
0.0240163
4.10953
-0.0177499
5.00417
-0.100766
6.02059
-0.179267
7.45075
-0.251755
7.03249
-0.364834
5.56712
-0.398204
2.97799
-0.618869
0.445933
-0.603274
-0.304182
-0.41981
-0.572272
-0.199841
-0.498203
-0.19847
0.0527425
0.173754
0.111563
0.79483
0.144912
1.36152
0.157108
1.78887
0.159834
2.16627
0.154759
2.5548
0.147807
2.99326
0.13802
3.50657
0.12635
4.1212
0.112364
5.01816
0.139301
5.99365
0.166847
7.4232
0.111349
7.08799
-0.0401784
5.71865
-0.371399
3.30921
-0.773586
0.848119
-0.824712
-0.253055
-0.638437
-0.758547
-0.335691
-0.80095
-0.534161
0.0567727
0.116981
0.140062
0.71154
0.192624
1.30896
0.217045
1.76445
0.228152
2.15517
0.23073
2.55222
0.233656
2.99033
0.237841
3.50238
0.250326
4.10872
0.277909
4.99058
0.425732
5.84583
0.617314
7.23162
0.738518
6.96679
0.820138
5.63703
0.493665
3.63569
-0.0746403
1.41642
-0.455837
0.128142
-0.555711
-0.658673
-0.300445
-1.05622
-0.834605
0.0506336
0.0663476
0.16752
0.594654
0.249785
1.22669
0.290143
1.72409
0.311778
2.13353
0.324134
2.53987
0.336662
2.97781
0.356154
3.48289
0.396862
4.06801
0.483712
4.90373
0.773153
5.55639
1.30156
6.70322
1.71727
6.55108
2.05585
5.29844
1.91156
3.77997
1.2849
2.04308
0.728782
0.684262
0.256994
-0.186885
0.03716
-0.836383
-0.797445
0.0372313
0.0291162
0.195516
0.436369
0.309577
1.11263
0.375996
1.65767
0.411267
2.09826
0.435683
2.51545
0.456364
2.95713
0.490167
3.44909
0.558141
4.00004
0.702047
4.75982
1.0999
5.15853
1.82773
5.97539
2.24476
6.13405
2.4772
5.066
2.42096
3.83621
1.97393
2.49011
1.46646
1.19174
0.98116
0.298411
0.384238
-0.23946
-0.413208
0.0305185
-0.00140232
0.215836
0.251052
0.38375
0.94472
0.476711
1.56471
0.525283
2.04969
0.562504
2.47823
0.592003
2.92763
0.637879
3.40321
0.716323
3.92159
0.876851
4.59929
1.24239
4.79299
1.9785
5.23928
2.36897
5.74358
2.58134
4.85363
2.55866
3.85889
2.19513
2.85364
1.59224
1.79463
0.9741
0.916551
0.410311
0.324329
-0.0028968
0.027986
-0.0293883
0.187989
0.0910487
0.439062
0.693647
0.588815
1.41495
0.659383
1.97912
0.704596
2.43302
0.740453
2.89177
0.780235
3.36343
0.842271
3.85956
0.969303
4.47226
1.18828
4.57401
1.77865
4.64891
2.15334
5.36889
2.23159
4.77539
2.16036
3.93011
1.899
3.115
1.42283
2.27079
0.897994
1.44139
0.389935
0.832388
0.387038
0.0203113
-0.0496996
0.115176
-0.00381597
0.394828
0.413995
0.581348
1.22844
0.666277
1.89419
0.69523
2.40406
0.706184
2.88081
0.698539
3.37107
0.690972
3.86712
0.698819
4.46441
0.750294
4.52254
0.979038
4.42017
1.21222
5.13571
1.20742
4.78019
1.12862
4.00891
0.983586
3.26004
0.746867
2.50751
0.460112
1.72815
0.185325
1.10717
0.572364
0.0110633
-0.0607629
0.0618437
-0.0545963
0.247773
0.228066
0.41671
1.0595
0.503939
1.80696
0.535449
2.37255
0.55298
2.86328
0.550557
3.3735
0.544275
3.8734
0.537618
4.47107
0.550061
4.51009
0.690779
4.27945
0.872575
4.95391
0.874232
4.77853
0.799435
4.08371
0.686672
3.3728
0.521116
2.67307
0.312328
1.93693
0.116295
1.30321
0.688658
0.0255091
-0.0862721
0.0633351
-0.0924222
0.134676
0.156725
0.25342
0.940754
0.331072
1.72931
0.371665
2.33196
0.396699
2.83825
0.408492
3.36171
0.413211
3.86869
0.411698
4.47258
0.403498
4.51829
0.476618
4.20633
0.605424
4.82511
0.608799
4.77516
0.541159
4.15135
0.450227
3.46373
0.333192
2.79011
0.191275
2.07885
0.0594811
1.435
0.748139
0.0260891
-0.112361
0.045252
-0.111585
0.0356128
0.166364
0.0925114
0.883855
0.157125
1.6647
0.211112
2.27797
0.249292
2.80007
0.277775
3.33322
0.297144
3.84932
0.301842
4.46788
0.288399
4.53174
0.320341
4.17439
0.401839
4.74361
0.400028
4.77697
0.346957
4.20442
0.274029
3.53666
0.186569
2.87757
0.0862057
2.17921
0.00500358
1.5162
0.753143
0.00972093
-0.122082
-0.0053694
-0.0964949
-0.0514592
0.212454
-0.0508396
0.883236
-0.00102693
1.61488
0.0556234
2.22132
0.109448
2.74624
0.155493
3.28718
0.189436
3.81537
0.203948
4.45337
0.196931
4.53875
0.210026
4.1613
0.257659
4.69597
0.248875
4.78575
0.206011
4.24729
0.151993
3.59068
0.092763
2.9368
0.0306389
2.24134
-0.018627
1.56547
0.734516