/*--------------------------------*- C++ -*----------------------------------*\
  =========                 |
  \\      /  F ield         | OpenFOAM: The Open Source CFD Toolbox
   \\    /   O peration     | Website:  https://openfoam.org
    \\  /    A nd           | Version:  9
     \\/     M anipulation  |
\*---------------------------------------------------------------------------*/
FoamFile
{
    format      ascii;
    class       volVectorField;
    location    "38";
    object      U;
}
// * * * * * * * * * * * * * * * * * * * * * * * * * * * * * * * * * * * * * //

dimensions      [0 1 -1 0 0 0 0];

internalField   nonuniform List<vector> 
2200
(
(0.878833 -0.0304163 0)
(1.00578 -0.051289 0)
(1.00328 -0.0354131 0)
(1.00027 -0.0244829 0)
(0.999873 -0.0167239 0)
(1.00001 -0.0107786 0)
(0.999994 -0.00689034 0)
(1.00001 -0.00423842 0)
(1.00002 -0.00228088 0)
(1.00017 -0.000720033 0)
(1.00005 0.000913951 0)
(1.00001 0.00247018 0)
(0.999985 0.0044155 0)
(0.999998 0.00703491 0)
(1.00004 0.0109133 0)
(0.999837 0.0167242 0)
(1.00019 0.0244682 0)
(1.00345 0.0350611 0)
(1.00591 0.0513608 0)
(0.878965 0.0303414 0)
(0.71197 -0.0327641 0)
(0.99661 -0.0630249 0)
(1.03324 -0.0561805 0)
(1.02481 -0.0464098 0)
(1.01586 -0.0361233 0)
(1.00969 -0.0264472 0)
(1.00593 -0.0181619 0)
(1.00374 -0.0114343 0)
(1.00252 -0.00603481 0)
(1.00197 -0.0015846 0)
(1.00196 0.00259484 0)
(1.00244 0.00697411 0)
(1.00366 0.0122136 0)
(1.00591 0.018849 0)
(1.00953 0.0270238 0)
(1.01569 0.0367537 0)
(1.02474 0.0471524 0)
(1.03305 0.0574951 0)
(0.996632 0.0631416 0)
(0.711787 0.032971 0)
(0.535526 -0.023896 0)
(0.96986 -0.0569504 0)
(1.05644 -0.0547174 0)
(1.05226 -0.0487951 0)
(1.03616 -0.0404412 0)
(1.02441 -0.0322785 0)
(1.01599 -0.0240969 0)
(1.01045 -0.0162859 0)
(1.00725 -0.00904769 0)
(1.00578 -0.00244555 0)
(1.00574 0.0039553 0)
(1.00713 0.0105467 0)
(1.01028 0.0177206 0)
(1.01561 0.0253472 0)
(1.02408 0.0332671 0)
(1.03597 0.0412747 0)
(1.05202 0.049336 0)
(1.05636 0.05373 0)
(0.969234 0.0575529 0)
(0.534477 0.0239251 0)
(0.392117 -0.0136743 0)
(0.911589 -0.0464518 0)
(1.0574 -0.0470698 0)
(1.06943 -0.0444197 0)
(1.05481 -0.0382798 0)
(1.03921 -0.0315474 0)
(1.02743 -0.0247682 0)
(1.01895 -0.0175698 0)
(1.01356 -0.0101076 0)
(1.01086 -0.00255138 0)
(1.01075 0.00495127 0)
(1.01327 0.0123181 0)
(1.01847 0.0194365 0)
(1.02676 0.0262918 0)
(1.03846 0.0328218 0)
(1.05409 0.0393128 0)
(1.06856 0.0454387 0)
(1.05582 0.0480545 0)
(0.91016 0.0468872 0)
(0.390248 0.0137474 0)
(0.307473 -0.00451082 0)
(0.846597 -0.0323877 0)
(1.0494 -0.0399331 0)
(1.07952 -0.0381961 0)
(1.06828 -0.0335955 0)
(1.0517 -0.0279985 0)
(1.03821 -0.0226602 0)
(1.02804 -0.0167026 0)
(1.02106 -0.00988299 0)
(1.01733 -0.00238669 0)
(1.01711 0.00533144 0)
(1.02051 0.0126233 0)
(1.02719 0.0191504 0)
(1.03728 0.0248956 0)
(1.05059 0.029914 0)
(1.06693 0.0353008 0)
(1.07785 0.0397154 0)
(1.04738 0.0413813 0)
(0.843454 0.0328501 0)
(0.304359 0.00468874 0)
(0.263991 0.00010411 0)
(0.788639 -0.0200923 0)
(1.03305 -0.0315332 0)
(1.0833 -0.0321942 0)
(1.07716 -0.0289971 0)
(1.06075 -0.0241999 0)
(1.04711 -0.0196912 0)
(1.03625 -0.0145746 0)
(1.02844 -0.0085434 0)
(1.024 -0.00153562 0)
(1.02372 0.00581481 0)
(1.02762 0.0125365 0)
(1.03509 0.018187 0)
(1.04543 0.022854 0)
(1.05886 0.026841 0)
(1.07525 0.0312085 0)
(1.08097 0.033907 0)
(1.02994 0.03306 0)
(0.783696 0.0206379 0)
(0.259695 8.31019e-05 0)
(0.239965 0.0010461 0)
(0.737821 -0.0123649 0)
(1.01326 -0.0251632 0)
(1.08369 -0.0270012 0)
(1.08262 -0.0247848 0)
(1.06748 -0.0207436 0)
(1.05404 -0.0168463 0)
(1.04325 -0.0123435 0)
(1.03515 -0.00703661 0)
(1.03029 -0.000779724 0)
(1.02984 0.00581404 0)
(1.03393 0.0117392 0)
(1.04143 0.016613 0)
(1.05192 0.0205687 0)
(1.06516 0.0241923 0)
(1.07983 0.0276125 0)
(1.08027 0.0293104 0)
(1.0082 0.0268806 0)
(0.730203 0.0130143 0)
(0.234224 -0.000865851 0)
(0.225489 0.00094804 0)
(0.694739 -0.00808668 0)
(0.9925 -0.0208438 0)
(1.08179 -0.0233062 0)
(1.08645 -0.0214641 0)
(1.07297 -0.017969 0)
(1.05965 -0.0142266 0)
(1.04912 -0.00999947 0)
(1.04119 -0.00513966 0)
(1.03625 0.000458281 0)
(1.03567 0.00627308 0)
(1.03956 0.011498 0)
(1.04662 0.0156558 0)
(1.05657 0.0192562 0)
(1.06942 0.0220796 0)
(1.08232 0.0249507 0)
(1.07655 0.0260233 0)
(0.984852 0.0228919 0)
(0.684198 0.00891959 0)
(0.218219 -0.000754787 0)
(0.21586 0.000625569 0)
(0.659216 -0.00567605 0)
(0.971719 -0.0176653 0)
(1.07887 -0.0203131 0)
(1.08962 -0.0188086 0)
(1.07764 -0.0157162 0)
(1.06432 -0.0121914 0)
(1.05402 -0.00820783 0)
(1.04632 -0.00367661 0)
(1.04142 0.0014132 0)
(1.0406 0.00668168 0)
(1.04405 0.0113102 0)
(1.05075 0.0151072 0)
(1.06021 0.0182039 0)
(1.07319 0.0211463 0)
(1.08429 0.0234307 0)
(1.07213 0.0241561 0)
(0.961298 0.0203282 0)
(0.64485 0.00678606 0)
(0.206509 -0.000392332 0)
(0.208627 0.000292204 0)
(0.630526 -0.00423754 0)
(0.952704 -0.0150624 0)
(1.07557 -0.0180743 0)
(1.09264 -0.0168341 0)
(1.08213 -0.0140213 0)
(1.06862 -0.0105245 0)
(1.05813 -0.00666948 0)
(1.05043 -0.00223446 0)
(1.04571 0.00262741 0)
(1.04473 0.00764975 0)
(1.0476 0.0118176 0)
(1.05381 0.0153026 0)
(1.06329 0.0181941 0)
(1.07603 0.0206397 0)
(1.08531 0.0225083 0)
(1.06558 0.0225926 0)
(0.937593 0.0182246 0)
(0.611398 0.00555188 0)
(0.196789 -1.76808e-05 0)
(0.202751 6.79814e-05 0)
(0.607195 -0.00314439 0)
(0.934711 -0.0126679 0)
(1.07228 -0.0158337 0)
(1.09567 -0.0148325 0)
(1.08663 -0.012228 0)
(1.07293 -0.00889974 0)
(1.06209 -0.00513728 0)
(1.05407 -0.00082637 0)
(1.04897 0.00390578 0)
(1.04745 0.00869248 0)
(1.05008 0.0127627 0)
(1.05637 0.0158608 0)
(1.06594 0.0183559 0)
(1.07881 0.0205065 0)
(1.08616 0.0219004 0)
(1.05955 0.021502 0)
(0.915227 0.0164422 0)
(0.582683 0.00476616 0)
(0.187906 0.000259685 0)
(0.198166 2.3936e-05 0)
(0.588962 -0.00217237 0)
(0.918684 -0.00999057 0)
(1.06885 -0.013255 0)
(1.09872 -0.012517 0)
(1.09105 -0.010129 0)
(1.07723 -0.00683992 0)
(1.06617 -0.00317199 0)
(1.05794 0.00111968 0)
(1.05273 0.00571592 0)
(1.05114 0.0100535 0)
(1.05334 0.013687 0)
(1.05914 0.0165719 0)
(1.06849 0.0187618 0)
(1.08108 0.0205088 0)
(1.08613 0.021292 0)
(1.05107 0.0202371 0)
(0.892289 0.0147071 0)
(0.55752 0.00419119 0)
(0.179611 0.000415267 0)
(0.195006 2.98288e-05 0)
(0.575388 -0.00129624 0)
(0.905357 -0.00759405 0)
(1.06584 -0.0105594 0)
(1.10139 -0.00970004 0)
(1.0954 -0.00744289 0)
(1.08176 -0.00449917 0)
(1.07043 -0.00100635 0)
(1.0617 0.00307716 0)
(1.05564 0.00747167 0)
(1.05316 0.0115342 0)
(1.05512 0.0149203 0)
(1.06113 0.0173582 0)
(1.07048 0.0189861 0)
(1.08232 0.0201282 0)
(1.08551 0.0204908 0)
(1.04365 0.0192229 0)
(0.871533 0.0132597 0)
(0.535863 0.00375982 0)
(0.17196 0.000475607 0)
(0.193074 5.35269e-05 0)
(0.565425 -0.000647779 0)
(0.893039 -0.0055043 0)
(1.06311 -0.00817157 0)
(1.10474 -0.00710235 0)
(1.09989 -0.00455996 0)
(1.0862 -0.00133927 0)
(1.07452 0.00209863 0)
(1.06518 0.00592766 0)
(1.05856 0.010059 0)
(1.05599 0.0138126 0)
(1.05777 0.0165043 0)
(1.06305 0.018147 0)
(1.07205 0.019346 0)
(1.08355 0.019984 0)
(1.08401 0.0203911 0)
(1.03295 0.018515 0)
(0.849223 0.0122164 0)
(0.515582 0.0035922 0)
(0.164518 0.00053639 0)
(0.19255 -1.41524e-05 0)
(0.558655 4.68551e-05 0)
(0.884998 -0.00307378 0)
(1.0617 -0.00525597 0)
(1.108 -0.00395032 0)
(1.1046 -0.00128174 0)
(1.09106 0.00206941 0)
(1.07909 0.00556899 0)
(1.06923 0.0093105 0)
(1.06169 0.0130242 0)
(1.05795 0.0161695 0)
(1.05923 0.0181952 0)
(1.06491 0.0193508 0)
(1.07378 0.0199517 0)
(1.08402 0.020777 0)
(1.08229 0.02044 0)
(1.02449 0.0181945 0)
(0.830124 0.0116229 0)
(0.497946 0.0035465 0)
(0.157412 0.000592939 0)
(0.193343 -6.04188e-05 0)
(0.556985 0.00112538 0)
(0.878416 -0.000874179 0)
(1.06092 -0.00236344 0)
(1.11236 -0.000850241 0)
(1.10995 0.0020988 0)
(1.09615 0.00562235 0)
(1.08386 0.00928234 0)
(1.07371 0.0129558 0)
(1.06588 0.0165182 0)
(1.06174 0.0192963 0)
(1.0618 0.020876 0)
(1.06569 0.0214794 0)
(1.0742 0.0217819 0)
(1.0835 0.0217853 0)
(1.07865 0.0208548 0)
(1.01159 0.0179414 0)
(0.807908 0.0109889 0)
(0.47991 0.00349295 0)
(0.149942 0.000630636 0)
(0.195947 0.00041591 0)
(0.558198 0.00172022 0)
(0.875849 0.00200693 0)
(1.06166 0.00122461 0)
(1.11624 0.00302065 0)
(1.11495 0.00581754 0)
(1.10104 0.00943786 0)
(1.08816 0.0131227 0)
(1.07733 0.0172127 0)
(1.0685 0.0209988 0)
(1.06287 0.0235942 0)
(1.06186 0.02456 0)
(1.06602 0.0245868 0)
(1.07422 0.0240843 0)
(1.08221 0.0230933 0)
(1.07511 0.0214104 0)
(1.00112 0.0179689 0)
(0.789807 0.0106213 0)
(0.464586 0.00350225 0)
(0.142984 0.000641238 0)
(0.200508 0.00069283 0)
(0.562361 0.00270901 0)
(0.877414 0.00448037 0)
(1.06337 0.00469201 0)
(1.12084 0.00713681 0)
(1.12035 0.0103563 0)
(1.10582 0.0139817 0)
(1.09198 0.0181472 0)
(1.08008 0.0222304 0)
(1.07004 0.025931 0)
(1.06339 0.0281645 0)
(1.06141 0.0289159 0)
(1.06407 0.0282051 0)
(1.07182 0.0268977 0)
(1.07907 0.0253321 0)
(1.06793 0.0230066 0)
(0.985075 0.0183838 0)
(0.7668 0.0105477 0)
(0.446971 0.00369103 0)
(0.13518 0.00068112 0)
(0.208271 0.00085722 0)
(0.572525 0.00418124 0)
(0.883256 0.0075428 0)
(1.06795 0.00964203 0)
(1.12592 0.0125139 0)
(1.12598 0.0157493 0)
(1.1111 0.0201152 0)
(1.09642 0.02444 0)
(1.08313 0.0288667 0)
(1.07129 0.0327558 0)
(1.06318 0.034588 0)
(1.06024 0.0341276 0)
(1.06289 0.0324416 0)
(1.06997 0.0301944 0)
(1.0754 0.0275071 0)
(1.06105 0.0242818 0)
(0.972139 0.0189669 0)
(0.749017 0.0109553 0)
(0.43205 0.00403398 0)
(0.12777 0.000711592 0)
(0.217524 0.001063 0)
(0.586514 0.00536227 0)
(0.893782 0.0108359 0)
(1.07488 0.0143845 0)
(1.13232 0.017945 0)
(1.13302 0.0224133 0)
(1.11766 0.0270462 0)
(1.10232 0.0322131 0)
(1.08799 0.0369183 0)
(1.07447 0.0403569 0)
(1.06387 0.0411403 0)
(1.05873 0.0401721 0)
(1.05892 0.0377537 0)
(1.06477 0.0346328 0)
(1.06932 0.0314408 0)
(1.05072 0.0269734 0)
(0.953048 0.0205073 0)
(0.724374 0.0119091 0)
(0.412379 0.00457009 0)
(0.118575 0.000756175 0)
(0.23109 0.00146693 0)
(0.608185 0.00717258 0)
(0.911131 0.0149439 0)
(1.08565 0.0203606 0)
(1.14074 0.0250891 0)
(1.14117 0.0297334 0)
(1.12514 0.0355958 0)
(1.10856 0.0413021 0)
(1.09243 0.0466074 0)
(1.07668 0.050431 0)
(1.06431 0.0511694 0)
(1.05809 0.0490333 0)
(1.05762 0.0450163 0)
(1.06186 0.0403788 0)
(1.063 0.0357645 0)
(1.04013 0.0300555 0)
(0.936651 0.0228417 0)
(0.704723 0.0136686 0)
(0.394481 0.00533735 0)
(0.109434 0.000810839 0)
(0.2474 0.00203062 0)
(0.633733 0.00878338 0)
(0.933163 0.0188334 0)
(1.09984 0.026381 0)
(1.15092 0.0323547 0)
(1.15093 0.039377 0)
(1.13323 0.0461442 0)
(1.11478 0.0528696 0)
(1.09634 0.0586542 0)
(1.07788 0.0619746 0)
(1.0622 0.061308 0)
(1.05257 0.0574533 0)
(1.04954 0.0526841 0)
(1.05276 0.0472516 0)
(1.05378 0.042194 0)
(1.02609 0.0353686 0)
(0.913231 0.0265204 0)
(0.674757 0.0160926 0)
(0.368428 0.00621156 0)
(0.0973702 0.000894015 0)
(0.270149 0.00286194 0)
(0.66844 0.012598 0)
(0.962043 0.0252552 0)
(1.11865 0.0353284 0)
(1.16442 0.0434289 0)
(1.16239 0.0514558 0)
(1.1425 0.0598202 0)
(1.12124 0.0674338 0)
(1.09946 0.073492 0)
(1.07758 0.0764682 0)
(1.05951 0.0751897 0)
(1.04946 0.0705164 0)
(1.04624 0.0637845 0)
(1.04761 0.0563032 0)
(1.04347 0.049369 0)
(1.01026 0.0409451 0)
(0.890603 0.0310062 0)
(0.648193 0.0189743 0)
(0.343451 0.00725739 0)
(0.085224 0.000960977 0)
(0.301763 0.0037583 0)
(0.714536 0.015549 0)
(1.00041 0.0329352 0)
(1.14342 0.046238 0)
(1.18152 0.0561354 0)
(1.17674 0.0675258 0)
(1.15318 0.0773631 0)
(1.12858 0.0858406 0)
(1.10333 0.0917704 0)
(1.07786 0.0936057 0)
(1.05569 0.089961 0)
(1.04076 0.0822804 0)
(1.03382 0.0739519 0)
(1.03378 0.0657105 0)
(1.0306 0.0581891 0)
(0.991733 0.0485741 0)
(0.859998 0.0363026 0)
(0.607976 0.0220573 0)
(0.307567 0.00803969 0)
(0.069537 0.000963339 0)
(0.338098 0.0072396 0)
(0.772065 0.0246812 0)
(1.0472 0.0454826 0)
(1.17389 0.0625357 0)
(1.20343 0.0756935 0)
(1.19318 0.0890813 0)
(1.16511 0.0999276 0)
(1.13617 0.108575 0)
(1.10641 0.113867 0)
(1.07636 0.11435 0)
(1.05067 0.109157 0)
(1.0352 0.100367 0)
(1.02902 0.0905471 0)
(1.02741 0.0798087 0)
(1.01604 0.0693907 0)
(0.968016 0.0570202 0)
(0.826617 0.0425293 0)
(0.569827 0.025391 0)
(0.274049 0.00910983 0)
(0.0548928 0.000868662 0)
(0.41914 0.0108931 0)
(0.857608 0.0355846 0)
(1.10944 0.0657 0)
(1.21184 0.0873906 0)
(1.22888 0.101817 7.11793e-34)
(1.21143 0.118193 -3.17603e-34)
(1.17695 0.129062 0)
(1.14294 0.136893 0)
(1.10844 0.140434 0)
(1.07424 0.138523 0)
(1.0446 0.129966 0)
(1.02418 0.117876 0)
(1.01262 0.10495 0)
(1.00754 0.0927762 0)
(0.997314 0.0816936 0)
(0.941319 0.0675618 0)
(0.783546 0.0492229 0)
(0.514306 0.0289842 0)
(0.225187 0.00915936 0)
(0.0357342 0.000720446 0)
(0.489386 0.0261306 5.44458e-20)
(0.956895 0.05915 -4.11174e-20)
(1.17601 0.0993249 0)
(1.25031 0.124057 3.12789e-20)
(1.25627 0.140333 -2.53533e-20)
(1.22865 0.157225 3.35094e-34)
(1.18766 0.166296 0)
(1.14813 0.1723 1.75006e-20)
(1.10806 0.173758 -5.72717e-20)
(1.06795 0.169316 1.16396e-20)
(1.03343 0.158528 0)
(1.01147 0.144375 -2.91652e-20)
(1.00172 0.130808 -3.48143e-20)
(0.996645 0.116855 6.08393e-20)
(0.971284 0.100817 -4.80325e-20)
(0.895541 0.0808361 0)
(0.720004 0.0577298 -1.73689e-20)
(0.442597 0.0316614 0)
(0.171355 0.0102608 -9.55669e-20)
(0.0178852 0.00089572 1.12742e-19)
(0.523558 0.0538582 -7.08163e-21)
(1.01701 0.102621 1.27557e-19)
(1.22336 0.149168 -8.42111e-21)
(1.28294 0.171398 -8.0191e-20)
(1.27989 0.188748 -5.3714e-20)
(1.24337 0.20354 8.7239e-20)
(1.19633 0.210189 0)
(1.15115 0.21398 0)
(1.10544 0.212971 9.13337e-20)
(1.0605 0.205963 0)
(1.0217 0.192077 1.05891e-19)
(0.994047 0.175855 3.1292e-20)
(0.974697 0.159173 3.58607e-22)
(0.956624 0.140884 -6.65429e-20)
(0.931317 0.123722 0)
(0.851589 0.102716 0)
(0.668411 0.0729346 -2.84598e-19)
(0.397861 0.0415305 7.129e-19)
(0.153186 0.0133507 -4.23077e-19)
(0.0115357 0.00171308 -4.99025e-19)
(0.530177 0.0764387 -8.00865e-20)
(1.05237 0.159203 2.97269e-20)
(1.25842 0.210041 1.53399e-20)
(1.30871 0.230413 1.40573e-19)
(1.29812 0.245531 1.42388e-20)
(1.25467 0.255766 -2.28237e-19)
(1.20247 0.258753 7.71461e-20)
(1.15188 0.259648 0)
(1.10075 0.256017 -1.93583e-19)
(1.04964 0.24623 1.7022e-19)
(1.00435 0.229993 -2.85789e-19)
(0.972267 0.211477 1.33737e-19)
(0.951469 0.192174 -8.62437e-20)
(0.936954 0.175252 1.94382e-19)
(0.900371 0.155182 0)
(0.813444 0.127755 -7.10889e-20)
(0.637128 0.092662 0)
(0.387501 0.0517271 3.93674e-19)
(0.153965 0.0207408 -9.34703e-19)
(0.0156337 0.00167372 5.85493e-19)
(0.5223 0.1082 2.44925e-19)
(1.06849 0.215664 -1.05462e-19)
(1.27831 0.274974 -2.16274e-20)
(1.32536 0.294594 0)
(1.30979 0.307192 -1.02911e-19)
(1.26159 0.312198 1.26494e-19)
(1.20509 0.310686 -8.25309e-20)
(1.14977 0.307835 0)
(1.0937 0.300205 1.37649e-19)
(1.03792 0.28613 -1.19752e-19)
(0.989408 0.266834 2.47731e-19)
(0.952276 0.24522 0)
(0.92439 0.225396 -1.83331e-19)
(0.897059 0.204215 1.03437e-19)
(0.864704 0.182826 2.6054e-19)
(0.785361 0.156933 -2.29208e-19)
(0.622556 0.117644 3.66753e-19)
(0.389241 0.0706984 -8.11748e-19)
(0.168845 0.0306213 5.12744e-19)
(0.0252896 0.00454045 -6.41567e-19)
(0.509782 0.132419 -9.90292e-20)
(1.07481 0.270166 7.15606e-20)
(1.28827 0.341037 -7.13092e-20)
(1.33377 0.359695 1.35299e-19)
(1.31476 0.369843 -1.2371e-19)
(1.2635 0.370071 4.06729e-20)
(1.20377 0.364398 3.65692e-21)
(1.14449 0.357648 -1.58658e-19)
(1.08413 0.346229 -1.44618e-19)
(1.02377 0.32937 -2.57293e-19)
(0.969348 0.305965 -5.32593e-19)
(0.927459 0.281174 -1.63375e-19)
(0.898717 0.258809 2.41317e-21)
(0.877827 0.239346 -3.53313e-19)
(0.836768 0.21715 -6.31096e-21)
(0.755594 0.185013 3.33178e-19)
(0.603636 0.141791 -1.00747e-19)
(0.389436 0.0894275 -5.86252e-20)
(0.181888 0.0421425 0)
(0.0342703 0.00812168 1.36214e-18)
(0.491781 0.152885 0)
(1.06738 0.319494 -1.15918e-20)
(1.28972 0.404201 -1.55502e-20)
(1.33559 0.423598 -1.2656e-20)
(1.3141 0.432226 1.22088e-19)
(1.26093 0.428088 -9.36286e-20)
(1.19901 0.418405 9.05664e-20)
(1.13686 0.407634 2.59876e-19)
(1.0736 0.392132 -8.02409e-20)
(1.0093 0.369782 1.28063e-19)
(0.950755 0.342155 2.86246e-19)
(0.906769 0.316154 3.55702e-19)
(0.873438 0.292482 -2.13517e-19)
(0.83926 0.267777 3.81931e-19)
(0.805558 0.244813 -3.02236e-19)
(0.736231 0.216569 0)
(0.597688 0.169127 -7.6391e-19)
(0.396592 0.111375 1.02828e-18)
(0.195464 0.0556169 7.67555e-20)
(0.0425455 0.012407 -1.43598e-18)
(0.477397 0.173265 -5.13598e-21)
(1.05878 0.367738 5.31235e-20)
(1.28611 0.464922 1.14666e-19)
(1.33239 0.485054 -1.32963e-19)
(1.30902 0.492462 9.79461e-20)
(1.25455 0.484683 -9.21105e-20)
(1.19089 0.471644 1.81032e-19)
(1.12627 0.457252 -7.9386e-20)
(1.05926 0.437967 -3.2482e-19)
(0.990417 0.412784 2.12854e-22)
(0.928931 0.38387 -3.10244e-19)
(0.881638 0.351851 -3.81604e-19)
(0.846455 0.325423 2.349e-19)
(0.823009 0.302271 -1.37141e-19)
(0.783281 0.279057 3.27396e-19)
(0.711586 0.242905 0)
(0.581771 0.194698 -4.72524e-19)
(0.396631 0.131576 6.97839e-19)
(0.203795 0.0685255 1.32357e-18)
(0.048107 0.0164572 -1.55719e-18)
(0.462797 0.1907 2.93633e-20)
(1.0454 0.412108 -2.19623e-20)
(1.27858 0.522485 -8.8955e-20)
(1.32539 0.544086 1.38997e-19)
(1.30047 0.550642 1.1676e-20)
(1.24519 0.539584 -1.82655e-19)
(1.18046 0.523462 -1.03749e-19)
(1.11422 0.505739 -9.92669e-20)
(1.04578 0.48272 -1.81927e-19)
(0.976615 0.453257 2.93091e-19)
(0.912383 0.416319 3.1479e-19)
(0.861984 0.383874 6.05854e-19)
(0.825058 0.355507 0)
(0.787801 0.329234 5.98124e-21)
(0.755782 0.30316 -8.96198e-19)
(0.694816 0.273643 2.08532e-19)
(0.574581 0.220331 1.01803e-18)
(0.397618 0.152819 -3.00175e-19)
(0.208871 0.0806491 6.27055e-19)
(0.0516293 0.020064 -5.23373e-20)
(0.453557 0.20933 5.88927e-21)
(1.03362 0.455078 5.75352e-21)
(1.26868 0.577064 -5.06403e-20)
(1.31581 0.599884 1.77017e-19)
(1.28956 0.605674 -2.21771e-19)
(1.23368 0.591946 1.8343e-19)
(1.16809 0.573237 1.07651e-19)
(1.10041 0.552446 2.98798e-19)
(1.02932 0.526102 3.67905e-19)
(0.954261 0.492987 -3.35672e-19)
(0.885663 0.454897 0)
(0.835025 0.418296 -2.27684e-19)
(0.799168 0.386499 2.61403e-19)
(0.774321 0.360991 3.27868e-19)
(0.734622 0.33465 -1.89561e-19)
(0.66994 0.296259 -4.62338e-19)
(0.555217 0.243824 -1.38197e-19)
(0.388985 0.169586 -1.43095e-21)
(0.205618 0.0904785 0)
(0.0519146 0.0220707 0)
(0.44527 0.224912 -3.27549e-20)
(1.02112 0.495286 0)
(1.25733 0.628756 -3.83124e-20)
(1.30425 0.653361 2.75964e-21)
(1.27685 0.658381 2.46762e-19)
(1.22054 0.641985 -6.36719e-20)
(1.15431 0.620892 1.09537e-19)
(1.08535 0.5975 -2.03207e-19)
(1.01274 0.568339 2.79381e-19)
(0.937975 0.531648 -1.07927e-19)
(0.871204 0.488894 1.79621e-19)
(0.817174 0.448667 7.21662e-19)
(0.775345 0.416877 1.38307e-20)
(0.738887 0.384951 -3.4208e-19)
(0.707671 0.355978 6.31709e-19)
(0.652377 0.324125 4.3357e-21)
(0.544023 0.264512 1.47852e-19)
(0.381062 0.185679 -7.06025e-19)
(0.199132 0.0973486 7.22737e-19)
(0.0498404 0.0235829 -8.5604e-19)
(0.438981 0.243933 3.14513e-23)
(1.00944 0.533614 0)
(1.24491 0.677158 0)
(1.29145 0.703461 -1.78742e-20)
(1.26311 0.707776 -7.72529e-20)
(1.20646 0.689326 8.8854e-20)
(1.13972 0.666328 -2.08385e-19)
(1.06996 0.640509 0)
(0.996045 0.608562 -4.10946e-19)
(0.918166 0.569126 4.84762e-19)
(0.843938 0.523978 5.09035e-19)
(0.788123 0.479643 -2.64561e-19)
(0.751373 0.441416 -3.18422e-19)
(0.724142 0.413197 7.45805e-19)
(0.687746 0.384323 -2.24296e-19)
(0.627867 0.340558 -2.67916e-19)
(0.522978 0.282528 -1.60591e-19)
(0.368052 0.197018 -7.60808e-19)
(0.190741 0.101604 1.10089e-19)
(0.0463588 0.02424 9.23667e-19)
(0.435452 0.26234 -2.11532e-20)
(0.998771 0.570101 -2.24986e-20)
(1.23192 0.723004 2.34481e-20)
(1.27774 0.751233 -1.22089e-22)
(1.24858 0.754879 -6.6564e-20)
(1.19171 0.734272 1.53309e-19)
(1.1247 0.709324 0)
(1.05423 0.681479 1.21472e-19)
(0.97875 0.64736 -9.57822e-20)
(0.898553 0.60522 8.08131e-19)
(0.824648 0.554581 -1.1639e-19)
(0.769987 0.50716 1.3141e-19)
(0.726495 0.469834 0)
(0.690159 0.434049 -4.03387e-19)
(0.660344 0.400066 4.87466e-19)
(0.609361 0.364537 0)
(0.508357 0.296558 -3.46713e-19)
(0.352865 0.206761 1.01883e-18)
(0.179916 0.103747 1.20021e-19)
(0.0418471 0.0239793 -1.13663e-18)
(0.433461 0.279156 -6.01545e-20)
(0.988786 0.604541 7.78121e-20)
(1.21872 0.765765 0)
(1.26374 0.795644 -2.0845e-20)
(1.23387 0.798692 0)
(1.17684 0.776486 -1.89062e-19)
(1.10954 0.750123 0)
(1.03818 0.720393 0)
(0.961101 0.68423 -1.24181e-19)
(0.879145 0.639607 -7.67413e-19)
(0.803134 0.587951 -9.39035e-19)
(0.741737 0.538408 1.52742e-19)
(0.700594 0.493114 5.49153e-19)
(0.674976 0.458065 4.433e-19)
(0.639516 0.425083 -1.56405e-18)
(0.58374 0.374437 -6.28693e-19)
(0.484116 0.309326 3.67796e-19)
(0.335179 0.211364 0)
(0.168233 0.104056 1.03289e-18)
(0.0371116 0.022793 -1.22449e-18)
(0.432168 0.294807 7.69937e-20)
(0.979377 0.637225 -9.47256e-20)
(1.20562 0.806086 0)
(1.24957 0.837851 -1.07137e-20)
(1.21905 0.840428 1.48499e-20)
(1.16183 0.816514 0)
(1.09421 0.788556 6.35236e-20)
(1.02225 0.757311 8.2434e-20)
(0.944192 0.719432 -2.3582e-19)
(0.860069 0.673035 1.02558e-19)
(0.779217 0.617401 0)
(0.717919 0.562169 6.32999e-19)
(0.676228 0.517561 4.67617e-21)
(0.638631 0.475542 2.39074e-19)
(0.610778 0.434121 2.83767e-19)
(0.563058 0.393647 0)
(0.467256 0.316225 -6.03287e-19)
(0.317432 0.21502 1.18436e-18)
(0.155933 0.102637 -1.25358e-18)
(0.0324846 0.0212123 2.63745e-18)
(0.431123 0.309872 0)
(0.970557 0.668389 0)
(1.19289 0.843671 -4.23888e-20)
(1.23563 0.876935 0)
(1.20446 0.879068 0)
(1.14707 0.853963 -1.67619e-19)
(1.07928 0.824955 6.52705e-20)
(1.0067 0.79223 1.74719e-20)
(0.927468 0.753094 -5.46425e-20)
(0.8416 0.705102 0)
(0.760315 0.647915 -1.42061e-19)
(0.696074 0.592469 -5.15938e-19)
(0.64788 0.539147 -6.19541e-19)
(0.622072 0.495056 -2.48508e-19)
(0.589281 0.455485 3.07822e-19)
(0.536835 0.396108 -7.26114e-19)
(0.441289 0.323038 1.29833e-18)
(0.297746 0.213576 3.66956e-21)
(0.143732 0.0997631 -1.20383e-18)
(0.0284014 0.0194077 -1.78005e-19)
(0.430173 0.324599 0)
(0.96225 0.698084 -8.02194e-20)
(1.18045 0.879081 5.57484e-20)
(1.22183 0.914021 0)
(1.19008 0.915846 0)
(1.13258 0.889449 3.41379e-19)
(1.06464 0.859206 0)
(0.991637 0.825293 0)
(0.911125 0.784732 -5.17206e-19)
(0.822486 0.735162 1.39505e-19)
(0.735233 0.676001 -1.26313e-18)
(0.666567 0.614421 0)
(0.622981 0.561329 -6.70413e-19)
(0.583738 0.51096 1.09088e-20)
(0.55703 0.457931 -9.87796e-19)
(0.513712 0.409245 3.90928e-19)
(0.42425 0.321156 2.28489e-21)
(0.2821 0.211465 -1.36896e-18)
(0.133603 0.0959579 6.4929e-19)
(0.0246809 0.0176191 1.90509e-19)
(0.429313 0.338964 0)
(0.954615 0.726483 -1.21873e-19)
(1.16854 0.912271 5.88595e-20)
(1.20853 0.948356 4.7497e-20)
(1.1762 0.949762 -2.77254e-20)
(1.11863 0.922493 3.64222e-20)
(1.05064 0.89153 -4.36996e-20)
(0.97704 0.856559 5.13299e-19)
(0.895309 0.815226 5.53265e-19)
(0.805398 0.765317 1.06885e-18)
(0.719146 0.705609 1.04964e-18)
(0.649617 0.643425 1.8343e-19)
(0.592871 0.583507 9.64408e-19)
(0.564033 0.527232 5.93725e-19)
(0.532501 0.476415 7.09149e-19)
(0.4857 0.401526 -4.28466e-19)
(0.39756 0.318612 -5.00908e-19)
(0.26497 0.200069 5.86431e-19)
(0.125572 0.0922384 -3.47806e-19)
(0.0254466 0.0213819 6.16728e-19)
(0.428512 0.352865 1.77836e-19)
(0.947284 0.753225 1.89626e-19)
(1.1569 0.943417 3.58161e-20)
(1.19551 0.980868 1.62733e-20)
(1.16272 0.982027 5.66324e-20)
(1.10511 0.953788 -9.56352e-20)
(1.03703 0.921904 4.29893e-20)
(0.963043 0.886049 -2.07511e-20)
(0.880351 0.843704 -6.43734e-19)
(0.788621 0.792576 -1.15871e-18)
(0.695777 0.73099 7.31544e-20)
(0.616957 0.665997 0)
(0.567443 0.605053 0)
(0.52182 0.544034 -3.09385e-19)
(0.493696 0.472252 -1.158e-18)
(0.456613 0.406395 9.23028e-19)
(0.383643 0.296613 5.48946e-19)
(0.26894 0.182185 0)
(0.136588 0.0686947 1.1092e-18)
(0.019139 -0.00296822 -6.59957e-19)
(0.427794 0.366131 -9.40243e-20)
(0.940538 0.778753 8.38859e-20)
(1.14585 0.972723 -9.00518e-20)
(1.1831 1.01097 -6.09423e-20)
(1.14984 1.01167 4.24761e-21)
(1.0922 0.982775 -2.96326e-20)
(1.02417 0.950464 0)
(0.949883 0.913965 -6.45574e-19)
(0.866485 0.871281 7.95452e-20)
(0.773011 0.820532 0)
(0.679703 0.759885 0)
(0.603195 0.695177 1.1594e-19)
(0.535918 0.62851 1.54994e-19)
(0.498531 0.558954 -3.33553e-19)
(0.462873 0.490957 8.31439e-19)
(0.418475 0.386359 -1.0052e-18)
(0.347129 0.277771 -1.17391e-18)
(0.264384 0.158243 1.03854e-18)
(0.183016 0.102264 -3.96076e-19)
(0.11399 0.082616 2.30794e-19)
(0.426943 0.378613 1.22398e-19)
(0.933823 0.802467 0)
(1.135 0.999998 0)
(1.17101 1.03936 -1.42652e-20)
(1.1374 1.03985 1.15486e-20)
(1.07982 1.01022 -2.09683e-20)
(1.01184 0.977242 1.84806e-19)
(0.937337 0.940167 6.66397e-19)
(0.853026 0.896836 1.16951e-18)
(0.758022 0.845039 -8.65065e-20)
(0.660458 0.782957 1.77621e-19)
(0.572046 0.717402 -1.03789e-18)
(0.51093 0.65167 -1.02768e-18)
(0.452012 0.580769 -1.78584e-19)
(0.410307 0.48368 0)
(0.373437 0.392754 -9.58283e-21)
(0.316354 0.215264 6.43715e-19)
(0.276916 0.0575716 -1.08884e-18)
(0.237184 -0.0717587 8.28504e-19)
(0.0813598 -0.0959281 6.89437e-19)
(0.426072 0.390598 -2.72067e-19)
(0.927585 0.825222 -1.24349e-19)
(1.12471 1.02591 6.84227e-21)
(1.15945 1.06586 4.31241e-20)
(1.12543 1.06594 0)
(1.06787 1.03587 -1.29249e-19)
(1.00001 1.00279 -2.61231e-19)
(0.925354 0.965489 1.70183e-21)
(0.840591 0.922248 -6.13704e-19)
(0.744037 0.871502 -8.48524e-20)
(0.6447 0.812085 7.88122e-20)
(0.558981 0.748461 9.11324e-19)
(0.478026 0.679161 1.00331e-18)
(0.425 0.597922 1.73416e-19)
(0.373649 0.514388 8.85775e-19)
(0.302127 0.3675 0)
(0.18753 0.202361 0)
(0.0163852 0.227871 7.52558e-19)
(-0.0757215 0.629056 -3.16255e-20)
(0.00476259 1.52787 -9.17759e-19)
(0.42499 0.401949 1.51108e-19)
(0.921303 0.846355 3.40671e-19)
(1.11451 1.05008 -4.51504e-19)
(1.14809 1.09115 2.09763e-19)
(1.11374 1.09126 2.78352e-21)
(1.05623 1.06084 -9.21275e-20)
(0.988399 1.0275 0)
(0.9135 0.990127 -5.58801e-19)
(0.827785 0.946907 0)
(0.729676 0.895706 1.20538e-18)
(0.626649 0.835123 -9.46106e-20)
(0.528502 0.772033 1.06084e-19)
(0.455092 0.708218 1.14297e-18)
(0.371931 0.636689 -3.74709e-19)
(0.282065 0.518311 -4.51489e-19)
(0.205003 0.426265 0)
(0.0960477 0.532406 0)
(0.0290309 1.30444 0)
(0.0740479 2.45199 -4.28076e-19)
(0.102664 2.90532 -2.62405e-19)
(0.423797 0.412729 0)
(0.915514 0.866688 0)
(1.1049 1.07325 1.66022e-19)
(1.1373 1.11491 -1.68295e-19)
(1.10253 1.1148 5.63524e-20)
(1.04501 1.08425 9.40253e-20)
(0.977279 1.05124 3.30729e-20)
(0.902295 1.01418 -2.57502e-20)
(0.816332 0.971724 8.57336e-20)
(0.716979 0.922624 -1.38345e-18)
(0.61153 0.866703 1.72464e-19)
(0.517457 0.808708 9.06255e-19)
(0.419316 0.744805 -1.13959e-18)
(0.344169 0.658193 -1.24169e-18)
(0.270084 0.581847 4.18484e-19)
(0.198461 0.708524 0)
(0.129594 1.53386 5.84789e-19)
(0.129208 2.68558 6.49983e-19)
(0.136996 3.08529 -7.27126e-19)
(0.128127 3.22094 7.8709e-19)
(0.422374 0.423046 0)
(0.909618 0.885301 3.10724e-19)
(1.09538 1.09462 -4.12556e-20)
(1.12677 1.13745 2.49577e-19)
(1.09168 1.13761 -5.9151e-20)
(1.03422 1.10703 0)
(0.966523 1.07407 0)
(0.891319 1.03736 0)
(0.804506 0.995517 4.93057e-19)
(0.703751 0.946714 6.47714e-20)
(0.595747 0.889911 0)
(0.488739 0.83223 -9.02326e-19)
(0.406739 0.776898 0)
(0.295196 0.71109 8.89602e-19)
(0.210062 0.782797 -5.96841e-19)
(0.161578 1.4566 -4.80947e-19)
(0.163903 2.67416 -1.13617e-18)
(0.184789 3.12655 -6.0128e-19)
(0.175408 3.26876 -8.27493e-19)
(0.160902 3.30926 6.45317e-19)
(0.42097 0.432561 -1.0987e-19)
(0.904247 0.903292 1.54046e-20)
(1.08649 1.11527 -4.65771e-20)
(1.11684 1.1587 -1.90113e-19)
(1.08134 1.15881 0)
(1.02386 1.12835 0)
(0.956247 1.09603 0)
(0.881045 1.05999 3.87362e-20)
(0.79419 1.01944 -6.2233e-19)
(0.692609 0.973543 0)
(0.582068 0.922886 0)
(0.48301 0.873614 0)
(0.368144 0.818237 0)
(0.3065 0.801373 6.48655e-19)
(0.275923 1.17696 1.59397e-18)
(0.258029 2.36771 4.73947e-19)
(0.269499 3.08284 9.62825e-19)
(0.263589 3.28606 -7.41118e-19)
(0.214096 3.35249 2.75784e-19)
(0.180978 3.36508 0)
(0.419357 0.441726 1.13734e-19)
(0.898511 0.919999 -6.9714e-19)
(1.0774 1.13465 -1.84153e-19)
(1.10691 1.17935 -3.92093e-20)
(1.07115 1.17994 1.29769e-20)
(1.01378 1.1497 1.32286e-21)
(0.946211 1.11761 -9.28601e-21)
(0.870848 1.08221 -4.54522e-19)
(0.783344 1.04267 0)
(0.680889 0.997774 -8.03609e-20)
(0.570373 0.947203 7.31033e-20)
(0.45698 0.896574 0)
(0.373859 0.858921 0)
(0.321211 0.983738 -8.10843e-19)
(0.281473 1.85102 1.01143e-19)
(0.276938 2.93934 -3.57704e-19)
(0.297513 3.29071 7.48739e-19)
(0.270647 3.39017 5.50949e-19)
(0.204044 3.41494 -7.59536e-19)
(0.178854 3.42408 3.78156e-19)
(0.417492 0.451034 2.25811e-19)
(0.892782 0.937779 6.83971e-19)
(1.06821 1.15525 2.19614e-19)
(1.09679 1.20047 0)
(1.06069 1.201 0)
(1.00337 1.17088 4.15132e-22)
(0.935994 1.13954 1.15594e-19)
(0.860856 1.10487 4.06462e-19)
(0.773695 1.0668 2.54369e-20)
(0.671161 1.02526 1.04273e-18)
(0.557491 0.981017 -1.20594e-18)
(0.451267 0.938176 0)
(0.370797 0.941283 0)
(0.339893 1.34558 -5.54354e-19)
(0.342282 2.47474 -6.65668e-19)
(0.384772 3.19905 0)
(0.409706 3.37439 -7.66991e-19)
(0.339857 3.43782 4.23072e-20)
(0.268722 3.48215 3.82998e-19)
(0.245533 3.50764 -1.32237e-19)
(0.415098 0.460768 -4.31284e-19)
(0.885876 0.955553 -3.29489e-19)
(1.05777 1.17593 0)
(1.08567 1.22245 0)
(1.04945 1.22348 0)
(0.992413 1.19345 0)
(0.925304 1.16215 -1.31589e-19)
(0.850276 1.12807 3.70954e-19)
(0.762854 1.091 0)
(0.660054 1.05064 -9.5019e-19)
(0.54975 1.00714 2.16598e-18)
(0.440825 0.972278 8.7806e-20)
(0.386426 1.05695 1.14926e-19)
(0.391067 1.74249 9.06327e-19)
(0.408809 2.89433 -4.89056e-19)
(0.446094 3.32399 0)
(0.428603 3.44978 2.1583e-19)
(0.342215 3.53765 9.37892e-20)
(0.263998 3.60276 1.45875e-19)
(0.188677 3.58234 9.62416e-22)
(0.412314 0.470824 2.06042e-19)
(0.878722 0.975319 -3.40875e-19)
(1.04691 1.19884 0)
(1.07394 1.24554 -5.61348e-20)
(1.03749 1.24621 1.86402e-19)
(0.980658 1.21604 0)
(0.914021 1.18537 0)
(0.839626 1.15184 -6.4949e-19)
(0.753158 1.11609 -6.24338e-20)
(0.651423 1.07896 9.38777e-19)
(0.534957 1.04149 -1.0303e-18)
(0.447207 1.02527 5.95111e-19)
(0.409367 1.23824 0)
(0.432006 2.17784 -4.81398e-19)
(0.473876 3.14522 3.14312e-19)
(0.535605 3.42913 2.00131e-19)
(0.528683 3.52692 0)
(0.464345 3.61139 -3.40755e-20)
(0.392335 3.65386 -4.09392e-19)
(0.310652 3.62486 -9.41417e-20)
(0.408693 0.481239 -4.14963e-19)
(0.869955 0.994819 4.89226e-19)
(1.03446 1.22145 3.31801e-19)
(1.06101 1.26937 -8.13869e-20)
(1.02457 1.27045 -2.85827e-19)