/*--------------------------------*- C++ -*----------------------------------*\
  =========                 |
  \\      /  F ield         | OpenFOAM: The Open Source CFD Toolbox
   \\    /   O peration     | Website:  https://openfoam.org
    \\  /    A nd           | Version:  9
     \\/     M anipulation  |
\*---------------------------------------------------------------------------*/
FoamFile
{
    format      ascii;
    class       volScalarField;
    location    "17";
    object      p;
}
// * * * * * * * * * * * * * * * * * * * * * * * * * * * * * * * * * * * * * //

dimensions      [0 2 -2 0 0 0 0];

internalField   nonuniform List<scalar> 
918
(
0.238879
0.921476
0.0163163
0.238059
0.000108686
0.888612
-0.829678
0.421407
0.218924
-0.348829
0.0120296
0.209551
0.748989
0.516456
-1.45596
0.0109356
0.375573
-0.710588
0.217695
0.00636174
0.496172
0.225669
0.22864
0.219179
0.27787
0.509132
0.629473
0.00708364
-0.00289308
0.000842631
0.0054007
-0.00311838
0.00360047
0.772238
0.823348
0.846007
0.189015
0.0223859
-0.67963
-0.758697
-0.745232
-0.88682
0.410023
0.413967
-0.475724
0.424561
0.440308
0.206513
0.218224
0.219148
0.220435
0.219267
0.220698
0.158296
-0.395666
-0.43799
-0.286556
-0.226888
0.0535549
0.0072541
-0.00443191
0.0207352
0.0174843
0.147446
0.206234
0.2045
0.215048
0.223998
0.861026
0.832915
0.85906
0.772786
0.789298
0.726924
0.699464
0.536318
0.557602
0.502483
0.493097
-1.89796
-2.86942
-0.854653
-0.59447
0.000741066
0.0161868
0.0213649
0.361091
0.369028
0.370642
0.383055
0.798452
-0.706169
-0.827411
0.217648
0.216465
0.225268
0.225905
0.221906
0.221008
0.0125284
0.0172312
-0.00270344
0.00358999
0.00313122
0.477186
0.473686
0.219674
0.216684
0.232355
0.254132
0.243784
-0.0093023
0.289911
0.312357
0.310901
0.490811
0.488288
0.495845
0.602818
0.565954
0.666931
0.690103
0.0118206
0.00326375
0.0083065
0.00671812
0.00758305
0.184223
0.177394
0.201003
0.191946
0.194244
-0.0609771
-0.196854
0.106804
0.12832
-0.583383
-0.651905
-0.769049
-0.778374
-0.905599
0.233797
0.396227
0.400606
-0.48973
-0.40702
-0.555908
-0.333486
-0.406139
0.198256
0.204282
0.199743
0.213937
0.208542
0.210492
0.222518
0.219558
0.221116
0.207967
0.30801
0.0901825
0.0903277
-0.581386
-0.477177
-0.557855
-0.157978
-0.116258
0.0524131
0.0544504
0.0410278
0.0424574
-0.0760579
-0.0186288
-0.0484577
0.0212612
0.0196611
0.140852
0.13197
0.156
0.16217
0.197071
0.198167
0.20127
0.200126
0.650122
0.67239
0.680052
0.653885
-3.87866
-6.69867
-0.260779
-0.116347
0.00314554
0.00299127
0.00179574
0.00489989
0.00299261
0.00137512
0.0258193
0.0233407
0.0226152
0.0254237
0.344517
0.349973
0.745719
0.731109
0.695832
0.666284
0.205763
0.207798
0.21347
0.209289
0.0220406
0.0198088
0.0224995
0.440059
0.459839
0.458246
-0.0439929
-0.132828
0.038207
0.0649885
0.33143
0.317295
0.334173
0.374225
0.412331
0.697498
0.715918
0.714158
0.722771
0.76683
0.783259
0.748544
0.167078
0.173993
0.170469
0.205086
0.202307
0.203056
0.197483
0.199856
0.196624
-0.351217
-0.737832
0.18433
0.197499
0.169964
0.1741
0.313252
0.388234
0.376664
0.38706
0.3899
-0.26891
-0.335939
0.0587229
0.0623912
0.0897998
0.120677
0.104634
0.6212
0.581971
0.631842
0.605174
0.566814
0.59202
-0.690729
-2.21945
-1.32123
0.250812
0.0544997
0.146418
0.0407001
0.0260462
0.0320161
0.692307
0.770885
0.38675
0.59056
0.550177
0.455054
0.486478
0.538895
0.463775
0.498414
0.53487
0.516886
0.185999
0.182
0.160948
0.466289
0.532986
-0.158804
-0.206641
-0.26434
0.0462533
0.0471826
0.0595789
0.73995
0.603914
0.694452
0.216574
0.217238
0.0144123
0.0251301
0.221264
0.221298
0.00758793
0.00752672
0.126539
-1.16878
-0.162805
0.209784
0.200346
0.216799
-0.407691
0.0934512
-0.0012652
0.100453
0.0563346
0.208841
0.157061
0.123507
0.00719792
0.017646
0.0114361
-0.550556
0.214262
0.212639
0.216419
0.217384
0.218113
0.00811223
0.011327
0.00750587
0.00968348
0.0104123
0.00799129
0.183637
0.197242
-0.478732
0.216386
0.218619
0.218399
0.211637
0.217069
0.215175
0.0145699
0.00926335
0.00924569
-0.0578254
0.0564616
0.386452
0.498867
0.335039
0.106841
-0.139093
0.281093
0.35105
0.246363
0.416464
0.379926
0.408371
-0.103478
-0.250441
-0.0970226
-0.153945
0.207315
0.206047
0.198663
0.196887
0.211814
0.209971
0.214403
0.211435
0.214132
0.215513
-0.369977
-0.28566
-0.450399
-0.469088
0.0375315
0.294866
-0.0169462
0.0248794
0.0956576
0.00734917
0.0157294
-0.0108661
-0.0145027
0.0280267
0.0522851
0.0776642
0.0492731
0.0558211
0.0295273
0.0233131
0.0382659
0.0304973
0.203744
0.200425
0.207676
0.214646
0.164451
0.167483
0.139452
0.154685
0.144662
0.0886778
0.121082
0.100229
0.00782951
0.00856109
0.0059001
0.0206522
0.023655
0.0111646
0.00942852
0.0138086
0.0111165
0.00973446
0.0135196
0.016841
-0.512525
-0.600665
0.663596
0.606225
-0.101166
0.20339
0.209815
0.206493
0.211259
0.21448
0.215215
0.213015
0.209787
0.197752
0.200055
0.196153
0.195441
-0.423511
-0.558545
-0.374485
-0.438107
-0.170556
0.322332
0.0680787
0.00965933
0.00519829
0.214049
0.592155
0.405459
0.451303
0.477693
-0.669437
-0.268068
-0.598859
0.0141992
-0.166738
0.384005
0.438399
0.463437
0.407731
0.355162
-0.425715
0.209343
-0.348879
-0.309788
-0.119657
-0.220018
0.430435
0.364054
0.3722
0.397462
0.421272
0.373107
0.353411
0.350987
0.386927
0.391826
0.187198
-0.0247087
-0.0715956
-0.106598
0.351082
0.227633
0.283915
0.202493
0.202013
0.20543
0.204079
0.187708
0.194458
0.190027
0.195035
0.198039
0.207544
0.207154
0.2031
0.20547
-0.199351
-0.149889
-0.432421
-0.498228
-0.49691
-0.528934
-0.467423
-0.645347
-0.610251
-0.15697
-0.00140348
-0.591856
-0.464579
-0.509254
-0.430235
-0.341466
-0.294782
-0.0471034
0.0844276
-0.0634382
0.000567833
0.0361983
0.0483131
0.00386954
-0.00501243
-0.0468789
-0.010814
0.0738862
0.0583626
0.0688249
0.0323519
0.0267238
0.0154437
0.0174591
-0.0554747
-0.071089
-0.0482442
-0.0800956
0.020098
0.0220533
0.0256564
0.032957
0.0350021
0.0388653
0.195727
0.196835
0.195781
0.210248
0.221307
0.236022
0.204802
0.182798
0.175321
0.175554
0.154169
0.16113
0.159276
0.170073
0.187774
0.195051
0.192924
0.195386
0.181768
0.182985
0.170426
0.174341
0.155487
0.138356
0.12797
0.0159415
0.0102892
0.0120564
0.0126557
0.00946917
0.0105499
0.0359773
0.0314903
0.0350209
0.0284211
0.0262467
0.0167101
0.0161953
-0.428575
-0.341474
-0.509583
-0.536209
-0.608548
0.577577
0.701538
0.529853
0.292866
0.325618
0.530626
0.672228
0.26653
0.435551
0.50503
0.198982
0.490508
0.20806
0.20823
0.205905
0.204772
0.205765
-0.329213
-0.227766
-0.217982
-0.163372
-0.0415512
0.0722797
-0.0540691
-0.151989
-0.0163991
-0.00623039
0.317506
0.332507
0.275798
0.302383
0.301498
0.129511
0.20375
0.258099
0.213373
0.255201
0.276856
0.242412
0.269131
0.216933
0.177123
0.176172
0.12534
0.142466
0.120042
0.104457
0.198148
0.178238
0.187702
0.179862
0.199233
0.226867
0.222183
0.244828
0.258829
0.186978
0.149653
0.158524
0.185158
0.148117
0.160049
0.173027
-0.105251
-0.191568
-0.113277
-0.411889
-0.318251
-0.334549
-0.380248
-0.343193
-0.0537095
-0.764434
-0.72776
-1.36536
0.148125
0.623975
0.38108
0.350478
0.417509
0.392516
0.392867
0.428476
0.437104
0.339718
0.358026
0.359469
0.316722
0.342067
0.368089
0.367603
0.190799
0.0774383
0.0633985
0.0348224
-0.0851728
-0.0544924
0.148623
0.0704254
-0.000329314
0.00569385
0.164763
0.0615228
0.122577
0.158439
0.0929074
0.050821
0.240965
0.309824
0.299507
0.274329
0.193278
0.206145
0.229406
0.262755
0.290286
0.324487
0.196273
0.200228
0.201513
0.19985
0.196043
0.199204
0.199591
0.201838
0.202865
0.205374
0.204434
-0.0384052
-0.0573452
-0.112422
-0.0686978
-0.366721
-0.423979
-0.50978
-0.459131
-0.0950658
-0.133415
-0.2769
-0.184603
-0.128377
-0.098901
-0.231491
-0.21601
-0.27606
-0.384103
-0.219525
-0.00454618
0.115921
-0.0257243
-0.289889
-0.172245
-0.0954533
-0.021894
0.0375417
0.0331107
0.00949093
-0.0136317
0.0196904
0.014625
0.0114722
0.01599
0.0142382
0.0146717
0.018994
0.0182834
0.0190684
0.0180097
0.0191219
0.184134
0.17802
0.178409
0.17411
0.173682
0.183904
0.188285
0.189661
0.193991
0.196108
0.187943
0.192192
0.194895
0.0240865
0.0205768
0.0238471
0.017854
0.0183891
0.0175305
0.0166328
-0.156171
-0.233741
-0.162633
-0.314944
-0.436749
-0.39237
0.136424
0.11614
0.147791
0.366576
0.23308
0.128841
0.208482
0.3199
-0.0321546
0.175111
-0.00456814
0.555462
0.435202
0.586508
0.24452
-0.0912016
0.0547376
0.106785
-0.0855213
-0.00742928
0.00392524
-0.104068
-0.0698996
-0.0411647
0.0537789
-0.0609255
-0.088889
-0.344317
-0.177497
-0.0221388
-0.0419291
0.0867832
0.146231
-0.0980029
-0.153987
-0.195765
0.304516
0.326367
0.343509
0.312346
0.336805
0.263286
0.254529
0.27187
0.282388
0.276723
-1.09974
-0.811873
-1.7561
-1.07424
-0.629107
0.175413
0.136753
0.411607
0.311622
0.393091
0.37671
0.341913
0.30634
0.31192
0.348415
0.0610311
0.167452
0.14456
0.14676
0.0542629
-0.00858295
0.275557
0.268589
0.306736
0.330802
0.298324
0.33173
0.192393
0.192155
0.193404
0.189908
0.189555
0.191316
-0.172581
-0.156582
-0.28923
-0.350447
-0.380096
-0.315595
0.0306993
0.0228402
0.0199395
0.0205648
0.0280982
0.0305868
-0.166767
-0.198743
-0.288909
-0.229451
-0.323957
-0.391068
-0.409156
-0.316361
-0.230914
-0.23016
0.114043
0.366693
0.206186
0.36924
0.225679
0.269721
0.149579
0.145702
0.177123
0.0463392
0.115499
-0.132095
-0.628614
-0.540924
0.423299
0.444867
0.230173
0.0363957
-0.187555
0.00726847
0.224818
0.165849
0.206796
0.272206
0.265699
-0.335653
-0.258176
-0.0224455
0.204145
-0.0830607
-0.105628
-0.102033
0.0548048
-0.00863677
)
;

boundaryField
{
    wall-4
    {
        type            zeroGradient;
    }
    velocity-inlet-5
    {
        type            zeroGradient;
    }
    velocity-inlet-6
    {
        type            zeroGradient;
    }
    pressure-outlet-7
    {
        type            fixedValue;
        value           uniform 0;
    }
    wall-8
    {
        type            zeroGradient;
    }
    frontAndBackPlanes
    {
        type            empty;
    }
}


// ************************************************************************* //
