/*--------------------------------*- C++ -*----------------------------------*\
  =========                 |
  \\      /  F ield         | OpenFOAM: The Open Source CFD Toolbox
   \\    /   O peration     | Website:  https://openfoam.org
    \\  /    A nd           | Version:  9
     \\/     M anipulation  |
\*---------------------------------------------------------------------------*/
FoamFile
{
    format      ascii;
    class       volVectorField;
    location    "17";
    object      U;
}
// * * * * * * * * * * * * * * * * * * * * * * * * * * * * * * * * * * * * * //

dimensions      [0 1 -1 0 0 0 0];

internalField   nonuniform List<vector> 
918
(
(0.98516 -0.000504022 0)
(0.005005 2.96625 0)
(-0.00414442 1.62326 0)
(0.979715 0.00212291 0)
(-0.00322201 1.57983 2.04835e-21)
(-0.00703341 2.94879 -1.8875e-18)
(0.850352 1.20606 7.27799e-19)
(0.46278 0.215175 -9.22309e-21)
(0.99991 -0.000305146 0)
(0.00454893 0.889869 0)
(-0.00587056 1.27984 0)
(0.796452 -0.00780761 0)
(0.0110989 2.93039 0)
(0.00134987 2.79473 0)
(-0.0182597 3.16896 1.08185e-18)
(-0.00606995 1.49166 -1.26501e-20)
(0.574291 0.0999476 5.78429e-19)
(0.179712 1.15953 6.44183e-19)
(0.963361 0.00509202 0)
(-0.00451345 1.3974 0)
(0.153421 0.262518 -4.9032e-19)
(1.00184 -0.00502557 0)
(1.00027 -0.00973412 0)
(0.975782 -0.00649195 0)
(0.713467 -0.0294061 0)
(0.018471 2.6302 0)
(-0.0152222 2.91022 6.53697e-19)
(-0.0178044 1.64068 0)
(-0.0171279 1.75098 0)
(-0.0160444 1.63586 0)
(-0.00493096 1.82535 0)
(-0.00263367 1.60184 -1.62064e-21)
(-0.00473463 1.49631 0)
(-0.0206241 2.98758 -6.60858e-23)
(-0.0167036 3.0053 1.46716e-18)
(0.00210269 3.00021 0)
(0.865616 -0.00800466 0)
(0.389594 0.927625 -2.13845e-20)
(0.842715 1.21644 -1.01927e-18)
(0.993715 1.06106 9.59062e-19)
(0.708424 1.30785 -1.69984e-19)
(0.703217 1.2892 9.58612e-19)
(0.488686 0.285785 8.99908e-21)
(0.4794 0.191244 0)
(1.17877 0.570433 0)
(0.461252 0.31013 4.23757e-20)
(0.420948 0.21075 -4.39732e-20)
(0.919826 -0.00727233 0)
(1.00037 9.217e-05 0)
(0.999918 0.000326925 0)
(1.00343 -0.00779235 0)
(1.00096 -0.00106789 0)
(1.00017 -8.28815e-06 0)
(0.0689991 1.62929 -3.00834e-19)
(0.0112691 0.957766 0)
(0.0484795 0.859109 0)
(-0.0346305 1.00994 0)
(-0.0272563 0.95285 0)
(-0.000507235 1.5818 0)
(-0.0135313 1.42291 0)
(-0.0184397 1.24808 0)
(-0.00782883 1.47256 0)
(-0.00530529 1.30179 0)
(0.874126 -0.000380219 0)
(0.884106 0.00983046 0)
(0.809233 -0.00209983 0)
(0.877011 0.014601 0)
(0.781386 -0.00882215 0)
(0.0146989 3.0004 6.91281e-19)
(0.0115191 3.00789 0)
(0.00613368 3.00284 0)
(0.0135369 2.99732 7.71134e-24)
(0.00799571 2.95847 -1.02741e-18)
(0.014497 2.98211 0)
(0.0107956 2.90362 0)
(0.0249433 2.93049 1.38938e-24)
(0.00417321 2.82512 0)
(0.0314871 2.91546 0)
(-0.00635284 2.74351 0)
(0.309738 3.56734 0)
(-0.132653 3.64937 0)
(0.139941 3.25959 -1.00682e-18)
(-0.0112255 2.9927 0)
(-0.0137557 1.80353 0)
(-0.00393296 1.63373 1.24793e-20)
(-0.00494632 1.50453 -2.00598e-20)
(0.631056 0.160738 -1.9931e-19)
(0.583915 0.0570008 -1.94794e-19)
(0.600585 0.194444 -5.99337e-19)
(0.548721 0.125086 -3.98842e-19)
(0.249597 0.931926 0)
(0.270617 1.30482 -6.52811e-19)
(0.363369 1.27938 1.07574e-18)
(0.987893 0.00847711 0)
(0.943341 0.00606378 0)
(1.00031 0.000551767 0)
(1.00288 0.00928472 0)
(1.00297 0.00835756 -1.12582e-18)
(0.99202 0.00977888 8.50011e-19)
(-0.0171262 1.53533 0)
(-0.00756816 1.38229 0)
(-0.0260428 1.64572 0)
(-0.0209056 1.57323 0)
(-0.00353074 1.4331 0)
(0.227209 0.280572 1.50994e-19)
(0.276286 0.259919 0)
(0.993595 -0.00824894 0)
(0.954432 -0.00665847 0)
(0.850132 0.019752 0)
(0.81665 0.0331474 0)
(0.759954 -0.0205816 0)
(1.00983 -0.00574634 0)
(0.761928 0.0502366 0)
(0.627828 -0.0148121 7.76281e-19)
(-0.0355612 2.86577 3.37093e-19)
(0.0435137 2.90752 0)
(0.057028 2.88308 0)
(-0.00574086 2.69612 0)
(-0.0129057 2.98543 6.00907e-19)
(-0.0182986 2.89567 0)
(-0.0153045 2.98816 -1.90078e-18)
(-0.0134429 2.92526 6.56375e-19)
(-0.0151474 1.81374 0)
(-0.0116102 1.80922 0)
(-0.00291577 1.63078 -2.62144e-22)
(-0.00228992 1.60079 0)
(-0.00558948 1.49375 0)
(0.930511 -0.00529799 0)
(0.852502 -0.00728314 0)
(0.860329 0.0094018 0)
(0.945249 -0.00625371 0)
(0.884067 -0.00712691 0)
(0.5038 1.12233 1.63599e-20)
(0.556108 1.17792 0)
(0.347415 0.863494 5.73001e-21)
(0.29133 0.726198 0)
(0.954128 1.09428 -2.76194e-19)
(1.06779 0.897006 5.6335e-19)
(0.424695 1.3814 0)
(0.553599 1.37014 0)
(0.55455 1.31724 0)
(0.0932685 0.134161 -1.26612e-19)
(0.520548 0.265975 0)
(0.505116 0.168053 1.14677e-19)
(1.03753 0.947345 0)
(1.10413 0.790552 0)
(1.13061 0.734878 -4.87674e-19)
(1.15757 0.628479 0)
(1.20875 0.409359 5.94956e-20)
(0.95629 -0.00799075 0)
(0.962074 -0.00940638 0)
(0.902223 -0.00803598 0)
(0.984226 -0.00903863 0)
(0.974833 -0.00944841 0)
(0.936724 -0.00625087 0)
(1.00007 0.00226016 0)
(1.00093 0.00150043 0)
(0.999884 0.000850592 0)
(0.0212497 1.86583 1.83027e-19)
(0.0693159 1.58503 0)
(0.028285 1.85021 2.08137e-19)
(0.0174218 1.60308 -1.55523e-19)
(0.107323 1.16252 -5.34294e-19)
(0.0632634 1.01754 0)
(0.12935 0.984052 0)
(-0.0581777 1.12596 0)
(-0.0412496 1.0779 0)
(0.0137774 1.73711 -9.45582e-22)
(0.00722393 1.59987 0)
(-0.00265376 1.71825 -3.63564e-20)
(-0.00976498 1.56726 7.24027e-20)
(-0.0456736 1.26147 0)
(-0.0295106 1.36073 0)
(-0.0287951 1.17953 0)
(-0.0097709 1.50283 0)
(-0.00639272 1.32015 0)
(0.953588 0.0144567 0)
(0.894626 0.00182217 0)
(0.934484 0.00958511 0)
(0.861851 0.000322752 0)
(0.813328 0.000218428 0)
(0.904838 0.00487348 0)
(0.896524 0.00402008 0)
(0.808374 -0.00437824 0)
(0.00585889 3.06481 -6.08799e-21)
(0.0164685 3.05808 0)
(0.0147436 2.96916 0)
(0.00850986 2.87631 0)
(0.926811 3.98544 0)
(1.24204 3.31389 1.01193e-18)
(0.0715422 3.08501 0)
(-0.0258976 2.9125 0)
(-0.0153999 1.79714 0)
(-0.01619 1.79934 0)
(-0.0144302 1.79802 0)
(-0.00893624 1.81295 5.35871e-21)
(-0.0130019 1.81083 0)
(-0.0112169 1.80934 0)
(-0.00217626 1.51303 1.19106e-21)
(0.000523918 1.66227 2.14285e-20)
(-0.00108481 1.64906 2.05029e-20)
(-0.00185187 1.50428 0)
(0.654633 0.116527 2.92429e-19)
(0.594106 0.0256409 -2.85007e-19)
(0.214617 1.51252 0)
(0.291682 0.701999 -2.28666e-19)
(0.137015 1.62765 -7.54208e-19)
(0.171937 1.18337 7.53713e-19)
(0.903851 0.00873097 0)
(0.968469 0.0114105 0)
(0.975144 0.010608 0)
(0.925687 0.00713735 0)
(-0.0137555 1.51738 0)
(-0.0150835 1.5233 0)
(-0.00751319 1.34686 0)
(0.418527 0.320752 3.8984e-19)
(0.352468 0.301414 -4.75386e-19)
(0.363754 0.234294 0)
(1.12926 0.0829552 -2.42031e-21)
(1.11441 0.0376813 0)
(1.04438 0.0349902 0)
(0.954906 0.0062124 0)
(0.670685 0.0880556 0)
(0.701105 0.0632408 -1.25001e-18)
(0.605536 0.0115157 4.77376e-19)
(0.00994249 2.98236 4.26184e-19)
(-0.032186 2.86815 4.88225e-20)
(0.00381396 3.05016 -1.3144e-20)
(0.0199888 3.04356 4.73078e-19)
(-0.0150398 2.99656 2.18152e-20)
(-0.0129807 2.94945 -8.83345e-23)
(-0.0172677 3.012 -4.13529e-19)
(0.0147626 3.0241 2.98672e-19)
(0.00726277 3.03666 -4.66862e-19)
(0.93007 0.00722936 0)
(0.93023 0.00108403 0)
(0.848664 -0.00275415 0)
(0.956793 0.0129639 0)
(0.942747 0.0131777 0)
(0.882094 0.00815846 0)
(0.914418 0.0103301 0)
(0.924691 0.014322 0)
(0.833245 0.00684647 0)
(0.71322 1.40742 3.15703e-19)
(0.749013 1.51898 0)
(0.219107 0.365959 2.60238e-20)
(0.169294 0.563924 2.08887e-19)
(0.256583 0.680264 -1.22028e-19)
(0.221207 0.566539 2.24953e-19)
(0.287849 0.667217 7.29941e-19)
(0.109369 0.161781 2.13589e-19)
(0.576276 0.221988 4.29106e-19)
(0.547179 0.246499 1.06279e-19)
(0.52898 0.152869 2.15855e-19)
(1.19686 0.465501 2.8631e-19)
(1.21221 0.258181 3.00226e-19)
(0.0338064 1.78982 6.94219e-20)
(0.025512 1.57951 0)
(0.99705 0.026536 0)
(0.965405 0.0172332 0)
(0.918606 -0.000764795 0)
(0.0109153 3.07453 0)
(0.0199298 2.94404 8.12918e-19)
(0.0165744 2.9564 0)
(0.00613626 2.8508 -8.06309e-19)
(0.00607938 3.09127 1.92743e-19)
(0.00747827 3.08274 0)
(0.782935 1.82443 -2.36038e-19)
(1.24885 2.50906 6.47652e-19)
(0.765702 1.96626 -1.48325e-18)
(0.021303 2.98463 -3.12642e-19)
(0.0376794 3.00862 0)
(-0.0316089 2.88307 0)
(-0.00411406 1.68055 -4.36899e-21)
(-0.00176686 1.67426 -4.82145e-20)
(-0.00283739 1.53547 -6.35493e-21)
(0.25031 1.32425 7.14583e-19)
(0.251727 0.462194 -4.95701e-19)
(0.0385099 1.85091 4.88632e-19)
(0.103923 1.76507 -6.35632e-19)
(0.115742 1.41753 1.10223e-19)
(0.00265552 3.11836 -1.14021e-18)
(0.0176728 3.11773 1.21839e-18)
(-0.00859913 2.98125 5.21599e-19)
(-0.00256232 2.97793 -4.62204e-19)
(-0.0214114 2.88255 -5.3123e-19)
(0.00885773 3.09927 -1.41305e-18)
(0.00247335 3.10643 1.37235e-18)
(0.222543 0.589721 0)
(0.152375 0.562738 -3.98999e-19)
(0.134618 0.18673 1.76834e-19)
(0.320797 0.796913 6.54163e-19)
(0.170822 0.208592 -1.0001e-18)
(1.20999 0.170364 -5.24417e-20)
(1.21167 0.310125 0)
(1.19731 0.118413 1.17223e-19)
(0.024174 1.75597 -7.85954e-22)
(0.0469737 1.77079 0)
(0.025744 1.594 0)
(0.29844 1.20094 -2.58385e-19)
(0.34873 1.01608 -5.50692e-19)
(0.190991 0.310559 9.37097e-19)
(1.00585 -0.0110522 0)
(1.00768 -0.00774645 2.05621e-19)
(-0.0156456 1.80139 0)
(-0.0258532 1.80962 0)
(1.00223 0.00356525 1.80551e-21)
(1.00377 0.00948114 4.22488e-19)
(-0.00859123 1.81685 -7.0965e-21)
(-0.00696291 1.81586 0)
(0.0405981 3.18518 1.17091e-19)
(0.399263 3.50459 0)
(1.10479 0.644433 5.76362e-20)
(1.0119 0.0122865 -2.30423e-21)
(1.0212 -0.0103221 0)
(1.00169 0.000127819 -1.76616e-23)
(-0.0434748 1.11083 0)
(-0.0197842 2.64229 0)
(-0.089111 1.66432 0)
(-0.0654309 1.99063 7.57399e-20)
(-0.0525484 1.89347 4.23733e-20)
(1.00442 0.00988642 2.0784e-21)
(1.04492 0.0161652 0)
(1.06982 0.0285124 0)
(-0.0179839 1.80124 0)
(-0.00974475 1.83121 0)
(-0.0260041 1.79106 0)
(0.322939 1.37807 -4.67816e-19)
(1.0112 -0.00960044 0)
(1.00944 -0.015625 0)
(1.00227 0.00045976 2.59559e-19)
(1.00559 -0.00486546 -3.09896e-19)
(1.00116 -0.00103703 0)
(-0.0201968 1.7982 0)
(-0.0182568 1.79668 0)
(-0.0175798 1.7989 0)
(-0.0262211 1.79199 0)
(-0.0241884 1.79082 0)
(-0.0270593 1.79291 0)
(1.02627 -0.0131766 0)
(1.02072 0.019419 -8.37974e-22)
(0.792935 1.26617 5.18596e-19)
(1.00308 0.000261431 -2.62938e-19)
(1.00321 0.00576586 3.14322e-19)
(1.00125 0.00210077 0)
(1.01239 0.0105726 2.55498e-19)
(1.00783 0.00815875 -3.16693e-19)
(1.00881 0.0142619 0)
(-0.0101221 1.83107 0)
(-0.00952365 1.82486 1.15641e-20)
(-0.00844173 1.82359 -8.15334e-21)
(1.18347 0.250578 -4.27419e-20)
(1.12296 0.0848208 0)
(0.0566652 3.07854 -5.29645e-19)
(0.0692253 2.85093 -4.25346e-20)
(0.148783 3.19938 8.13505e-19)
(0.142818 3.22808 -5.0232e-21)
(0.140893 3.24565 0)
(0.0226125 3.13885 1.15269e-19)
(0.0820248 3.16332 5.17112e-19)
(0.0749281 3.19078 -2.22732e-19)
(0.0265674 3.12859 0)
(0.686346 0.326018 0)
(0.626339 0.386211 0)
(1.08139 0.673961 -2.27355e-19)
(1.07652 0.809919 3.59477e-19)
(1.14174 0.561209 0)
(1.17391 0.510993 0)
(1.0155 0.0130381 -4.72626e-19)
(1.01358 0.0141884 5.8959e-19)
(1.02476 -0.0101021 0)
(1.02063 -0.0165265 0)
(1.00664 0.0030504 0)
(1.0102 0.00402812 0)
(1.00449 0.00188331 0)
(1.00952 0.00616466 0)
(1.00779 0.00544022 0)
(1.00532 0.00501779 0)
(-0.0780935 1.13226 0)
(-0.11022 1.10736 0)
(0.0753745 1.11417 0)
(0.118026 1.15682 0)
(0.00990649 2.67224 0)
(0.101343 2.6942 -2.12402e-19)
(-0.0973398 2.63463 0)
(-0.116542 2.55786 1.98926e-20)
(-0.0789467 2.22307 -9.34239e-20)
(-0.0733714 1.67685 0)
(-0.0510074 1.70115 0)
(-0.113686 1.62267 0)
(-0.10012 1.55211 0)
(-0.184155 1.90426 -2.12738e-20)
(-0.0650328 1.91941 4.31678e-20)
(-0.0631636 1.98508 5.31916e-20)
(-0.0520693 1.9565 0)
(-0.0504887 1.89183 -9.42042e-20)
(-0.0338818 1.87415 -4.10032e-20)
(-0.163577 1.88195 1.65219e-20)
(-0.100554 1.88669 -5.75251e-20)
(-0.102817 1.93857 -7.05783e-20)
(1.01233 0.0189828 4.69569e-19)
(1.01195 0.00384979 -5.78236e-19)
(1.00614 0.0199854 -4.88992e-19)
(0.992707 0.0134079 6.16721e-19)
(1.0446 0.0192373 0)
(1.0348 0.00665846 0)
(1.06524 0.0385646 0)
(1.05237 0.0239066 0)
(1.05437 0.0129603 0)
(1.10638 0.0776389 0)
(1.08085 0.0486405 0)
(1.08823 0.0374481 0)
(-0.0120452 1.81889 -1.42523e-21)
(-0.0184403 1.8084 0)
(-0.0141152 1.81175 0)
(-0.00990267 1.83746 1.35861e-20)
(-0.00833219 1.83849 -5.6178e-22)
(-0.0240913 1.80438 1.20173e-20)
(-0.0246414 1.80121 -1.22681e-20)
(-0.0272342 1.79838 0)
(-0.0257949 1.79924 0)
(-0.0253331 1.79932 0)
(-0.0260121 1.78925 0)
(-0.0212581 1.77489 0)
(0.426766 1.43702 8.73275e-19)
(0.398707 1.44967 3.22935e-19)
(0.635 2.40041 -1.63744e-19)
(0.40961 2.5463 4.62236e-19)
(0.461089 2.04575 -5.13518e-20)
(1.02131 -0.00805534 0)
(1.01538 -0.00953396 0)
(1.01595 -0.0151251 0)
(1.00752 -0.000747351 0)
(1.00451 -0.0013585 0)
(1.00735 -0.00471545 0)
(1.00965 -0.00392758 0)
(1.01399 -0.00427773 0)
(1.02248 0.0179302 4.54974e-19)
(1.01625 0.0197914 -5.77367e-19)
(1.02275 0.0194799 -4.55239e-19)
(1.01885 0.0165779 5.68754e-19)
(0.764807 1.30736 0)
(0.693273 1.36295 6.16333e-19)
(0.862662 1.19995 3.53304e-19)
(0.903154 1.16685 -4.69786e-19)
(1.14708 2.61113 -5.06436e-19)
(0.834418 0.110111 3.0173e-19)
(1.12372 0.0969923 0)
(1.16826 0.17077 3.9742e-20)
(1.15987 0.154944 1.78054e-21)
(0.974337 0.123298 0)
(0.152858 2.97013 1.24617e-19)
(0.128859 2.87601 -6.72212e-19)
(0.0429215 2.34843 4.91981e-19)
(0.109863 0.117912 -2.04989e-19)
(0.343247 3.43223 -4.41288e-19)
(0.198879 3.32434 0)
(0.239514 3.36969 5.74699e-19)
(0.256457 3.04406 -7.32425e-19)
(0.351695 3.20258 0)
(0.00673481 3.1208 2.69496e-20)
(0.0173535 3.12977 -3.44999e-19)
(0.0153902 3.12556 5.07788e-19)
(0.0384757 3.14041 0)
(0.0373469 3.15202 0)
(1.20973 2.61274 0)
(0.500581 0.845069 -2.35524e-19)
(1.01502 0.989288 -1.93738e-19)
(0.957319 1.04581 0)
(0.796432 0.952449 4.88087e-20)
(1.03462 0.867893 3.11494e-20)
(0.404437 0.482674 -5.50683e-19)
(0.714545 0.331881 -2.32242e-20)
(0.698632 0.288191 2.28781e-19)
(0.628673 0.422026 1.83438e-20)
(0.571634 0.411293 -7.54042e-19)
(0.698505 0.349576 0)
(0.722354 0.419776 3.82754e-19)
(0.722821 0.413589 0)
(0.671037 0.391726 0)
(0.659514 0.326043 0)
(0.739495 0.595565 1.43791e-19)
(1.18239 0.268488 1.87812e-20)
(1.18096 0.404676 0)
(1.18915 0.359256 0)
(0.760652 0.219943 3.43098e-19)
(0.791939 0.513774 -1.92274e-19)
(0.716406 0.497304 3.13406e-19)
(0.908772 0.400872 -2.98822e-19)
(1.02014 0.0150894 3.10649e-19)
(1.01739 0.014193 -3.20125e-19)
(1.01365 0.0163995 0)
(1.02648 -0.0147523 0)
(1.02519 -0.0154244 -2.86962e-19)
(1.01986 -0.0208486 2.83894e-19)
(1.03259 0.00604955 0)
(1.02645 0.0168977 0)
(1.01121 0.00448962 0)
(1.01496 0.00842125 0)
(1.0159 0.00407959 0)
(1.0134 0.00170842 0)
(-0.175853 1.22846 0)
(-0.173142 1.25103 0)
(0.101846 1.02624 4.76951e-19)
(0.30899 1.35515 2.81255e-19)
(0.218873 1.20524 6.21063e-19)
(0.230911 1.26504 -9.92045e-19)
(0.30048 1.17246 0)
(0.148502 1.89088 6.84102e-19)
(-0.00651028 1.77715 0)
(0.48541 2.13831 7.65355e-20)
(0.40365 2.42526 2.24938e-19)
(0.408245 1.50156 -5.95722e-19)
(0.418384 1.28434 2.56963e-19)
(0.356797 1.16545 -2.05562e-19)
(0.488645 1.30665 4.6607e-19)
(0.463086 1.7288 0)
(0.486439 1.71746 -3.50334e-19)
(-0.313981 2.18401 5.12204e-20)
(-0.128761 2.34169 0)
(-0.267173 2.37675 -1.59052e-19)
(-0.289722 2.29524 0)
(-0.126353 2.51821 -2.3155e-20)
(-0.0988866 2.39548 0)
(-0.178839 1.75679 4.09192e-21)
(-0.242741 1.82613 0)
(-0.217248 1.65626 0)
(-0.183745 1.67865 -4.61625e-21)
(-0.0862534 2.05092 -3.73689e-20)
(-0.0738734 2.1926 1.00281e-19)
(-0.0523502 2.09837 6.25203e-22)
(-0.0992252 1.83649 2.46561e-20)
(-0.1225 1.82853 9.18303e-21)
(-0.0397575 1.72678 0)
(-0.0260403 1.73842 0)
(-0.33596 1.91989 -6.5617e-20)
(-0.291175 1.692 -8.83509e-20)
(-0.273084 1.82138 1.03105e-19)
(-0.383381 1.87425 0)
(-0.0200883 1.82636 -4.97259e-20)
(-0.0195288 1.83713 2.33247e-20)
(-0.0217392 1.83971 -7.1741e-21)
(-0.0794008 1.82458 -2.98628e-20)
(-0.0462578 1.8624 -1.1723e-20)
(-0.0570105 1.87069 6.55061e-20)
(1.02255 0.0135409 -3.05202e-19)
(1.02082 0.00991248 3.09587e-19)
(1.01702 0.00474938 0)
(1.00045 0.0448183 4.44441e-19)
(0.993464 0.0331116 -5.14173e-19)
(0.967653 0.023779 5.9581e-19)
(0.997485 0.07955 -5.8066e-20)
(1.02759 -0.00814508 0)
(1.0337 0.00812031 2.579e-19)
(1.02638 -0.00592877 -2.56157e-19)
(1.04446 0.0392618 -1.44251e-20)
(1.04761 0.0286762 1.27962e-19)
(1.04193 0.0491214 0)
(1.03445 0.040962 -4.76324e-20)
(1.02887 0.0272548 0)
(1.02495 0.0200541 0)
(1.03661 0.00857034 0)
(1.03262 0.0105944 0)
(1.03625 0.0255876 9.88857e-20)
(1.0389 0.0186521 -2.20618e-19)
(1.03735 0.0304024 -1.00348e-19)
(1.03588 0.0297749 -1.15874e-19)
(1.03872 0.0567489 2.10711e-19)
(1.06802 0.0521212 0)
(1.06579 0.0938328 0)
(-0.020169 1.8265 -1.81333e-20)
(-0.0195894 1.81303 -1.58582e-21)
(-0.0211731 1.81434 0)
(-0.0138772 1.8271 1.92972e-20)
(-0.0130842 1.8211 2.95395e-21)
(-0.0131589 1.8254 -3.04311e-21)
(-0.0291002 1.8688 3.44666e-20)
(-0.0236222 1.84906 -2.64186e-21)
(-0.0331916 1.85361 1.27966e-20)
(-0.010878 1.84941 -1.84471e-20)
(-0.0153777 1.85236 2.24142e-20)
(-0.0277629 1.80443 2.82241e-22)
(-0.0267897 1.80809 2.15876e-20)
(0.476807 1.38428 -4.23332e-19)
(0.474471 1.40115 -3.97754e-19)
(0.651413 1.39864 -5.95365e-19)
(0.51381 1.45726 -3.20719e-19)
(0.544911 1.43963 0)
(0.601797 2.38242 1.40287e-19)
(0.697795 2.34476 2.45141e-19)
(0.420598 2.51867 1.06522e-19)
(0.448756 2.58099 -1.44077e-19)
(0.564961 2.51696 3.21381e-19)
(0.530467 2.44379 0)
(0.542939 2.44874 -3.82172e-19)
(0.209051 2.64965 6.14976e-19)
(0.371575 2.59353 -4.84491e-20)
(0.247136 2.67875 -9.75433e-19)
(0.914612 2.36621 2.08991e-19)
(0.821967 2.34291 0)
(1.01078 -3.2227e-05 1.04063e-20)
(1.0151 -0.00508843 -8.34585e-21)
(1.01629 -0.00367474 -1.5099e-19)
(1.01464 -0.000961029 1.53597e-19)
(1.01291 0.000978531 0)
(0.637281 1.25433 0)
(0.641488 1.15361 0)
(0.735564 1.08974 0)
(0.63276 1.11692 0)
(1.17699 2.62957 5.42314e-20)
(1.05865 2.36183 0)
(0.855265 2.26498 -1.97235e-21)
(0.810767 2.49479 0)
(0.906675 2.58517 1.60609e-20)
(0.946673 2.54003 -1.07193e-20)
(0.839504 0.13707 0)
(0.811042 0.143405 8.64747e-20)
(0.920583 0.126831 4.44805e-19)
(0.862552 0.120082 -1.78404e-19)
(0.856427 0.072771 -5.35822e-19)
(1.0255 0.208827 -2.69226e-19)
(0.956083 0.278818 -1.52665e-20)
(0.883856 0.275436 4.05673e-19)
(0.961628 0.202529 3.04602e-19)
(0.933028 0.159102 -5.60498e-19)
(0.908169 0.174571 7.2325e-20)
(0.925158 0.238084 -1.43223e-19)
(0.905362 0.192637 0)
(0.968098 0.159869 2.68637e-19)
(1.00134 0.158724 0)
(1.0006 0.188155 0)
(1.06151 0.103369 9.04931e-20)
(1.02246 0.148084 -1.37189e-20)
(1.01843 0.211459 -4.94248e-20)
(1.05153 0.180465 0)
(1.01697 0.0247491 2.34482e-19)
(1.03021 0.0432556 2.78824e-19)
(1.02576 0.0294459 -2.32844e-19)
(1.02327 0.0476803 -1.87503e-19)
(1.00596 0.0495775 -3.12657e-19)
(0.976432 0.124834 0)
(0.983278 0.0765896 0)
(0.970653 0.0466911 -2.15296e-19)
(0.933903 0.0564701 8.99603e-20)
(1.00532 0.0798484 2.6555e-19)
(1.02572 0.104144 -2.74388e-19)
(1.03074 0.124961 2.49134e-19)
(0.992471 0.122977 0)
(1.03635 0.0929723 0)
(1.02293 0.0789722 -1.14584e-19)
(1.02061 0.0799928 -2.12985e-19)
(0.588881 1.07045 -8.56849e-20)
(0.632562 1.42188 1.85933e-19)
(1.15645 2.75722 8.42865e-20)
(1.21822 3.09545 -6.84542e-20)
(1.24186 2.73002 5.26709e-19)
(1.27395 2.71317 -3.25397e-19)
(1.19886 2.34534 -7.63577e-21)
(1.20476 2.99779 1.81409e-19)
(1.22369 2.96268 -1.93646e-19)
(1.20949 3.24887 -2.64136e-19)
(1.37291 2.97723 3.65738e-19)
(1.36533 2.89427 0)
(0.50023 0.85214 -1.3456e-20)
(0.163862 1.29718 3.6854e-19)
(0.523647 0.54664 3.64537e-19)
(0.355039 0.31814 3.97304e-19)
(0.569505 0.441775 4.20933e-19)
(0.549478 0.504968 -6.68954e-19)
(0.54608 0.525436 5.48374e-19)
(0.519818 0.479886 -2.18875e-19)
(0.485017 0.422096 5.0583e-19)
(0.76826 0.265796 -1.91875e-19)
(0.73697 0.29467 0)
(0.72803 0.247301 1.09404e-20)
(0.711245 0.512785 1.97768e-19)
(0.694076 0.478857 -7.27439e-19)
(0.619109 0.506305 2.01235e-20)
(0.640301 0.47668 0)
(0.626357 0.738112 1.5681e-19)
(0.776716 0.758603 6.53312e-20)
(0.711357 0.847156 -8.49078e-20)
(0.82265 0.790282 -2.32824e-20)
(0.864107 0.833299 1.17805e-20)
(0.872186 0.835445 -1.20627e-20)
(0.782535 0.628393 -2.4416e-19)
(0.866609 0.686458 2.16449e-20)
(0.930892 0.698273 0)
(0.919511 0.672632 -2.40541e-20)
(0.981284 0.313239 6.81193e-20)
(1.08006 0.27768 1.89283e-20)
(1.01064 0.251658 1.10024e-19)
(0.96505 0.342643 -1.54158e-19)
(1.0034 0.401216 0)
(1.05138 0.397035 0)
(0.883949 0.335964 3.20747e-21)
(0.822847 0.278753 0)
(0.833246 0.276602 2.06554e-19)
(0.88084 0.28159 -8.08649e-21)
(0.899572 0.401201 8.17574e-19)
(0.848558 0.458079 2.09734e-19)
(0.860513 0.424511 -2.5979e-19)
(0.805217 0.413415 2.78075e-19)
(0.791756 0.407797 1.88516e-19)
(0.78061 0.399903 -1.8508e-19)
(1.0258 -0.0113083 2.48606e-19)
(1.02064 -0.00562348 0)
(1.01839 -0.00359491 1.6337e-19)
(1.02391 -0.00729868 -3.68702e-19)
(1.02591 -0.000151168 1.78741e-19)
(1.02217 0.0112019 -3.77749e-19)
(1.02338 0.0127718 0)
(1.02217 0.0117894 -7.94629e-20)
(1.01683 0.00609398 1.9702e-19)
(1.01616 0.00969649 -1.00564e-19)
(1.01904 0.00938794 7.45187e-20)
(-0.161608 1.51238 0)
(-0.254226 1.6155 0)
(-0.199993 1.36974 0)
(-0.138888 1.40949 0)
(-0.318877 1.49909 -7.47021e-19)
(-0.199758 1.31585 2.42797e-19)
(-0.158489 1.7841 2.47105e-19)
(-0.187247 1.52287 -2.58805e-19)
(-0.337618 1.68799 1.60064e-19)
(-0.347693 1.67175 -1.23123e-19)
(-0.311635 1.46962 1.03882e-19)
(-0.304773 1.47711 3.0846e-19)
(-0.278047 1.50086 3.08864e-20)
(-0.29596 1.5806 1.78693e-20)
(-0.257246 2.42571 1.7482e-19)
(-0.185626 2.52616 0)
(-0.147282 2.33759 -7.6498e-20)
(-0.223885 1.94352 -1.64234e-19)
(0.406158 2.17778 9.51949e-20)
(0.232151 2.58492 0)
(0.246621 2.51354 -8.99993e-20)
(0.407827 2.48518 6.26099e-20)
(0.219454 2.24434 2.47612e-19)
(0.0704892 2.33909 -1.30743e-19)
(0.00640637 2.59544 0)
(-0.287851 2.00253 4.40758e-20)
(-0.191022 2.00598 -8.91558e-20)
(-0.221182 1.9546 0)
(-0.211107 2.13201 -3.14516e-21)
(-0.299712 2.13213 -1.40803e-20)
(-0.114684 1.74534 3.15598e-21)
(-0.0761559 1.75525 -4.10451e-20)
(-0.0720782 1.77547 1.1364e-20)
(-0.115694 1.77833 1.3989e-20)
(-0.154972 1.76964 0)
(-0.0575785 1.7766 0)
(-0.0246425 1.7757 2.13628e-20)
(-0.0349005 1.78972 -6.6346e-21)
(-0.0418224 1.78304 0)
(-0.0264875 1.7585 1.54271e-20)
(-0.0194594 1.75928 -3.13875e-20)
(1.03439 0.0119419 0)
(1.04035 0.0143513 -2.45574e-20)
(1.04218 0.0193358 -1.75734e-19)
(1.04037 0.0203506 0)
(1.0402 0.0218091 0)
(1.04379 0.00885668 -5.85649e-21)
(1.0408 0.00720811 2.96707e-19)
(1.04026 0.011328 3.54975e-19)
(1.03405 0.0119665 0)
(1.02945 0.00895643 0)
(1.03782 0.0173062 1.79366e-19)
(1.02871 0.0111826 0)
(1.02942 0.00986885 0)
(-0.03436 1.82984 0)
(-0.0294767 1.8081 2.55451e-21)
(-0.0287021 1.82277 1.20792e-20)
(-0.0307152 1.79357 0)
(-0.0322379 1.80803 1.3265e-20)
(-0.0296447 1.80366 -7.44302e-21)
(-0.0314497 1.79787 0)
(0.366427 1.69691 0)
(0.440234 1.35978 6.13649e-19)
(0.409931 1.37902 0)
(0.45161 1.35414 -8.16397e-19)
(0.494865 1.41196 0)
(0.484686 1.40645 3.82688e-19)
(1.02081 2.71461 -3.95895e-21)
(0.93452 2.40884 -2.63761e-19)
(0.867491 2.14336 3.31946e-19)
(0.830868 2.33971 1.19431e-19)
(0.83135 2.52439 0)
(0.8958 2.5252 0)
(0.897636 2.35584 0)
(0.880201 2.32259 -4.42889e-19)
(0.683195 2.4934 -6.29306e-20)
(0.79199 2.50215 -2.2894e-20)
(0.792117 2.47149 1.77305e-20)
(0.686525 2.33898 0)
(0.786421 2.33772 0)
(0.751222 2.34319 -2.30685e-19)
(0.746684 2.49083 0)
(0.592129 1.08018 0)
(0.468913 0.924689 -2.05842e-20)
(0.516577 0.956913 -2.39065e-21)
(0.512272 1.05096 0)
(0.503875 1.00475 3.47211e-20)
(0.732758 0.874506 1.03459e-20)
(0.761515 1.00827 0)
(0.730213 0.965795 -5.50671e-20)
(0.595995 1.02208 0)
(0.609059 0.937939 0)
(1.15913 2.77648 4.25956e-20)
(1.13927 2.84132 1.16141e-19)
(0.946765 2.37277 -2.67316e-19)
(0.916855 2.34427 3.42617e-20)
(1.12208 2.7497 0)
(1.07053 2.72302 -4.0592e-20)
(1.0743 2.49057 -8.34957e-20)
(0.963055 2.22031 -2.97752e-20)
(0.493605 1.37996 0)
(0.501183 1.0515 7.5522e-20)
(0.558121 1.12988 0)
(0.852435 0.213859 0)
(0.815976 0.15911 0)
(0.776089 0.172526 0)
(0.835759 0.226227 -3.24637e-19)
(0.784611 0.231127 2.01287e-19)
(0.936882 0.052787 -1.83794e-19)
(0.942719 0.100108 0)
(0.925635 0.107759 8.33511e-20)
(0.889985 0.0813752 3.41489e-19)
(0.884861 0.0516084 -2.10391e-19)
(1.16077 3.37451 -9.75997e-19)
(1.20595 3.2944 0)
(1.16223 3.40179 -1.93545e-18)
(0.649106 3.5638 1.65826e-18)
(0.872606 3.13099 3.83895e-19)
(0.483581 0.874257 2.19962e-19)
(0.414509 0.86163 0)
(0.348321 0.561735 -8.30525e-20)
(0.414793 0.691452 3.81528e-19)
(0.521606 0.540771 -1.14291e-19)
(0.503856 0.5656 1.28351e-19)
(0.630217 0.555581 2.75796e-19)
(0.65136 0.558776 0)
(0.602627 0.633733 0)
(0.565187 0.570501 0)
(0.916755 0.578016 -4.55705e-20)
(0.848003 0.512368 -2.02992e-19)
(0.868793 0.547457 1.04246e-19)
(0.914051 0.483082 -1.47984e-19)
(1.006 0.465507 0)
(1.02661 0.542423 -1.05617e-20)
(0.835941 0.368146 -4.12683e-19)
(0.83778 0.354336 -4.78985e-19)
(0.802024 0.367567 3.24577e-19)
(0.780304 0.346092 -3.65437e-19)
(0.82597 0.300084 -2.72294e-19)
(0.783903 0.302251 3.34759e-19)
(1.03185 -0.000286104 -1.89087e-19)
(1.03424 -0.00125048 3.86e-19)
(1.02833 -0.010431 2.36464e-19)
(1.03261 -0.0109242 -2.84295e-19)
(1.03756 0.0032876 0)
(1.0375 0.00527291 -4.66521e-19)
(-0.417014 1.95956 7.79393e-22)
(-0.381143 1.85649 0)
(-0.385781 1.94845 -6.48941e-19)
(-0.327333 1.93131 6.25267e-19)
(-0.291963 1.77311 -4.63671e-19)
(-0.377022 1.80817 0)
(-0.0702236 1.82409 0)
(-0.0545055 1.79434 -7.04754e-21)
(-0.0419985 1.7962 6.40447e-21)
(-0.0382879 1.80737 2.91077e-21)
(-0.0471619 1.83068 -1.40759e-20)
(-0.0535727 1.83052 9.54787e-21)
(0.477113 1.40793 3.64973e-19)
(0.4401 1.41332 -3.92107e-19)
(0.451989 1.32161 4.115e-19)
(0.408056 1.34878 -2.14571e-20)
(0.629173 1.28572 0)
(0.548263 1.39283 5.25145e-19)
(0.580321 1.35848 -5.1033e-19)
(0.471759 1.29306 -3.92039e-19)
(0.496646 1.24019 0)
(0.548467 1.17326 0)
(0.64705 2.45125 9.11591e-20)
(0.67296 2.45596 6.36842e-19)
(0.707707 2.46818 -4.31571e-19)
(0.649234 2.44523 -1.28568e-19)
(0.586902 2.56843 1.36785e-19)
(0.577482 2.54371 -3.85856e-19)
(0.949348 2.3705 -1.79399e-19)
(0.994881 2.39404 0)
(0.884631 2.12991 -2.47662e-19)
(1.03964 2.7066 0)
(1.03885 2.69752 0)
(0.613106 2.30146 2.36725e-19)
(1.04036 3.17939 4.75701e-19)
(0.912083 3.05168 -4.26927e-19)
(0.294262 0.980396 0)
(0.342381 0.847293 -1.48995e-19)
(0.477904 0.790356 -6.82758e-20)
(0.404825 2.06229 0)
(0.475014 2.80062 -2.67409e-19)
(0.433438 2.56843 0)
(0.634151 0.68629 -3.25463e-19)
(0.710227 0.666619 4.2313e-19)
(0.731153 0.61074 -4.15056e-19)
(0.617824 0.64795 -4.82585e-20)
(0.677237 0.605639 -1.98242e-19)
(0.999045 2.78996 -3.61626e-19)
(1.03661 2.84259 2.71081e-19)
(0.646599 2.19693 7.27107e-20)
(0.594297 1.73953 -8.27831e-20)
(0.700539 1.92391 7.20177e-20)
(0.983518 2.47522 -7.64522e-20)
(0.988097 2.46416 -1.37645e-19)
(0.660699 1.88178 -3.71752e-21)
(0.446142 1.34883 -5.79919e-20)
)
;

boundaryField
{
    wall-4
    {
        type            noSlip;
    }
    velocity-inlet-5
    {
        type            fixedValue;
        value           uniform (1 0 0);
    }
    velocity-inlet-6
    {
        type            fixedValue;
        value           uniform (0 3 0);
    }
    pressure-outlet-7
    {
        type            zeroGradient;
    }
    wall-8
    {
        type            noSlip;
    }
    frontAndBackPlanes
    {
        type            empty;
    }
}


// ************************************************************************* //
