/*--------------------------------*- C++ -*----------------------------------*\
  =========                 |
  \\      /  F ield         | OpenFOAM: The Open Source CFD Toolbox
   \\    /   O peration     | Website:  https://openfoam.org
    \\  /    A nd           | Version:  9
     \\/     M anipulation  |
\*---------------------------------------------------------------------------*/
FoamFile
{
    format      ascii;
    class       volScalarField;
    location    "0.3";
    object      p;
}
// * * * * * * * * * * * * * * * * * * * * * * * * * * * * * * * * * * * * * //

dimensions      [0 2 -2 0 0 0 0];

internalField   nonuniform List<scalar> 
400
(
3.91843e-06
-0.00582231
-0.0129589
-0.0184102
-0.0204271
-0.0182331
-0.0117688
-0.0014794
0.0118405
0.0271511
0.043245
0.0588224
0.072577
0.0833062
0.0900504
0.0922649
0.0900246
0.0842438
0.0768818
0.0710691
0.00578175
-0.0002164
-0.00580134
-0.00953934
-0.0105953
-0.0084289
-0.00296622
0.00547741
0.0163055
0.0287134
0.0417507
0.0543861
0.065586
0.0744091
0.0801194
0.0823153
0.0810774
0.0770558
0.071276
0.0653206
0.0133347
0.00503438
-0.000993691
-0.00442091
-0.00527039
-0.00326122
0.00160508
0.00903014
0.0185042
0.029351
0.0407666
0.0518704
0.0617689
0.0696366
0.0748073
0.0768787
0.0758428
0.0720878
0.0658083
0.0575393
0.0201377
0.00869574
0.00122673
-0.00266699
-0.00372019
-0.00188319
0.00273347
0.00978674
0.0187824
0.0290968
0.0399934
0.0506552
0.0602339
0.0679169
0.0730042
0.0750028
0.0737677
0.0694587
0.0616066
0.0501075
0.0244996
0.00977236
0.000590174
-0.00398576
-0.00530059
-0.00350543
0.00117677
0.00833664
0.017464
0.027951
0.0390868
0.0500716
0.0600504
0.0681666
0.073628
0.0757997
0.0743715
0.069293
0.0595299
0.044543
0.0251755
0.00714926
-0.0038017
-0.00905614
-0.0105105
-0.00849798
-0.00335458
0.00443178
0.0143157
0.0256814
0.0378161
0.0499055
0.0610502
0.0703052
0.0767368
0.0795193
0.0781419
0.0723373
0.0605441
0.0418965
0.0210916
-0.000262672
-0.0129338
-0.018708
-0.0200279
-0.0174116
-0.0113157
-0.00231679
0.00899344
0.0219792
0.0359126
0.0499473
0.063115
0.074348
0.0825247
0.0865725
0.0857241
0.0794511
0.0656254
0.0430783
0.0111421
-0.0136176
-0.0278737
-0.0338523
-0.0346011
-0.0308546
-0.0232096
-0.0123416
0.00110867
0.0164878
0.0330564
0.0499373
0.066087
0.0802934
0.0912041
0.0974335
0.097874
0.0916403
0.0759013
0.0491228
-0.0059662
-0.0342647
-0.0498677
-0.0555458
-0.0550869
-0.049511
-0.0395895
-0.0261089
-0.00975242
0.00882781
0.0289058
0.0495981
0.0698019
0.0881588
0.103052
0.112705
0.115555
0.110196
0.0928391
0.0614172
-0.0318541
-0.0638729
-0.0804135
-0.0850034
-0.082416
-0.0740739
-0.0609761
-0.0440314
-0.023946
-0.00133119
0.0231513
0.0486665
0.0741008
0.0979772
0.118401
0.13313
0.139993
0.136822
0.118445
0.0819387
-0.0686621
-0.104599
-0.12134
-0.123585
-0.117511
-0.105121
-0.0877127
-0.0663196
-0.0416307
-0.0141491
0.0156121
0.0469595
0.0788617
0.109799
0.137629
0.15959
0.172731
0.173782
0.155525
0.113575
-0.119395
-0.159351
-0.174909
-0.172752
-0.161142
-0.142923
-0.119753
-0.0927705
-0.0625706
-0.0294406
0.00638024
0.0444804
0.0840617
0.123709
0.161142
0.193091
0.215673
0.224081
0.208054
0.160635
-0.188619
-0.232235
-0.243932
-0.233942
-0.213688
-0.187148
-0.156366
-0.122494
-0.0858907
-0.0464647
-0.00400692
0.0415462
0.0898491
0.139836
0.189325
0.234694
0.271079
0.291668
0.281746
0.229778
-0.283965
-0.329297
-0.331825
-0.308274
-0.274703
-0.236434
-0.195758
-0.153603
-0.109833
-0.0637375
-0.0144301
0.038871
0.0965614
0.158283
0.22238
0.285293
0.341401
0.381579
0.384917
0.331835
-0.419309
-0.459663
-0.442344
-0.395786
-0.342123
-0.287734
-0.23461
-0.182923
-0.131602
-0.0789773
-0.0232061
0.037483
0.10456
0.178844
0.259867
0.344975
0.42862
0.499703
0.529677
0.485392
-0.620522
-0.636736
-0.578671
-0.494188
-0.411236
-0.335653
-0.267775
-0.205971
-0.147529
-0.0893754
-0.0284182
0.038356
0.113814
0.200478
0.299981
0.41203
0.533034
0.651778
0.732774
0.722396
-0.935916
-0.878508
-0.741736
-0.597944
-0.474389
-0.372655
-0.288864
-0.217757
-0.153947
-0.0924567
-0.0287097
0.0417033
0.123271
0.220725
0.338932
0.482159
0.652001
0.841345
1.01527
1.0975
-1.47642
-1.20663
-0.920499
-0.691385
-0.517302
-0.387541
-0.290057
-0.213333
-0.148118
-0.0872089
-0.0245704
0.0454649
0.128945
0.233078
0.367109
0.542683
0.771297
1.05932
1.40329
1.73014
-2.53964
-1.63054
-1.04444
-0.710957
-0.495749
-0.352092
-0.254528
-0.18358
-0.126164
-0.0735892
-0.0192621
0.0427944
0.11922
0.21879
0.354819
0.547989
0.826398
1.23658
1.91168
2.92419
-4.36666
-2.04463
-0.973541
-0.56318
-0.357847
-0.240147
-0.170119
-0.123781
-0.0874777
-0.0535049
-0.0166476
0.0276686
0.084616
0.161738
0.272419
0.442106
0.718225
1.22571
2.41104
4.84853
)
;

boundaryField
{
    movingWall
    {
        type            zeroGradient;
    }
    fixedWalls
    {
        type            zeroGradient;
    }
    frontAndBack
    {
        type            empty;
    }
}


// ************************************************************************* //
