/*--------------------------------*- C++ -*----------------------------------*\
  =========                 |
  \\      /  F ield         | OpenFOAM: The Open Source CFD Toolbox
   \\    /   O peration     | Website:  https://openfoam.org
    \\  /    A nd           | Version:  9
     \\/     M anipulation  |
\*---------------------------------------------------------------------------*/
FoamFile
{
    format      ascii;
    class       volScalarField;
    location    "46";
    object      p;
}
// * * * * * * * * * * * * * * * * * * * * * * * * * * * * * * * * * * * * * //

dimensions      [0 2 -2 0 0 0 0];

internalField   nonuniform List<scalar> 
918
(
0.564793
1.20984
0.00354152
0.564173
-0.0081238
1.17689
-0.491605
0.711083
0.544953
-0.0888229
-0.0199961
0.541566
1.03737
0.803517
-1.11474
-0.00466583
0.665386
-0.37052
0.544012
-0.0329036
0.744643
0.551528
0.554557
0.545141
0.610738
0.782058
0.918175
0.0194884
0.00666142
0.00310137
-0.0131617
-0.0341769
-0.0279316
1.06055
1.11162
1.1343
0.513062
0.341483
-0.358375
-0.425444
-0.417935
-0.535175
0.705346
0.704433
-0.18177
0.713931
0.719818
0.532088
0.544318
0.545227
0.546287
0.545247
0.546639
0.421122
-0.0913427
-0.123819
-0.068013
-0.0599783
0.0744052
-0.0214237
-0.0235403
-0.0192525
-0.0187225
0.463171
0.536924
0.533998
0.546807
0.555969
1.14939
1.12132
1.14746
1.06107
1.07761
1.01536
0.987995
0.824168
0.84571
0.788399
0.7772
-1.55103
-2.51069
-0.520458
-0.267462
-0.0152243
0.00343133
0.0124637
0.659154
0.658747
0.667259
0.67585
1.09253
-0.36924
-0.473572
0.544143
0.542943
0.551314
0.55201
0.548025
0.547118
-0.0298205
-0.027913
-0.0295001
-0.0329196
-0.0313222
0.733671
0.731557
0.545678
0.542692
0.562668
0.583617
0.575401
0.290784
0.614001
0.627482
0.608401
0.774083
0.767269
0.776475
0.891671
0.855015
0.955501
0.978657
0.0167508
0.00092851
-0.0119469
-0.0147318
-0.0126312
0.508958
0.501608
0.528274
0.516443
0.518905
0.257266
0.122456
0.427176
0.452345
-0.273414
-0.334068
-0.41974
-0.445556
-0.55693
0.614154
0.696035
0.693735
-0.197649
-0.123967
-0.253663
-0.0505898
-0.111507
0.522437
0.529387
0.524421
0.539881
0.534368
0.536323
0.548575
0.545653
0.547209
0.48353
0.607201
0.347706
0.313499
-0.230521
-0.141917
-0.232713
-0.0472823
-0.0416646
0.0883808
0.114045
0.0614869
0.0502175
-0.0353626
-0.0277777
-0.0319265
-0.0179656
-0.0224816
0.456066
0.445129
0.475678
0.483088
0.526582
0.527812
0.531323
0.529697
0.93883
0.961072
0.96868
0.942563
-3.50906
-6.30736
0.0605746
0.198494
-0.00514272
-0.0100288
0.00467205
-0.00866656
-0.00202738
-0.00360275
0.0110422
0.00811724
0.0128505
0.0149116
0.649916
0.649995
1.01201
1.01427
0.991596
0.942665
0.532271
0.534373
0.539908
0.535773
-0.0223089
-0.0261047
-0.0249328
0.721604
0.728125
0.726125
0.253195
0.165398
0.340757
0.369133
0.642353
0.63085
0.640693
0.668575
0.70496
0.986033
1.00428
1.00255
1.01102
1.05512
1.07159
1.03682
0.488776
0.498553
0.493617
0.531445
0.529175
0.530098
0.525684
0.527133
0.524971
-0.0292052
-0.41212
0.501773
0.520093
0.501588
0.506959
0.693556
0.770723
0.677481
0.686611
0.684433
0.0166744
-0.0410054
0.269708
0.236
0.396816
0.432554
0.41187
0.909876
0.870551
0.920548
0.893884
0.855396
0.880858
-0.363692
-1.87346
-0.987046
0.550978
0.363616
0.451248
0.0322691
0.0133396
0.0201869
1.00722
1.08363
0.663053
0.833258
0.839241
0.743399
0.77369
0.828055
0.754305
0.78851
0.823111
0.804658
0.571156
0.514362
0.525986
0.840409
0.896873
0.137252
0.0790142
0.0348354
0.13287
0.189219
0.164038
1.04538
0.952488
1.02425
0.542444
0.543149
0.00336334
-0.00473712
0.547336
0.547385
-0.0121699
0.00116143
0.434783
-0.823724
0.120605
0.535849
0.525963
0.542965
-0.0711092
0.375243
-0.0209112
0.0712689
0.011942
0.539243
0.473969
0.433936
0.005461
-0.0111064
-0.0276059
-0.200642
0.540116
0.538423
0.542436
0.543402
0.544068
-0.0117904
-0.00523604
-0.00549979
-0.028441
-0.0253176
-0.0327076
0.507283
0.525392
-0.155965
0.542578
0.544702
0.544527
0.537734
0.543389
0.541622
-0.00421379
-0.0109921
-0.0145512
0.236191
0.362982
0.678545
0.769079
0.648417
0.421851
0.184451
0.579383
0.644132
0.54805
0.70391
0.691486
0.707999
0.185987
0.0362042
0.194152
0.136016
0.533707
0.532395
0.524219
0.521242
0.537833
0.535941
0.540499
0.537492
0.540442
0.541835
-0.0295688
-0.0539052
-0.0670764
-0.133291
0.3311
0.591715
0.272058
0.30248
0.162851
-0.0168714
-0.0163594
-0.0197872
-0.0266117
0.0242634
-0.00297273
0.0652379
0.065475
0.0351691
0.00845602
0.0160335
0.00295267
0.0077851
0.532453
0.530846
0.537198
0.546158
0.483408
0.487152
0.45268
0.473064
0.458522
0.398743
0.433168
0.408666
-0.000382522
0.00913582
0.000811544
-0.00560926
0.000224103
-0.0198674
-0.0165684
-0.016944
-0.0115402
-0.0162853
-0.0225947
-0.0254989
-0.160356
-0.274678
0.998201
0.928281
0.139251
0.529298
0.535726
0.532505
0.537348
0.540472
0.541307
0.539043
0.535605
0.525853
0.527509
0.524122
0.524833
-0.0904391
-0.227579
-0.0571705
-0.128553
0.151387
0.633281
0.374777
0.312584
0.307117
0.532997
0.940532
0.730266
0.711203
0.728849
-0.329977
0.064732
-0.264075
0.35558
0.178238
0.676055
0.726185
0.748989
0.695979
0.648228
-0.0986017
0.564984
-0.0531154
-0.00360557
0.195626
0.0780258
0.711027
0.675091
0.679176
0.697518
0.715412
0.681467
0.664468
0.659055
0.693148
0.696816
0.506396
0.267382
0.220368
0.181753
0.658405
0.543445
0.59855
0.511226
0.528775
0.531477
0.530079
0.51203
0.519519
0.515115
0.521324
0.524681
0.533548
0.533946
0.529298
0.531459
-0.0341592
-0.0370598
-0.0121752
-0.122123
-0.112349
-0.172911
-0.0486571
0.0900871
0.0533558
0.247438
0.353349
0.0658364
-0.0472207
-0.0186477
0.0178106
0.191835
0.217469
0.095339
0.182664
0.171499
0.155159
0.256662
0.261768
-0.00349781
-0.00755945
-0.00961857
-0.0122141
0.0417896
0.112345
0.122291
0.0166537
0.0119068
-0.0123664
-0.0139659
9.21521e-05
-0.0049317
-0.00148691
0.0344957
-0.0407626
-0.00729063
0.00771328
0.018475
0.0152595
0.0103713
0.524949
0.527173
0.526842
0.534465
0.552436
0.568539
0.525566
0.505289
0.496215
0.499202
0.472641
0.482805
0.478642
0.492052
0.512769
0.521937
0.519488
0.522181
0.504928
0.506587
0.493499
0.497102
0.47252
0.453626
0.442105
-0.0321389
0.00524047
-0.000649782
-0.0299079
-0.000274231
-0.0128984
0.00724109
0.0232119
0.00978609
0.00617583
-0.00284137
-0.0139719
-0.0117468
-0.0640243
0.0198504
-0.172766
-0.208789
-0.278463
0.900822
1.0227
0.823605
0.598032
0.613333
0.855028
0.941409
0.560671
0.747714
0.771795
0.588992
0.85546
0.534108
0.533721
0.531319
0.530797
0.532019
0.000126801
0.102862
0.108297
0.166265
0.282968
0.396222
0.319368
0.194988
0.327349
0.331089
0.626193
0.639561
0.594626
0.617838
0.618405
0.438222
0.514155
0.567232
0.523584
0.57379
0.594715
0.551841
0.583455
0.533502
0.488778
0.485275
0.434688
0.455459
0.432287
0.414274
0.524053
0.501522
0.512004
0.502217
0.5218
0.546023
0.542788
0.575138
0.586154
0.506348
0.462797
0.472559
0.502625
0.463032
0.477727
0.493763
0.23501
0.135064
0.219619
-0.0690847
0.008122
-0.0064009
-0.0537994
-0.00629122
0.279023
-0.415967
-0.390945
-1.02214
0.506247
0.970807
0.662144
0.635477
0.712381
0.693308
0.698308
0.718065
0.722416
0.648965
0.665818
0.668862
0.630777
0.653961
0.676014
0.672951
0.535012
0.401663
0.39681
0.349599
0.220925
0.257851
0.459064
0.38102
0.306043
0.307432
0.472434
0.359136
0.42816
0.465211
0.396613
0.350499
0.555204
0.620031
0.610472
0.585134
0.502721
0.517073
0.541239
0.576924
0.603304
0.63462
0.520965
0.526783
0.528035
0.52555
0.522773
0.525754
0.525913
0.528444
0.529198
0.532145
0.531163
-0.0217422
-0.0102762
-0.023868
-0.0307959
-0.000754377
-0.00520616
0.0388086
0.0249373
0.0101531
0.0165827
-0.0102496
-0.0146548
-0.00933275
-5.07605e-05
0.116595
0.129643
0.113318
0.0738314
0.261005
0.391759
0.463122
0.34062
0.233795
0.257692
0.27977
0.00956153
0.0363602
0.0233753
0.0626705
0.0544217
-0.0106253
-0.0150222
-0.0138805
-0.00701796
0.00381033
-0.0155474
-0.0217315
-0.011556
-0.0163229
-0.0186033
-0.0239658
0.5075
0.501053
0.50259
0.496605
0.495342
0.509391
0.513627
0.515543
0.52091
0.523042
0.513403
0.518959
0.522632
0.00543065
-0.0195346
-0.0232268
-0.00749449
-0.0140734
-0.0131792
-0.0119836
0.128267
0.0574318
0.0618922
0.0165326
-0.112116
-0.0544754
0.494235
0.493303
0.488086
0.72388
0.57403
0.493649
0.59016
0.695365
0.278992
0.47782
0.310961
0.894438
0.788055
0.934589
0.548374
0.248212
0.407202
0.456631
0.264497
0.337307
0.336969
0.223913
0.256338
0.290244
0.392138
0.270031
0.245267
0.00252296
0.190887
0.306762
0.287813
0.415915
0.478282
0.266759
0.188026
0.142421
0.616345
0.634024
0.649675
0.623494
0.64518
0.584494
0.572702
0.590912
0.60078
0.596437
-0.749482
-0.456325
-1.40135
-0.717414
-0.265324
0.537376
0.502321
0.777586
0.659128
0.716348
0.700537
0.657389
0.624385
0.641307
0.670396
0.363589
0.475333
0.449989
0.45502
0.355977
0.287502
0.589379
0.583462
0.618578
0.642012
0.61068
0.642207
0.518721
0.518391
0.517968
0.51428
0.512565
0.514847
0.0776933
0.0469532
0.0814118
0.062333
0.0398322
0.0284482
0.0136326
0.0039531
-0.00490607
-0.00621817
0.00872497
0.01434
0.171884
0.112306
0.0340817
0.0633917
0.00389214
-0.0633196
-0.0811129
0.019843
0.113859
0.104271
0.410435
0.662337
0.482529
0.650702
0.490882
0.546621
0.478092
0.470594
0.497377
0.385188
0.464522
0.242397
-0.264723
-0.172647
0.794332
0.810034
0.592769
0.410927
0.179737
0.364532
0.557537
0.490789
0.528707
0.598171
0.588231
0.0235789
0.0867101
0.357666
0.584974
0.241384
0.233184
0.227271
0.405494
0.326919
)
;

boundaryField
{
    wall-4
    {
        type            zeroGradient;
    }
    velocity-inlet-5
    {
        type            zeroGradient;
    }
    velocity-inlet-6
    {
        type            zeroGradient;
    }
    pressure-outlet-7
    {
        type            fixedValue;
        value           uniform 0;
    }
    wall-8
    {
        type            zeroGradient;
    }
    frontAndBackPlanes
    {
        type            empty;
    }
}


// ************************************************************************* //
