/*--------------------------------*- C++ -*----------------------------------*\
  =========                 |
  \\      /  F ield         | OpenFOAM: The Open Source CFD Toolbox
   \\    /   O peration     | Website:  https://openfoam.org
    \\  /    A nd           | Version:  9
     \\/     M anipulation  |
\*---------------------------------------------------------------------------*/
FoamFile
{
    format      ascii;
    class       surfaceScalarField;
    location    "46";
    object      phi;
}
// * * * * * * * * * * * * * * * * * * * * * * * * * * * * * * * * * * * * * //

dimensions      [0 3 -1 0 0 0 0];

internalField   nonuniform List<scalar> 
1300
(
3.75095
5.62643
-3.21439
3.75095
-7.70115
5.62643
-4.35592
4.35592
-0.728942
0.728942
1.8764
1.87455
-2.8427
2.8427
-2.31997
2.31997
-2.54594
2.54594
-5.24647
5.24647
-5.06917
5.06917
4.66272
-4.66272
-6.27728
6.27728
-1.07289
1.07289
-3.74943
3.74943
3.16972
-3.16972
-2.19705
2.19705
-0.153208
0.153208
-0.5535
4.30445
3.19745
3.19745
-2.01143
2.01143
-4.86621
4.86621
6.21809
-6.21809
5.20831
-5.20831
-1.99392
-2.3771
1.79319
-11.5834
-5.90796
-5.90796
-8.44038
8.44038
-2.81395
2.81248
2.94486
-2.94486
-1.78315
1.78315
-4.29286
-0.0630609
-4.29286
4.35012
0.00579738
4.35012
-0.810623
0.0816806
-0.810623
3.90813
-3.90813
0.613908
0.115035
0.613908
3.06509
-3.06509
-1.8771
3.75351
1.87385
-1.87187
6.17633
-1.87908
3.75363
-5.9918
5.9918
-3.06715
0.224449
-3.06715
2.65889
0.183802
2.65889
-6.82337
6.82337
-2.36912
0.0491578
-2.36912
2.28357
0.0363954
2.28357
2.87427
-2.87427
-2.65195
0.106007
-2.65195
2.43144
0.114504
2.43144
0.353523
5.27291
-5.97995
8.79244
-5.27291
0.0264355
5.20836
0.038111
5.20836
-5.10609
0.0369223
-5.10609
5.01176
0.0574062
5.01176
4.75236
-0.0896436
4.75236
-4.77861
0.115886
-4.77861
-3.41104
-4.06915
-6.43494
0.157661
-6.43494
-1.11254
0.0396457
-1.11254
1.01394
0.0589495
1.01394
-3.65392
3.65392
-4.14131
0.391877
-4.14131
3.12413
0.0455843
3.12413
1.8685
1.88245
5.61945
-5.61945
2.44974
-2.18106
-0.015995
-2.18106
-2.22534
-2.98297
2.22534
-0.0282846
-0.385591
0.232383
-0.385591
3.15935
0.0381055
3.15935
2.27029
0.161149
-2.27029
0.258863
3.25096
-3.25096
1.34871
0.662722
1.34871
-5.56477
5.56477
4.95515
0.056618
-4.95515
0.0889403
6.15698
0.0611082
6.15698
-6.19956
-0.0185255
-6.19956
2.60535
-4.98245
-2.56604
6.09327
0.184007
-6.09327
0.185314
2.91587
0.0289955
2.91587
-2.92019
2.92019
-2.98385
0.0389896
-2.98385
-2.18316
0.400016
-2.18316
1.48284
0.300309
1.48284
-4.17201
-0.12085
-4.17201
-4.26566
0.12435
4.26566
0.084466
1.10992
-1.10992
-0.909361
0.0987383
-0.909361
-4.02856
-0.143452
4.02856
-0.120432
-3.80855
-0.0995722
-3.80855
-3.02401
0.040157
3.02401
0.0410765
3.11273
0.0466216
-3.11273
0.0476403
-1.87083
3.75328
-1.88012
3.75397
-5.61029
-0.381515
-5.61029
6.30151
-0.309712
6.30151
3.4254
0.324029
-3.4254
0.358256
2.52398
0.13491
2.52398
-6.78544
-0.0379278
-6.78544
6.80807
0.015299
6.80807
2.42825
0.0957339
-2.42825
0.0591255
2.23112
0.0524557
2.23112
2.89187
-0.0175994
2.89187
-2.87037
-0.00389831
-2.87037
2.79773
-2.79773
2.72896
0.0687767
-2.72896
0.0770063
-11.133
11.1145
-0.035226
-11.0978
5.17313
5.17313
4.18255
0.569809
4.18255
-4.99484
0.21623
-4.99484
2.71139
-5.27744
3.05241
-6.46344
4.68866
-16.2721
4.33255
-8.4017
6.67834
-6.67834
6.56779
0.110551
-6.56779
0.132853
-1.19617
0.0836319
-1.19617
-3.04863
-0.605295
-3.04863
4.30154
-0.647613
4.30154
-3.02858
3.02858
-3.07773
0.0491483
3.07773
0.0464054
2.1868
0.0443191
-2.1868
0.00573817
0.499233
0.114675
-0.499233
0.113642
3.45282
-0.201859
3.45282
-3.0597
-0.191262
-3.0597
-1.27568
0.0795068
1.27568
0.0730269
-5.81444
0.249665
-5.81444
-11.1908
0.0929511
-11.1526
-6.10661
-6.10661
2.33377
11.1262
-2.88998
0.0196166
2.88998
0.0258827
2.97557
0.0530116
-2.97557
0.0553814
-2.86145
0.0637206
2.86145
0.0587337
-2.5591
0.375932
-2.5591
-1.07409
1.07409
-1.24582
0.171738
1.24582
0.237015
1.37313
-0.263202
1.37313
0.968491
0.0454542
-0.968491
0.0591294
-3.72299
-0.0855626
-3.72299
6.534
-0.232486
6.534
-2.95026
-0.109438
2.95026
-0.0583932
-0.0333128
11.1478
-5.13982
0.0337285
5.13982
-11.2089
11.2426
-3.2313
0.672203
3.2313
0.951255
5.28645
0.278323
-5.28645
0.291613
6.76026
0.0478069
-6.76026
0.0819161
-2.55628
-0.492348
-2.55628
-5.02803
-0.582258
5.02803
-0.726492
-11.4748
-0.204707
11.6795
-11.4174
6.01914
0.137834
-6.01914
11.3805
-1.02098
-0.0889457
1.02098
0.0531073
1.69738
-0.324252
1.69738
3.6355
-0.182681
-3.6355
-0.0874913
-6.68824
-0.0972028
6.68824
-0.154235
-2.11281
-0.443466
2.11281
-0.415438
-4.26704
4.30514
1.90929
-2.44048
-2.54197
-5.42345
1.8519
1.90138
4.30164
-10.2092
-6.06286
-10.0239
7.26387
-6.97226
-9.26041
9.17076
7.77959
-7.87916
-5.78513
5.83154
6.48246
-6.44138
1.87876
1.87474
7.9459
-7.72145
-15.639
15.2575
7.48691
-7.43775
15.7772
-15.8152
-17.8749
17.9228
-5.7048
5.81081
-6.73176
6.72786
-6.95867
6.90028
-2.87035
-3.59309
13.1786
-13.0209
8.4705
-8.4865
-8.55524
8.94711
3.3825
0.922641
3.42913
-1.88225
3.76102
-1.87138
3.78066
2.67852
-5.54887
2.59892
-5.14089
4.24114
4.22936
-4.21286
-1.21059
-5.92202
5.95101
-5.81813
5.87686
9.00892
-9.07198
-1.88512
3.75987
-1.86885
3.77023
-3.42507
-2.36007
3.37948
0.922154
8.11319
5.0654
-8.2972
-1.72669
-7.97877
7.79609
-8.19725
8.00599
-0.437525
5.81833
-5.38081
4.42868
-1.55954
7.37787
5.70433
5.92056
5.86593
-5.5876
1.10633
-6.48714
-6.3982
-2.41177
2.51051
2.35036
-2.23532
6.04508
1.73451
5.92464
-5.7022
-2.17696
-5.78777
3.82093
2.01061
3.87007
4.0776
2.40486
4.11775
3.03066
-3.03573
0.00507646
-3.05645
6.08711
0.724133
-5.41652
-4.49436
4.96221
2.98369
5.14601
-5.50646
-2.21498
-5.14821
-9.55169
-6.08732
-10.1339
10.0962
5.16133
9.78645
-11.9679
11.8137
4.78052
2.70639
4.81691
-4.90904
-2.52872
-4.84991
11.6217
-2.61186
-9.00987
-10.33
-7.54499
10.3147
5.46258
10.9849
6.93786
11.0668
4.42887
7.19287
-9.89144
2.34645
-3.86332
-1.84148
-3.78631
3.67578
2.13503
3.79028
-4.2148
-2.51696
-4.19518
-4.29031
-2.66836
4.30791
2.41995
-4.40649
-3.79076
4.51592
2.38435
4.05196
-10.1148
4.34974
-7.94283
-9.23108
-3.78985
-9.09823
3.46893
2.63183
-6.10076
-2.07994
8.43141
-4.20205
7.22082
-5.15844
-3.32806
-5.1527
-6.81569
-1.73955
-6.69134
-8.89374
8.4014
-9.19118
8.54357
12.599
-5.67587
-6.92317
-3.96827
-2.47311
3.92063
-0.4915
-3.71086
3.71593
0.0501583
3.83082
4.75346
4.26196
-3.88596
-1.93217
-3.83057
3.82905
2.04781
3.89277
6.77811
2.23081
6.7839
-6.50296
-2.56902
-6.62381
9.06813
-8.66812
2.89184
-2.81233
5.35876
2.64722
-5.1569
-2.82187
6.20449
-3.1966
-3.0079
-12.2014
10.5448
1.65666
-4.82357
-0.394887
-0.241679
-5.4946
-3.76581
5.37871
0.541853
11.0866
7.32082
-5.51195
5.76161
6.16757
6.22419
-0.174011
5.82781
-5.15561
5.3185
-2.52486
-2.79364
5.37973
-5.52318
-1.24408
-5.43822
4.19414
0.401466
1.64183
-1.40945
-1.87382
-0.537944
-1.8147
1.41368
0.936681
1.52835
0.920986
1.58952
-2.9369
0.564121
2.37278
-2.01591
-1.6712
-3.71393
-1.13274
4.84667
5.67892
2.11717
-5.59143
-0.196336
2.60868
-2.54973
-0.723354
-2.99057
2.2053
-2.92866
-3.66373
-1.96955
5.63329
-3.37032
-0.460256
3.31731
0.552767
-3.82641
-2.09561
3.78742
0.330335
-3.1263
6.19049
-3.06419
-5.05848
2.52819
3.55892
4.5388
-4.78972
2.44691
2.34281
-1.2308
4.24351
0.902502
4.37842
-6.83219
4.6172
5.76969
3.17742
-6.09372
0.945509
-5.88668
8.50063
-7.31398
-1.18666
4.11614
4.3845
7.11121
5.48782
-5.70318
12.8144
-1.16189
-6.15209
7.04857
-3.87114
4.79835
-8.66949
-10.2862
4.13408
-9.16639
10.9371
-1.77067
-3.62457
-8.34332
12.791
-1.21064
-11.5803
8.57581
-4.1974
-4.28674
8.48414
-6.80926
6.81546
-1.97064
-4.84482
-10.1099
-5.70522
10.2071
1.60651
-9.85701
12.2035
-2.66414
4.09125
0.725662
4.14371
3.25997
-5.43149
2.17152
3.54929
-5.51993
2.07561
-7.5071
-6.74197
12.0871
-5.34513
-10.5318
-9.53373
-0.998092
2.54319
9.66026
-9.48105
7.45459
2.02646
3.30626
0.586513
-3.37504
-0.411277
0.237743
4.53712
-4.77487
4.02802
4.18917
3.31995
1.21717
3.84277
2.10824
-3.86865
-0.326526
-4.15767
1.48932
-1.73773
-3.68188
5.17119
-4.06563
0.383759
-2.74103
-3.50436
6.24539
-4.58251
3.03785
3.15264
5.08566
-4.91234
1.40798
-2.39673
-2.51562
2.65765
-4.39538
1.97997
3.19122
4.36433
0.573563
5.87261
6.21449
-8.50445
0.561619
11.2799
-9.55321
2.46288
8.60393
-9.91747
0.383745
-8.71448
1.01071
-5.21276
-5.09006
5.12455
-6.86409
-3.54495
6.17012
0.613787
-6.25458
-0.436752
-6.04292
-2.85083
-6.48638
-3.05036
-6.14082
-8.75354
-1.65528
-7.09825
6.74611
-6.68891
-3.44504
7.4154
1.12817
-7.4207
7.33175
-7.49974
7.17549
0.0950985
3.62084
4.35706
1.88395
-2.39004
4.27399
-5.12
7.35081
-8.67224
3.55224
4.12874
-6.69776
-4.5435
5.0374
4.03074
5.33771
8.9262
-10.418
1.49184
-10.7218
12.0525
-1.33067
-16.4996
5.77777
-7.57342
2.54138
0.350458
2.62501
0.583805
2.49481
-3.07861
-2.22853
-2.1555
-2.40087
-3.46053
5.8614
1.12844
-3.47847
2.35003
-3.55741
4.68585
-0.150073
-3.3284
5.29823
-2.80342
5.64869
-3.70749
1.9412
3.40107
5.72927
-2.3282
4.3886
-1.74138
1.89379
-4.22199
-1.56674
-2.96426
5.09928
-3.28114
3.6649
-0.324418
3.98931
-4.08227
0.885674
-0.762318
3.42686
3.68572
4.2959
-3.07873
2.93399
-4.67537
-1.288
-4.1018
-0.910586
-0.282992
-3.76015
4.04314
6.02565
-6.30864
-5.24939
9.55619
-4.3068
7.71376
-5.39514
-2.31862
-4.26837
-4.39975
3.89244
1.93538
9.64914
0.211609
-5.60675
-4.944
-3.99275
3.17534
2.14316
-1.86421
3.52087
2.10589
-0.464062
0.500889
1.02746
1.82506
-1.32417
0.268343
1.55672
-1.1411
1.86796
0.740722
-1.91342
0.0987218
-1.30305
3.50835
1.06972
-2.0064
0.682234
1.00296
-3.52782
4.96671
-2.62866
-2.33805
5.96967
1.13352
-3.76218
4.3047
-3.90324
2.34305
-3.47579
-1.41913
-5.32237
-3.58786
-2.53592
4.88595
-3.32548
5.44265
1.22222
-5.24631
6.46853
-3.66075
1.69119
-3.08123
3.82195
-1.0251
-2.05612
2.86586
2.76742
-2.99522
0.00464511
-0.129355
2.36911
-2.49846
-0.55955
-2.57546
-4.57248
4.90282
-2.10636
4.55327
2.16762
-1.91565
6.46892
1.8102
-3.72584
-3.24828
-3.70854
-1.38304
3.15577
-0.594157
-4.25576
-5.43898
4.16002
0.218396
-6.9496
7.76239
-0.812791
-3.96591
-0.65129
4.76743
-6.00144
0.481516
-3.92583
3.83656
4.73907
4.95746
-11.3778
-0.202476
-6.21651
1.14112
-7.35763
5.52561
-3.57493
7.70902
-10.3676
6.92258
-9.23946
6.52236
-0.835267
6.24276
-4.07124
2.76711
-8.47233
-6.86582
5.43996
-2.73357
6.16562
-3.08643
9.25206
-5.75057
5.2013
4.05076
-0.98074
-4.17196
-5.21736
4.23662
-0.0160622
4.12764
4.97713
-2.86888
4.6506
2.26174
-4.65846
-2.13364
-6.4957
1.83724
-3.34306
-1.9182
3.75544
3.16746
3.75397
1.23982
-3.34269
7.15608
-8.15418
-1.81095
-3.27911
5.19525
-0.958634
3.34557
-6.62467
-1.8672
4.84378
-0.800511
-4.04326
0.83209
-4.37704
1.67868
-6.05571
5.18542
-5.62217
2.21847
-9.79188
-5.20223
-5.14912
-2.25729
-5.24246
-7.60387
5.34658
-1.8261
5.50566
-8.56112
7.76061
-3.49139
8.83797
-5.43688
-1.0495
5.85232
1.32317
10.1611
0.189059
-4.73256
-1.90883
3.93824
-2.02941
1.26651
-3.57109
0.367148
2.47667
3.493
-6.67081
-0.0269573
-4.75952
-3.92534
7.95608
5.63085
11.6565
1.23847
9.14434
-1.18826
10.3828
4.14944
4.38646
-3.03106
4.5229
1.01208
4.56432
-0.887103
2.8283
1.73791
1.77756
0.772177
2.30974
1.37598
3.19542
0.116804
-2.0387
4.63071
-8.62346
-0.976038
-8.05365
1.11712
5.71912
-4.602
3.07038
-0.927219
1.04097
0.0109438
-1.48135
1.4704
-2.78269
-1.94541
-0.388693
-1.6558
2.33804
1.85255
-1.94934
-0.833351
0.369352
-3.95721
3.10644
-3.10179
-0.33437
6.13416
-2.78643
0.287968
-1.09523
-2.28749
-2.82544
2.72671
6.17657
0.292348
3.11239
5.19516
3.09955
0.230673
3.90687
-5.67754
-3.60023
-5.88002
-0.354404
4.41302
1.72191
7.93836
5.77267
4.81403
-1.81064
-9.96481
6.56325
-2.04035
5.23258
-1.18931
-4.8664
5.02243
2.32839
-5.63621
0.0140431
-4.85236
-6.89271
-0.521853
8.28246
-9.63929
8.58979
5.73896
1.35929
-4.41607
-0.733053
4.24433
0.142127
10.5249
-1.12547
-6.78288
7.90835
-4.59364
3.61761
0.799997
2.72087
2.2704
1.34318
-5.4397
-10.0417
-1.99471
-1.53311
-4.33276
0.513908
-2.36646
6.24307
-2.62546
3.92445
5.28288
6.32385
-2.14645
-4.16219
6.45326
-2.52881
3.79504
)
;

boundaryField
{
    wall-4
    {
        type            calculated;
        value           uniform 0;
    }
    velocity-inlet-5
    {
        type            calculated;
        value           uniform -3.75095;
    }
    velocity-inlet-6
    {
        type            calculated;
        value           uniform -5.62643;
    }
    pressure-outlet-7
    {
        type            calculated;
        value           nonuniform List<scalar> 8(3.21439 7.70115 4.37102 9.79021 7.48019 5.17139 5.7638 9.02121);
    }
    wall-8
    {
        type            calculated;
        value           uniform 0;
    }
    frontAndBackPlanes
    {
        type            empty;
        value           nonuniform List<scalar> 0();
    }
}


// ************************************************************************* //
