/*--------------------------------*- C++ -*----------------------------------*\
  =========                 |
  \\      /  F ield         | OpenFOAM: The Open Source CFD Toolbox
   \\    /   O peration     | Website:  https://openfoam.org
    \\  /    A nd           | Version:  9
     \\/     M anipulation  |
\*---------------------------------------------------------------------------*/
FoamFile
{
    format      ascii;
    class       volVectorField;
    location    "46";
    object      U;
}
// * * * * * * * * * * * * * * * * * * * * * * * * * * * * * * * * * * * * * //

dimensions      [0 1 -1 0 0 0 0];

internalField   nonuniform List<vector> 
918
(
(0.985163 -0.000503371 0)
(0.0050132 2.96625 0)
(0.00857769 0.856856 0)
(0.979703 0.00214779 0)
(-0.0144396 2.05273 3.04906e-20)
(-0.0070459 2.9488 -2.5206e-18)
(0.815303 1.1529 4.33052e-19)
(0.236384 0.115154 -1.58049e-20)
(0.999907 -0.000283401 0)
(0.0617958 0.794432 0)
(0.0130789 0.601389 0)
(0.734699 -0.0169531 0)
(0.0111137 2.93039 0)
(0.00232848 2.79513 0)
(-0.0176493 3.15382 7.6952e-19)
(-0.0171921 1.90789 6.06917e-22)
(0.304832 0.0330139 1.0399e-18)
(0.188554 1.16437 3.05058e-19)
(0.962761 0.00501736 0)
(-0.0138292 0.539191 0)
(0.0401727 0.154548 -7.47805e-19)
(1.00198 -0.0049793 0)
(1.00022 -0.00979046 0)
(0.975728 -0.00644019 0)
(0.583321 -0.0383786 0)
(0.0156785 2.64019 0)
(-0.0149635 2.91005 9.30838e-19)
(0.0100045 0.923538 0)
(-0.00135412 1.16522 0)
(0.00907187 0.90055 0)
(-0.0172299 2.61046 0)
(-0.00328942 2.10561 -2.43457e-20)
(-0.00946452 1.88096 0)
(-0.0206056 2.9876 -9.07585e-23)
(-0.016688 3.00529 1.95894e-18)
(0.00209859 3.00018 0)
(0.870913 -0.00956667 0)
(0.404991 0.9383 1.85112e-19)
(0.794091 1.17032 -4.8548e-19)
(0.940821 1.00953 5.27382e-19)
(0.666147 1.26259 -9.9759e-20)
(0.666742 1.24672 5.77057e-19)
(0.27372 0.187477 1.54191e-20)
(0.25036 0.0883233 0)
(1.13641 0.550612 0)
(0.241123 0.179323 7.04084e-20)
(0.20769 0.114506 -7.30616e-20)
(0.919814 -0.0074455 0)
(1.00027 0.000156179 0)
(0.999909 0.00033688 0)
(1.00363 -0.00776824 0)
(1.00096 -0.000922234 0)
(1.00017 3.14649e-05 0)
(0.0765138 1.81563 -8.05629e-19)
(0.03071 0.980107 0)
(0.0961011 0.863261 0)
(0.0129929 0.932948 0)
(0.036469 0.726405 0)
(0.0135454 2.00368 0)
(0.00512212 0.833325 0)
(0.00801898 0.618847 0)
(0.0028346 0.821674 0)
(0.0174463 0.589742 0)
(0.83944 -0.0158379 0)
(0.845068 0.0298821 0)
(0.76766 -0.00577405 0)
(0.814169 0.0394058 0)
(0.704434 -0.019365 0)
(0.0146857 3.00041 9.35052e-19)
(0.0114906 3.00804 0)
(0.0061092 3.00276 0)
(0.013537 2.99736 1.06184e-23)
(0.00796869 2.95848 -1.38972e-18)
(0.0145014 2.98205 0)
(0.0108754 2.90355 0)
(0.024316 2.93082 2.14401e-24)
(0.00464888 2.82516 0)
(0.0304984 2.91646 0)
(-0.00489024 2.74504 0)
(0.307724 3.54986 0)
(-0.131789 3.63112 0)
(0.139216 3.24427 -7.1612e-19)
(-0.0129879 2.98054 0)
(-0.0200863 1.99488 0)
(-0.00877138 2.16186 -5.98591e-22)
(-0.0106106 1.91476 -1.15607e-20)
(0.406482 0.143672 -3.60078e-19)
(0.314486 0.018368 -3.48205e-19)
(0.381746 0.153194 -1.08326e-18)
(0.286079 0.0429071 -7.12707e-19)
(0.224594 0.966853 0)
(0.270052 1.31044 -3.61284e-19)
(0.364374 1.24338 6.02674e-19)
(0.98747 0.00855719 0)
(0.941915 0.00583596 0)
(1.0003 0.000578519 0)
(1.00286 0.00930624 0)
(1.00302 0.00846195 -2.78336e-18)
(0.991912 0.00969938 2.10191e-18)
(-0.00674412 0.804722 0)
(-0.00573918 0.540525 0)
(-0.0270314 0.980529 0)
(-0.0120275 0.825737 0)
(-0.00118402 0.533216 0)
(0.0669962 0.156653 2.31058e-19)
(0.128038 0.131853 0)
(0.993542 -0.00837861 0)
(0.954432 -0.00652311 0)
(0.760032 0.0466079 0)
(0.695614 0.0572375 0)
(0.664213 -0.0315103 0)
(0.964541 -0.00805872 0)
(0.611392 0.0762921 0)
(0.444523 -0.0110439 1.55183e-18)
(-0.0371532 2.86216 6.97743e-19)
(0.0413697 2.90953 0)
(0.0540255 2.88569 0)
(-0.00464291 2.7 0)
(-0.0130716 2.98528 8.82568e-19)
(-0.0178933 2.89516 0)
(-0.0153628 2.98807 -2.734e-18)
(-0.0133112 2.92521 9.35571e-19)
(-0.00131404 1.34566 0)
(0.0186934 1.3788 0)
(-0.00754162 2.13135 3.9563e-22)
(-0.00756323 2.08843 0)
(-0.0207641 1.89049 0)
(0.938181 -0.00757455 0)
(0.856741 -0.00981084 0)
(0.863349 0.00607815 0)
(0.949338 -0.00796216 0)
(0.883774 -0.00812826 0)
(0.517044 1.13179 -2.33572e-19)
(0.566314 1.18299 0)
(0.369044 0.882986 3.43908e-20)
(0.311212 0.741917 0)
(0.901289 1.04885 -1.44528e-19)
(1.01367 0.854056 2.8918e-19)
(0.357008 1.35959 0)
(0.522385 1.32409 0)
(0.542139 1.27438 0)
(0.117343 0.182821 -3.03117e-19)
(0.30596 0.179191 0)
(0.273068 0.0832659 2.01405e-19)
(0.985944 0.910081 0)
(1.05756 0.764117 0)
(1.08115 0.704799 -2.22857e-19)
(1.11684 0.610298 0)
(1.16932 0.397538 5.56317e-20)
(0.957601 -0.00880779 0)
(0.962421 -0.0100897 0)
(0.901583 -0.00793897 0)
(0.984179 -0.00916587 0)
(0.974663 -0.00936723 0)
(0.937083 -0.0063668 0)
(1.00019 0.00233611 0)
(1.0009 0.00140985 0)
(0.99991 0.000852293 0)
(0.0351846 2.06729 4.45006e-19)
(0.120056 1.75792 0)
(0.0166052 2.18195 6.92221e-19)
(0.0504614 1.87001 -5.83483e-19)
(0.103259 1.17269 -2.49536e-19)
(0.0447716 1.05827 0)
(0.143996 1.01442 0)
(0.00618022 0.893106 0)
(0.0143755 0.67555 0)
(-0.00196047 2.23641 -1.12348e-21)
(0.0211117 2.00809 0)
(-0.00310598 2.23954 -4.86519e-20)
(0.0147889 2.0131 8.43721e-20)
(0.00578318 0.865317 0)
(0.00324418 0.846192 0)
(0.00674045 0.64309 0)
(0.00711093 0.805223 0)
(0.0030297 0.575221 0)
(0.93646 0.00932203 0)
(0.847353 -0.0151672 0)
(0.926203 3.38109e-05 0)
(0.84099 -0.012912 0)
(0.811985 0.000445585 0)
(0.900786 0.0204667 0)
(0.876337 0.0250887 0)
(0.788858 -0.00216782 0)
(0.00564032 3.06476 -8.74722e-21)
(0.0166899 3.05785 0)
(0.0146883 2.96904 0)
(0.00861506 2.87618 0)
(0.924682 3.9656 0)
(1.23909 3.29864 9.30085e-19)
(0.0697558 3.07268 0)
(-0.0286209 2.90455 0)
(-0.00171035 1.39376 0)
(-0.0218342 1.69987 0)
(-0.00612247 1.53616 0)
(-0.0285719 2.56828 -9.15628e-21)
(-0.0115112 2.25855 0)
(-0.0184395 2.40512 0)
(0.00463525 1.94008 2.28738e-21)
(-0.00423734 2.23839 8.45432e-21)
(-0.00652384 2.19755 1.16335e-20)
(-0.00348632 1.92675 0)
(0.442494 0.124716 5.45177e-19)
(0.354556 0.00959114 -5.35218e-19)
(0.260002 1.57924 0)
(0.273026 0.741133 -3.17414e-19)
(0.177195 1.66508 -1.06257e-18)
(0.226887 1.20715 1.06508e-18)
(0.902164 0.00645178 0)
(0.96747 0.0110794 0)
(0.974596 0.0107865 0)
(0.923398 0.00645751 0)
(-0.00111872 0.797783 0)
(-0.00791256 0.797113 0)
(0.00591089 0.55091 0)
(0.206375 0.172042 6.49695e-19)
(0.17227 0.157897 -7.68747e-19)
(0.172586 0.121063 0)
(1.08946 0.0837239 2.84663e-20)
(1.07187 0.0380118 0)
(1.00658 0.0388543 0)
(0.902424 -0.00667302 0)
(0.482324 0.106668 0)
(0.532297 0.0876978 -2.48128e-18)
(0.395544 0.00611339 9.2907e-19)
(0.00889956 2.98085 7.44779e-19)
(-0.0329088 2.86566 4.67997e-20)
(0.00365601 3.0502 -1.8498e-20)
(0.0201952 3.04341 6.58241e-19)
(-0.0150197 2.99657 3.07033e-20)
(-0.0129599 2.94949 -1.23521e-22)
(-0.0172578 3.01193 -5.67527e-19)
(0.0148565 3.02381 4.10467e-19)
(0.00736023 3.03677 -6.50899e-19)
(0.933065 -0.0015738 0)
(0.938851 -0.00349038 0)
(0.844886 -0.00933869 0)
(0.956657 0.0118136 0)
(0.942911 0.0130833 0)
(0.881716 0.00599906 0)
(0.917696 0.0166622 0)
(0.926312 0.0148083 0)
(0.838559 0.00323952 0)
(0.720045 1.40987 3.61622e-20)
(0.753433 1.51879 0)
(0.186819 0.32528 7.2162e-20)
(0.22176 0.66285 5.82912e-19)
(0.261382 0.721639 -3.39382e-19)
(0.265884 0.533548 6.74607e-19)
(0.338909 0.796464 1.59397e-18)
(0.136221 0.224115 3.75047e-19)
(0.355299 0.169342 7.55939e-19)
(0.332868 0.177311 1.97196e-19)
(0.280367 0.0630186 3.75611e-19)
(1.15884 0.455189 4.1675e-20)
(1.17735 0.25211 3.668e-20)
(0.00809949 2.2294 2.71072e-19)
(0.0453844 1.93755 0)
(0.96649 0.0285591 0)
(0.94044 0.0133124 0)
(0.865322 -0.0184922 0)
(0.0111923 3.07432 0)
(0.0196522 2.944 1.20805e-18)
(0.016451 2.9563 0)
(0.00636151 2.85066 -1.19838e-18)
(0.0062457 3.09086 2.93432e-19)
(0.00729013 3.0827 0)
(0.786457 1.82113 -1.58986e-19)
(1.24697 2.49837 4.04723e-19)
(0.76857 1.96069 -1.23445e-18)
(0.0200275 2.98095 -6.45048e-19)
(0.0357773 3.0009 0)
(-0.03388 2.87798 0)
(-0.00376437 2.21878 -1.28497e-20)
(-0.00348173 2.24129 -2.52968e-20)
(0.00801956 1.97409 -8.16587e-21)
(0.27687 1.38701 1.03244e-18)
(0.231648 0.529652 -7.08172e-19)
(0.0635391 1.99201 7.80046e-19)
(0.136002 1.87994 -9.26236e-19)
(0.179863 1.49933 9.25631e-20)
(0.00199209 3.11867 -1.83539e-18)
(0.0164399 3.11794 1.96734e-18)
(-0.0090439 2.98112 8.13118e-19)
(-0.00345958 2.97746 -7.70488e-19)
(-0.0211082 2.88136 -8.28138e-19)
(0.00864907 3.09967 -2.18361e-18)
(0.00232837 3.10628 2.13163e-18)
(0.275822 0.6874 0)
(0.241492 0.67738 -1.20294e-18)
(0.0965148 0.224693 5.33565e-19)
(0.353009 0.922274 1.11384e-18)
(0.191471 0.268927 -1.71726e-18)
(1.17243 0.171468 7.01125e-20)
(1.17783 0.305821 0)
(1.16105 0.12023 -1.54615e-20)
(0.000621083 2.24793 -1.7768e-21)
(0.00369412 2.23952 0)
(0.0292349 1.97297 0)
(0.340145 1.29541 -3.71417e-19)
(0.370938 1.13396 -8.03578e-19)
(0.205494 0.368229 1.43095e-18)
(1.00587 -0.0108537 0)
(1.00766 -0.00764724 5.13635e-19)
(-0.00204139 1.32108 0)
(-0.0218988 1.30144 0)
(1.00222 0.00350548 1.80661e-21)
(1.00366 0.00945151 1.0484e-18)
(-0.0199122 2.55206 1.15983e-20)
(-0.0247878 2.59421 0)
(0.035599 3.17812 4.31515e-19)
(0.394284 3.48926 0)
(1.16488 0.649618 -6.67239e-20)
(1.0129 0.0130967 -2.14878e-21)
(1.02126 -0.0103628 0)
(1.00171 0.000118349 7.60277e-23)
(0.102978 1.35976 0)
(0.144655 2.5745 0)
(0.0262013 1.30019 0)
(0.00145554 2.62423 4.84362e-20)
(-0.0199743 2.5827 1.8969e-20)
(1.00083 0.0289764 2.48199e-21)
(1.06212 0.00387243 0)
(1.09544 0.0236785 0)
(-0.022149 1.7404 0)
(-0.0195457 2.59183 0)
(0.00114796 1.29679 0)
(0.296905 1.47191 -1.58061e-19)
(1.01127 -0.00964386 0)
(1.00939 -0.0149259 0)
(1.00238 0.000736404 6.56431e-19)
(1.00547 -0.00482083 -7.71416e-19)
(1.00118 -0.000997106 0)
(-0.00532128 1.45905 0)
(-0.00488569 1.36494 0)
(0.00177114 1.41393 0)
(0.000213204 1.28445 0)
(-0.00826701 1.26154 0)
(-0.00411892 1.24042 0)
(1.0347 -0.00631184 0)
(1.02028 0.0156895 -8.95142e-22)
(0.804572 1.26532 2.46606e-19)
(1.00223 0.000311046 -6.53605e-19)
(1.00407 0.00524783 7.65354e-19)
(1.00117 0.00206564 0)
(1.01278 0.0103156 6.50689e-19)
(1.00801 0.0082929 -7.88255e-19)
(1.00858 0.0146867 0)
(-0.0245679 2.62148 0)
(-0.0258289 2.60132 -1.38345e-20)
(-0.0238167 2.61517 1.02265e-20)
(1.23008 0.261549 6.14851e-19)
(1.15729 0.0842948 0)
(0.0425868 3.07723 -9.52855e-19)
(0.0652787 2.85444 -6.92946e-20)
(0.14104 3.19246 1.45722e-18)
(0.136119 3.22124 -2.12599e-19)
(0.134448 3.23306 0)
(0.0202184 3.13747 2.46551e-19)
(0.0761479 3.16025 9.40005e-19)
(0.0688096 3.18597 -4.64488e-19)
(0.0225916 3.12978 0)
(0.621443 0.280623 0)
(0.551662 0.326868 0)
(1.13305 0.685666 1.59575e-19)
(1.12826 0.807772 -1.52624e-19)
(1.19142 0.573827 0)
(1.22088 0.509976 0)
(1.01612 0.013321 -1.21305e-18)
(1.01499 0.0142541 1.52262e-18)
(1.02525 -0.00990745 0)
(1.02332 -0.0119063 0)
(1.00643 0.00257947 0)
(1.01041 0.00370028 0)
(1.00457 0.0018379 0)
(1.00981 0.0062044 0)
(1.00784 0.00595701 0)
(1.00451 0.0046628 0)
(0.0914287 1.35712 0)
(0.0853507 1.32773 0)
(0.122658 1.39296 0)
(0.137301 1.40386 0)
(0.144809 2.59913 0)
(0.185178 2.66708 -4.376e-19)
(0.100177 2.65492 0)
(0.0858322 2.65756 2.12594e-19)
(0.0391472 2.67881 -1.76046e-19)
(0.0175227 1.31617 0)
(0.0186191 1.24375 0)
(0.0187758 1.32473 0)
(0.0285437 1.26817 0)
(0.00373604 1.98036 -1.54438e-20)
(-0.0184142 2.61058 3.02468e-22)
(-0.00704044 2.6659 3.80599e-20)
(-0.0167179 2.68609 0)
(-0.0212846 2.61731 -4.29881e-20)
(-0.0214693 2.61222 -9.76031e-21)
(0.0130948 1.97923 1.43225e-20)
(-0.00516253 2.39607 -4.05869e-22)
(-0.0116367 2.41824 -4.3169e-20)
(1.01086 0.0368481 1.23716e-18)
(1.00619 0.0162215 -1.52808e-18)
(1.0021 0.0438132 -1.23807e-18)
(0.979351 0.0221973 1.57906e-18)
(1.06334 0.00768037 0)
(1.04868 -0.00859124 0)
(1.09265 0.033645 0)
(1.07308 0.0119631 0)
(1.07087 -0.000134271 0)
(1.13795 0.0806412 0)
(1.1094 0.0429499 0)
(1.11245 0.0309757 0)
(-0.0243358 2.44169 5.60525e-23)
(-0.0083588 2.0184 0)
(-0.0131193 2.22409 0)
(-0.0204974 2.61202 -3.82289e-21)
(-0.0181549 2.62022 -1.54048e-22)
(0.00798642 1.5669 -2.0899e-20)
(0.00227493 1.49549 2.1241e-20)
(-0.00459161 1.38354 0)
(-0.00770817 1.38931 0)
(-0.0101127 1.3837 0)
(0.00478571 1.29962 0)
(0.0129983 1.2378 0)
(0.37774 1.48782 2.55485e-19)
(0.418376 1.49079 1.38851e-19)
(0.597635 2.44959 -2.41357e-19)
(0.400842 2.54411 7.11936e-19)
(0.350813 2.0654 7.40343e-20)
(1.02099 -0.00818709 0)
(1.01547 -0.00978662 0)
(1.01489 -0.0155149 0)
(1.00745 -0.00115425 0)
(1.00494 -0.000936005 0)
(1.00776 -0.00474974 0)
(1.00924 -0.00369376 0)
(1.01418 -0.00445638 0)
(1.02102 0.0161481 1.18774e-18)
(1.01792 0.0156767 -1.52156e-18)
(1.02142 0.0181214 -1.19648e-18)
(1.01926 0.0168388 1.49541e-18)
(0.768572 1.31526 0)
(0.704981 1.36632 2.3097e-19)
(0.88125 1.2125 8.4191e-20)
(0.925634 1.16047 -1.1197e-19)
(1.15801 2.60715 2.93532e-19)
(0.79402 0.115823 6.05368e-19)
(1.16049 0.105933 0)
(1.20718 0.190232 -4.9412e-19)
(1.19222 0.152004 -2.0917e-20)
(1.00489 0.150856 0)
(0.133797 2.95972 5.58985e-19)
(0.110858 2.86544 -1.20909e-18)
(0.0206965 2.37448 8.13234e-19)
(0.0903557 -0.0571598 -3.61186e-19)
(0.339108 3.41864 -2.05197e-19)
(0.193345 3.31166 0)
(0.236544 3.35324 2.67236e-19)
(0.243392 3.03295 -1.84617e-18)
(0.338212 3.19218 0)
(0.00609874 3.12105 4.77808e-20)
(0.0158329 3.12984 -5.63028e-19)
(0.0143315 3.12591 8.28664e-19)
(0.0353791 3.14005 0)
(0.0339165 3.15043 0)
(1.21565 2.60583 0)
(0.544051 0.826703 -5.37991e-19)
(1.05161 0.982149 5.047e-21)
(0.985813 1.06529 0)
(0.840471 0.968497 -1.16635e-19)
(1.07742 0.879292 2.85246e-20)
(0.357111 0.374372 -9.29456e-19)
(0.674709 0.311636 -2.06395e-20)
(0.624305 0.2208 4.29026e-19)
(0.574241 0.360941 3.16713e-20)
(0.484385 0.324744 -1.27487e-18)
(0.644271 0.323607 0)
(0.700719 0.41543 7.28636e-19)
(0.709783 0.416764 0)
(0.608225 0.351448 0)
(0.563121 0.270227 0)
(0.809672 0.61344 4.30077e-19)
(1.23034 0.283957 -5.19169e-19)
(1.22857 0.421049 0)
(1.23818 0.360967 0)
(0.726994 0.187898 6.37014e-19)
(0.856109 0.537348 -3.95455e-19)
(0.751637 0.507729 7.01027e-19)
(0.951417 0.430633 -7.69931e-19)
(1.01957 0.0147762 8.16054e-19)
(1.01775 0.0142552 -8.20855e-19)
(1.01593 0.0154787 0)
(1.03616 -0.0058548 0)
(1.0297 -0.00851896 -7.69132e-19)
(1.02775 -0.0120507 7.61512e-19)
(1.02498 0.0100506 0)
(1.02358 0.0136931 0)
(1.01141 0.00409137 0)
(1.01426 0.00904556 0)
(1.01515 0.00401973 0)
(1.01424 0.00279294 0)
(0.0626324 1.34251 0)
(0.064459 1.29761 0)
(0.143674 1.36711 -7.48216e-21)
(0.270599 1.46897 8.10079e-20)
(0.164036 1.44044 1.68108e-19)
(0.195983 1.44748 -2.75654e-19)
(0.164937 1.39163 0)
(0.130002 1.59456 -8.66252e-20)
(0.113949 1.56808 0)
(0.348325 2.01767 -1.07627e-19)
(0.344829 2.34992 6.31451e-19)
(0.18659 1.45193 7.55401e-20)
(0.261407 1.38159 1.78827e-20)
(0.195884 1.37139 -1.44678e-20)
(0.271643 1.32403 -1.12309e-19)
(0.239087 1.57729 0)
(0.2616 1.61673 1.19869e-19)
(0.0305059 2.26384 -3.79714e-20)
(0.0436488 2.66798 0)
(0.0649399 2.4011 1.53028e-19)
(0.0610887 2.4213 0)
(0.0694533 2.6704 -2.35461e-19)
(0.0497381 2.69819 0)
(0.0283612 1.41509 8.18657e-21)
(0.0350154 1.46797 0)
(0.0288464 1.3851 0)
(0.024384 1.38695 -9.23674e-21)
(0.00166046 2.65174 -1.714e-20)
(0.0303236 2.69647 2.01015e-19)
(0.0117889 2.72162 1.41679e-21)
(0.00573464 1.82724 1.31994e-20)
(-0.00180063 1.67781 5.40326e-21)
(0.0137439 1.28998 0)
(0.0222666 1.22154 0)
(0.0469735 1.57716 3.0745e-21)
(0.0293344 1.45104 -3.44941e-21)
(0.0370764 1.5159 4.13275e-21)
(0.0394165 1.60108 0)
(-0.0266532 2.27412 6.635e-20)
(-0.0271892 2.55768 -2.74759e-20)
(-0.0141243 2.45235 1.16901e-22)
(0.000713216 1.84373 -1.60009e-20)
(-0.0222747 2.50189 -5.30943e-21)
(-0.0188059 2.44321 2.91378e-20)
(1.01933 0.0209342 -8.10842e-19)
(1.01539 0.0266537 8.15611e-19)
(1.01446 0.0161735 0)
(1.01232 0.0705713 1.14548e-18)
(0.990089 0.0593366 -1.28807e-18)
(0.947921 0.0439661 1.44282e-18)
(1.01364 0.108343 -1.52734e-19)
(1.04245 -0.005902 0)
(1.05063 -0.00168237 7.34245e-19)
(1.03874 -0.00999972 -7.35791e-19)
(1.07024 0.0414671 -4.3732e-20)
(1.06402 0.022763 3.7686e-19)
(1.06288 0.0545982 0)
(1.05333 0.0482228 -1.35452e-19)
(1.03239 0.0413594 0)
(1.02583 0.0379046 0)
(1.02782 0.0130412 0)
(1.02414 0.0158177 0)
(1.03998 0.0316747 2.78918e-19)
(1.03893 0.0263018 -6.16181e-19)
(1.0506 0.0330656 -2.95793e-19)
(1.04809 0.033033 -3.25553e-19)
(1.07015 0.0627927 6.36456e-19)
(1.09521 0.0508311 0)
(1.10331 0.0945275 0)
(-0.0208976 2.27975 4.21852e-20)
(-0.0181986 2.02125 -3.97234e-22)
(-0.0145377 2.02773 0)
(-0.0261765 2.45367 -4.19743e-20)
(-0.0208836 2.40958 3.51682e-22)
(-0.0315311 2.48304 3.67698e-21)
(-0.0193248 2.62639 8.17097e-21)
(-0.0199527 2.5692 -1.1957e-21)
(-0.0182032 2.51854 2.9762e-21)
(-0.0152841 2.62224 1.43704e-22)
(-0.0198617 2.62319 1.21328e-21)
(0.00327086 1.47914 -2.98999e-22)
(0.0094912 1.61573 -1.7553e-20)
(0.363716 1.4325 -1.06322e-19)
(0.364364 1.37034 4.32561e-20)
(0.648505 1.41567 -2.23461e-19)
(0.517008 1.48234 -1.36122e-19)
(0.572824 1.45003 0)
(0.593305 2.42621 2.1063e-19)
(0.66114 2.41951 3.40075e-19)
(0.410554 2.51726 8.54894e-20)
(0.402652 2.54419 -6.28567e-19)
(0.511295 2.48835 6.20026e-19)
(0.552772 2.46339 0)
(0.488877 2.51886 -5.66295e-19)
(0.247568 2.59218 1.17506e-18)
(0.353624 2.56578 -8.02735e-20)
(0.283723 2.6536 -1.61737e-18)
(0.945514 2.38129 7.30548e-19)
(0.837357 2.38515 0)
(1.01103 0.000461507 2.66279e-20)
(1.01527 -0.00546661 -2.16116e-20)
(1.01764 -0.00360227 -3.94777e-19)
(1.01497 -0.000939338 3.96792e-19)
(1.01239 0.00111439 0)
(0.636874 1.28703 0)
(0.661401 1.18343 0)
(0.77074 1.09593 0)
(0.653963 1.14752 0)
(1.18733 2.62137 5.88215e-20)
(1.07601 2.36777 0)
(0.839111 2.18165 3.85238e-21)
(0.826123 2.44565 0)
(0.923278 2.53714 -4.26297e-19)
(0.958871 2.49281 2.83706e-19)
(0.812858 0.173967 0)
(0.772193 0.147182 1.64591e-19)
(0.919343 0.144966 9.58727e-19)
(0.835104 0.147418 -3.58463e-19)
(0.799562 0.0839127 -1.106e-18)
(1.07842 0.234386 -9.1984e-19)
(0.992156 0.292053 -1.59953e-20)
(0.92775 0.293081 8.82279e-19)
(1.00431 0.223029 7.37632e-19)
(0.951934 0.189894 -1.27313e-18)
(0.91666 0.191088 1.591e-19)
(0.95481 0.255532 -3.39234e-19)
(0.931297 0.21743 0)
(0.992486 0.184164 6.28372e-19)
(1.04526 0.186877 0)
(1.04103 0.213733 0)
(1.10488 0.117505 2.95977e-19)
(1.06893 0.175326 -1.43377e-20)
(1.07301 0.235393 -1.61613e-19)
(1.10272 0.201977 0)
(1.02276 0.0454826 6.29273e-19)
(1.04017 0.0581586 7.84592e-19)
(1.03386 0.0441456 -6.24214e-19)
(1.0431 0.0649051 -5.25769e-19)
(1.01898 0.0727619 -8.05402e-19)
(0.98803 0.157668 0)
(0.999034 0.104719 0)
(0.965681 0.0665866 -5.14126e-19)
(0.91265 0.0898062 2.01922e-19)
(1.03869 0.103831 7.27277e-19)
(1.06843 0.120311 -8.54413e-19)
(1.07519 0.153391 7.63526e-19)
(1.029 0.142969 0)
(1.07452 0.108336 0)
(1.0549 0.090331 -3.49608e-19)
(1.04447 0.0947594 -5.95393e-19)
(0.582799 1.0753 1.41443e-19)
(0.611977 1.40302 -4.30374e-20)
(1.1576 2.73726 -2.29715e-19)
(1.22383 3.07874 2.00682e-21)
(1.24971 2.72022 -1.35558e-19)
(1.27927 2.70392 -2.81419e-20)
(1.20747 2.34468 -1.04471e-20)
(1.21125 2.98284 -9.48683e-20)
(1.23084 2.94819 2.37018e-19)
(1.2146 3.23215 -1.42967e-19)
(1.37509 2.96403 1.97678e-19)
(1.36519 2.88226 0)
(0.55222 0.834743 -5.04926e-20)
(0.130255 1.24598 5.80318e-19)
(0.538527 0.422992 6.01225e-19)
(0.377229 0.171993 6.62203e-19)
(0.515285 0.360762 7.20316e-19)
(0.54596 0.461353 -1.15989e-18)
(0.547864 0.462249 9.47686e-19)
(0.490756 0.3758 -3.63675e-19)
(0.402202 0.307733 8.23766e-19)
(0.733141 0.253123 -3.65083e-19)
(0.693504 0.278253 0)
(0.667068 0.19712 8.47567e-21)
(0.734408 0.505236 3.83299e-19)
(0.706558 0.473979 -1.39758e-18)
(0.61588 0.459424 1.42843e-20)
(0.622496 0.446482 0)
(0.682819 0.723981 4.0641e-19)
(0.842868 0.772147 4.11958e-19)
(0.765358 0.855265 -4.81568e-19)
(0.888011 0.808142 -1.63131e-19)
(0.91708 0.851203 -4.0482e-20)
(0.924743 0.851199 4.14593e-20)
(0.85499 0.646486 -7.12945e-19)
(0.936501 0.702336 1.51552e-19)
(0.992981 0.716644 0)
(0.984228 0.693501 -2.06803e-19)
(1.022 0.331115 2.2191e-19)
(1.14433 0.299269 3.03481e-19)
(1.06512 0.270651 3.76302e-19)
(1.00905 0.362508 -4.46836e-19)
(1.05898 0.427407 0)
(1.11644 0.413557 0)
(0.917627 0.364298 5.5169e-21)
(0.840934 0.296706 0)
(0.880718 0.292122 4.15784e-19)
(0.908134 0.299892 -5.25872e-21)
(0.945394 0.433096 2.14631e-18)
(0.904919 0.490469 5.54724e-19)
(0.90755 0.45571 -5.89996e-19)
(0.826239 0.439902 6.31763e-19)
(0.809255 0.432378 3.79273e-19)
(0.778714 0.41377 -3.72881e-19)
(1.0272 -0.000422871 6.57639e-19)
(1.01999 -9.90056e-05 0)
(1.01849 0.000837201 4.28741e-19)
(1.02169 -0.00171648 -9.71247e-19)
(1.0223 0.00427747 4.71754e-19)
(1.02038 0.0112335 -9.8799e-19)
(1.02132 0.0106241 0)
(1.02063 0.0108799 -2.05867e-19)
(1.01598 0.00769804 5.16457e-19)
(1.0167 0.0104556 -2.5769e-19)
(1.0174 0.00980336 1.89786e-19)
(0.0295557 1.31771 0)
(0.0327334 1.35862 0)
(0.0430435 1.31994 0)
(0.0428886 1.27525 0)
(0.0704389 1.38238 -9.57089e-21)
(0.0774264 1.35293 9.9166e-21)
(0.110577 1.51542 -2.29452e-20)
(0.0932844 1.36355 3.01835e-21)
(0.0337034 1.45604 -1.8254e-20)
(0.0374432 1.44883 1.43322e-20)
(0.0619295 1.36707 -8.10747e-21)
(0.0541092 1.36898 1.69239e-20)
(0.0470264 1.34449 2.3293e-21)
(0.0386973 1.36724 -9.61331e-22)
(0.105976 2.37244 -1.69173e-19)
(0.094842 2.41913 0)
(0.16906 2.04817 1.1409e-19)
(0.108228 1.7093 4.71972e-20)
(0.22984 2.04433 -9.35129e-20)
(0.203636 2.43764 0)
(0.26443 2.38861 -6.13404e-19)
(0.302761 2.3866 4.3485e-19)
(0.229003 2.00465 -2.6027e-19)
(0.15257 2.16519 1.73334e-19)
(0.142645 2.27667 0)
(0.0181441 1.87516 -2.79661e-20)
(-0.000184517 2.39407 -7.52455e-20)
(0.00596912 2.14901 0)
(0.0114028 2.4568 -1.35228e-20)
(0.0270771 2.3016 2.55146e-20)
(0.0175278 1.39675 -2.31613e-21)
(0.0192351 1.3833 4.32846e-20)
(0.0200348 1.38728 -1.60193e-20)
(0.0226032 1.38706 -9.94396e-21)
(0.0279692 1.41893 0)
(0.0169471 1.3694 0)
(0.011501 1.29063 -2.36123e-20)
(0.0120692 1.36012 5.86299e-21)
(0.016187 1.36136 0)
(0.014207 1.28412 -1.76049e-20)
(0.0228875 1.21728 3.6703e-20)
(1.04049 0.0114349 0)
(1.04647 0.00771431 -6.88923e-20)
(1.03854 0.0212594 -4.96815e-19)
(1.04807 0.0201511 0)
(1.05203 0.0200242 0)
(1.03627 0.0115505 -6.70033e-21)
(1.03096 0.0113931 7.98034e-19)
(1.03174 0.0163094 9.67345e-19)
(1.02574 0.0202061 0)
(1.02286 0.0205993 0)
(1.03511 0.0250248 4.9536e-19)
(1.02597 0.0262657 0)
(1.02422 0.0262831 0)
(-0.0133695 2.01902 0)
(0.00898935 1.6463 -3.9683e-21)
(0.00117491 1.75391 -2.40513e-20)
(0.00557485 1.36976 0)
(-0.000524987 1.54287 -6.83475e-21)
(0.00233145 1.44778 5.90399e-21)
(0.0029456 1.3795 0)
(0.391149 1.66633 0)
(0.367403 1.29925 -8.19029e-20)
(0.302292 1.34214 0)
(0.420937 1.29989 2.27254e-20)
(0.466959 1.45849 0)
(0.447966 1.40357 1.67788e-20)
(1.03634 2.68563 -1.55195e-20)
(0.966671 2.41115 -9.18382e-19)
(0.917956 2.19425 1.04445e-18)
(0.850962 2.37735 2.43346e-19)
(0.848149 2.49661 0)
(0.918048 2.49257 0)
(0.92883 2.37492 0)
(0.907675 2.36246 -9.46977e-19)
(0.689388 2.46365 -3.99151e-19)
(0.801668 2.45362 -9.84751e-20)
(0.812419 2.42735 7.49864e-20)
(0.695598 2.39388 0)
(0.800406 2.38971 0)
(0.758939 2.40227 -3.70083e-19)
(0.769379 2.48666 0)
(0.622139 1.0994 0)
(0.486575 0.922566 -5.08697e-19)
(0.560254 0.958217 -3.2344e-20)
(0.524517 1.05415 0)
(0.525393 1.00196 7.63553e-19)
(0.78818 0.880142 -1.35265e-19)
(0.795673 1.01768 0)
(0.770044 0.979275 1.95987e-19)
(0.655699 1.03622 0)
(0.659993 0.941585 0)
(1.16569 2.75967 -2.34497e-19)
(1.14343 2.82295 -9.93942e-20)
(0.932742 2.34164 1.03689e-19)
(0.900325 2.32069 -8.44269e-20)
(1.1308 2.73321 0)
(1.08417 2.70321 1.01627e-19)
(1.09088 2.48674 -3.20031e-19)
(0.985393 2.23687 -3.07377e-20)
(0.498358 1.35099 0)
(0.512823 1.07624 -1.24746e-19)
(0.569844 1.17002 0)
(0.857722 0.232109 0)
(0.78161 0.187172 0)
(0.719792 0.14712 0)
(0.851473 0.23511 -6.54445e-19)
(0.755625 0.223907 3.82601e-19)
(0.928613 0.0760431 -4.17073e-19)
(0.943977 0.122483 0)
(0.923916 0.135858 1.78889e-19)
(0.861662 0.11074 7.18133e-19)
(0.829289 0.0682685 -4.49376e-19)
(1.16106 3.35735 -7.19523e-19)
(1.20926 3.27667 0)
(1.15909 3.38567 -1.48447e-18)
(0.646628 3.54656 1.26089e-18)
(0.870848 3.1142 6.87389e-20)
(0.520975 0.837951 6.09789e-19)
(0.433417 0.835035 0)
(0.329834 0.46066 -1.53649e-19)
(0.45688 0.670735 8.72946e-19)
(0.541054 0.427703 -2.08509e-19)
(0.511171 0.492556 2.40322e-19)
(0.665222 0.51858 5.17309e-19)
(0.697232 0.546094 0)
(0.650582 0.598053 0)
(0.607505 0.539733 0)
(0.996703 0.603085 9.87612e-20)
(0.911213 0.539557 -5.39726e-19)
(0.937517 0.573073 4.09515e-19)
(0.969713 0.510808 -4.17024e-19)
(1.07696 0.483752 0)
(1.08377 0.573102 -1.03655e-19)
(0.849009 0.392968 -8.65396e-19)
(0.851752 0.382027 -1.06905e-18)
(0.794426 0.381751 6.74979e-19)
(0.794354 0.353669 -6.89913e-19)
(0.84335 0.315519 -5.39702e-19)
(0.793232 0.313709 6.62336e-19)
(1.02668 0.00575198 -5.0283e-19)
(1.0264 0.00597638 1.02383e-18)
(1.0293 -6.31549e-05 6.37495e-19)
(1.03346 0.000832632 -7.67752e-19)
(1.03357 0.00872761 0)
(1.03005 0.00939317 -1.24945e-18)
(0.0620252 1.64427 2.5779e-20)
(0.0446693 1.57795 0)
(0.0839725 1.69475 1.56172e-19)
(0.0948505 1.67654 -1.38131e-19)
(0.0867098 1.53097 4.30331e-20)
(0.0849122 1.51647 0)
(0.0141314 1.67432 0)
(0.00148377 1.48004 7.80684e-23)
(0.00606545 1.42466 -7.02091e-23)
(0.000890328 1.53824 6.62067e-21)
(0.00533332 1.87654 -6.93841e-22)
(-0.00475327 1.92914 4.29696e-21)
(0.498035 1.37081 -2.79603e-19)
(0.491355 1.37386 3.06849e-19)
(0.446871 1.29645 -3.74925e-20)
(0.436095 1.29285 8.15629e-21)
(0.628638 1.30158 0)
(0.545383 1.38911 9.46526e-20)
(0.560671 1.39679 -9.21608e-20)
(0.45805 1.2822 3.64365e-20)
(0.513727 1.23757 0)
(0.566145 1.20477 0)
(0.656081 2.42275 5.86488e-19)
(0.670579 2.4614 1.27666e-18)
(0.716043 2.47271 -8.79414e-19)
(0.613773 2.4476 -2.05436e-19)
(0.560803 2.53939 2.86868e-19)
(0.509723 2.51271 -7.64709e-19)
(0.977541 2.38084 -5.84452e-19)
(1.01354 2.39402 0)
(0.924524 2.17238 -6.76164e-19)
(1.05444 2.6826 0)
(1.0567 2.66939 0)
(0.609782 2.26924 -1.20391e-19)
(1.0421 3.16058 1.3327e-19)
(0.91308 3.03059 -3.67316e-20)
(0.277679 0.893833 0)
(0.313453 0.749349 -3.21629e-19)
(0.476916 0.706949 -3.23876e-19)
(0.386683 2.01544 0)
(0.466111 2.78346 -4.78507e-20)
(0.421418 2.54701 0)
(0.700238 0.671362 -8.60899e-19)
(0.783571 0.676535 1.16824e-18)
(0.803527 0.61928 -1.15585e-18)
(0.679025 0.633581 -1.11184e-19)
(0.734244 0.5883 -4.59389e-19)
(1.00472 2.76267 -1.01343e-19)
(1.04301 2.82028 -1.66515e-19)
(0.638605 2.14142 6.767e-19)
(0.595206 1.70998 -4.82291e-19)
(0.699766 1.90372 -4.07894e-19)
(0.990654 2.44623 -1.1397e-19)
(0.996085 2.43888 2.99488e-19)
(0.659186 1.84013 2.82855e-20)
(0.451492 1.33124 1.46177e-19)
)
;

boundaryField
{
    wall-4
    {
        type            noSlip;
    }
    velocity-inlet-5
    {
        type            fixedValue;
        value           uniform (1 0 0);
    }
    velocity-inlet-6
    {
        type            fixedValue;
        value           uniform (0 3 0);
    }
    pressure-outlet-7
    {
        type            zeroGradient;
    }
    wall-8
    {
        type            noSlip;
    }
    frontAndBackPlanes
    {
        type            empty;
    }
}


// ************************************************************************* //
