/*--------------------------------*- C++ -*----------------------------------*\
  =========                 |
  \\      /  F ield         | OpenFOAM: The Open Source CFD Toolbox
   \\    /   O peration     | Website:  https://openfoam.org
    \\  /    A nd           | Version:  9
     \\/     M anipulation  |
\*---------------------------------------------------------------------------*/
FoamFile
{
    format      ascii;
    class       volScalarField;
    location    "49";
    object      p;
}
// * * * * * * * * * * * * * * * * * * * * * * * * * * * * * * * * * * * * * //

dimensions      [0 2 -2 0 0 0 0];

internalField   nonuniform List<scalar> 
2200
(
0.776989
0.755488
0.739581
0.723913
0.7093
0.696776
0.686415
0.678304
0.67259
0.669626
0.670074
0.673862
0.680193
0.688746
0.699422
0.71218
0.726958
0.742856
0.758886
0.780388
0.709427
0.706169
0.703243
0.69912
0.693653
0.687174
0.680549
0.674586
0.670072
0.667663
0.668135
0.671414
0.676569
0.683008
0.689979
0.696721
0.702382
0.706495
0.709362
0.712712
0.669514
0.669733
0.671788
0.673131
0.673522
0.672664
0.670676
0.66799
0.665433
0.663926
0.664461
0.666889
0.670141
0.673347
0.675675
0.676678
0.676396
0.675378
0.673708
0.673462
0.647032
0.64848
0.65108
0.653535
0.655968
0.65798
0.659128
0.659349
0.658961
0.658647
0.659251
0.660604
0.661789
0.662162
0.661464
0.659786
0.657619
0.655401
0.652785
0.65138
0.632711
0.634685
0.637498
0.640322
0.643171
0.645991
0.648435
0.65028
0.651489
0.652267
0.652969
0.653409
0.653148
0.652017
0.650143
0.64776
0.64521
0.642488
0.639696
0.637769
0.625377
0.626975
0.629173
0.631697
0.634362
0.637023
0.639603
0.642002
0.643997
0.645477
0.646299
0.646284
0.64542
0.643889
0.641967
0.63981
0.637472
0.635127
0.63303
0.631453
0.621993
0.623017
0.624283
0.62614
0.628271
0.630423
0.6326
0.634873
0.63707
0.638882
0.63987
0.639848
0.639031
0.637793
0.636371
0.634784
0.633077
0.631492
0.630368
0.629352
0.619345
0.620013
0.620644
0.621945
0.623556
0.625233
0.626967
0.628863
0.630883
0.632795
0.633987
0.63424
0.633887
0.633238
0.632443
0.631474
0.630391
0.629452
0.628999
0.628322
0.616154
0.616599
0.616991
0.61798
0.619233
0.620606
0.622083
0.623717
0.625522
0.627424
0.628875
0.629606
0.629818
0.629725
0.629402
0.628904
0.628298
0.627741
0.627544
0.62708
0.612194
0.612493
0.612851
0.613713
0.614809
0.616059
0.617469
0.619049
0.62081
0.622769
0.62455
0.625796
0.626497
0.626811
0.626841
0.626646
0.626302
0.625944
0.625803
0.625481
0.607537
0.60774
0.608107
0.608933
0.610025
0.61133
0.612836
0.614533
0.616446
0.618618
0.620788
0.62249
0.623604
0.624223
0.624486
0.624514
0.62435
0.624135
0.624012
0.623778
0.602411
0.602556
0.602928
0.603735
0.604873
0.606294
0.607993
0.609956
0.612191
0.614753
0.617431
0.619626
0.621092
0.62197
0.622414
0.622593
0.622596
0.622515
0.622423
0.62224
0.596924
0.597033
0.59741
0.598224
0.599434
0.601013
0.602952
0.605265
0.607993
0.611157
0.614422
0.617077
0.618897
0.620044
0.62072
0.621082
0.62127
0.621315
0.621263
0.621107
0.591042
0.591111
0.591489
0.592336
0.593675
0.595448
0.59766
0.600365
0.603644
0.607515
0.611531
0.614754
0.616976
0.618501
0.619518
0.620146
0.620548
0.620716
0.620705
0.620559
0.584644
0.584684
0.5851
0.586002
0.587462
0.589429
0.591928
0.59505
0.598922
0.603583
0.608455
0.612505
0.615395
0.617429
0.61887
0.619837
0.620453
0.620756
0.620793
0.620654
0.577703
0.577664
0.578072
0.579055
0.580728
0.582934
0.585749
0.589351
0.593944
0.599576
0.605533
0.610553
0.614253
0.616917
0.618873
0.620247
0.621128
0.621587
0.621671
0.621533
0.56991
0.569888
0.570343
0.571461
0.573344
0.575857
0.579132
0.583365
0.588792
0.595544
0.602809
0.608988
0.613661
0.617114
0.619642
0.621452
0.622638
0.62326
0.6234
0.623255
0.561147
0.561173
0.561588
0.562785
0.565015
0.567989
0.571881
0.576908
0.583366
0.591471
0.60031
0.607979
0.613768
0.618089
0.621304
0.62359
0.625097
0.625882
0.626078
0.625924
0.550943
0.550917
0.551457
0.552886
0.555451
0.558993
0.563713
0.56983
0.577661
0.587489
0.598244
0.607566
0.6147
0.620018
0.623934
0.626762
0.62864
0.629593
0.62984
0.629667
0.538856
0.538786
0.539456
0.541277
0.544386
0.548704
0.554525
0.562119
0.571868
0.583965
0.596961
0.608039
0.6165
0.622904
0.627658
0.631075
0.633345
0.634474
0.634768
0.634579
0.524536
0.52442
0.525184
0.527404
0.531309
0.536749
0.544062
0.55359
0.565749
0.580582
0.596152
0.609292
0.619286
0.626884
0.632537
0.636687
0.639387
0.64069
0.641027
0.640813
0.507097
0.507003
0.507987
0.510735
0.515609
0.52249
0.531743
0.54367
0.558675
0.576719
0.595429
0.611143
0.623003
0.631978
0.638749
0.643654
0.646817
0.648315
0.648695
0.648448
0.485544
0.485382
0.486672
0.490214
0.496494
0.505389
0.517205
0.532248
0.550741
0.572541
0.594881
0.613528
0.627615
0.638248
0.646249
0.652068
0.655766
0.657444
0.657844
0.657551
0.457661
0.457666
0.459709
0.464631
0.473124
0.485065
0.500633
0.519876
0.542793
0.569068
0.595426
0.617129
0.633436
0.645799
0.655145
0.661942
0.666154
0.667988
0.668369
0.66802
0.420481
0.420716
0.424224
0.432049
0.444552
0.46143
0.48228
0.506993
0.535339
0.566775
0.5974
0.622224
0.640806
0.654869
0.665532
0.673241
0.677845
0.679731
0.680052
0.679647
0.370764
0.371151
0.378088
0.391158
0.410085
0.434128
0.462009
0.493378
0.527956
0.565139
0.600469
0.628558
0.649436
0.665273
0.677274
0.685748
0.690509
0.692228
0.692369
0.692002
0.304935
0.307751
0.322808
0.344028
0.371768
0.404612
0.440565
0.47936
0.520854
0.56448
0.605037
0.63708
0.661043
0.679234
0.692946
0.70264
0.70775
0.70929
0.709261
0.709086
0.229932
0.239333
0.264368
0.295406
0.33322
0.375057
0.419112
0.465524
0.514199
0.564529
0.611168
0.648104
0.675707
0.696746
0.712824
0.723884
0.729312
0.730498
0.730402
0.730388
0.162805
0.177565
0.208907
0.24867
0.295941
0.346597
0.39868
0.452829
0.508874
0.566108
0.618714
0.659848
0.690627
0.714146
0.731749
0.743918
0.749758
0.7508
0.751168
0.751151
0.111547
0.124759
0.161501
0.207434
0.262036
0.320176
0.379679
0.441178
0.504218
0.567985
0.625601
0.670918
0.704766
0.730385
0.749729
0.762952
0.769187
0.770965
0.771131
0.771157
0.0693062
0.0817577
0.122138
0.172047
0.232164
0.296297
0.362233
0.430172
0.499351
0.569002
0.632108
0.681336
0.717588
0.74538
0.766183
0.780218
0.787178
0.789397
0.789601
0.789727
0.0330116
0.0457587
0.0888849
0.141629
0.206005
0.27489
0.346209
0.419744
0.494705
0.570254
0.638507
0.690749
0.729578
0.758838
0.780826
0.795562
0.802788
0.805239
0.805498
0.805599
0.00136587
0.014314
0.0595686
0.114883
0.182787
0.255598
0.331517
0.41
0.490158
0.570694
0.642864
0.698741
0.739708
0.770374
0.79312
0.808348
0.816075
0.818687
0.819068
0.819141
-0.0269937
-0.0139509
0.0329001
0.0906727
0.161743
0.237968
0.317867
0.400609
0.485181
0.570356
0.647187
0.705992
0.748432
0.780099
0.803371
0.819097
0.827005
0.829906
0.830361
0.830416
-0.0529463
-0.0398343
0.00822447
0.0683418
0.142186
0.221416
0.304767
0.391199
0.479861
0.569675
0.650392
0.711457
0.755857
0.788516
0.812163
0.8281
0.836445
0.839471
0.840002
0.840021
-0.0772931
-0.06388
-0.0148846
0.0474071
0.123656
0.205517
0.291882
0.381668
0.474188
0.567985
0.652228
0.716559
0.762483
0.795831
0.820087
0.836045
0.844475
0.8476
0.848167
0.848096
-0.10019
-0.0866042
-0.0367218
0.0274794
0.105787
0.189994
0.279087
0.371902
0.467794
0.565252
0.653678
0.720967
0.768369
0.802876
0.827252
0.843097
0.851482
0.854566
0.855106
0.854929
-0.121843
-0.108187
-0.0575415
0.00827423
0.0883795
0.174722
0.266268
0.361738
0.460645
0.561786
0.654193
0.724424
0.774101
0.809377
0.83392
0.849636
0.857696
0.860742
0.861227
0.861138
-0.142632
-0.128794
-0.0775336
-0.0103503
0.0713205
0.159569
0.253282
0.351127
0.452855
0.557529
0.653842
0.727625
0.779693
0.81596
0.840483
0.855778
0.863672
0.866456
0.866929
0.866828
-0.16294
-0.148607
-0.0968755
-0.0285001
0.0545337
0.14446
0.240093
0.340132
0.444508
0.55245
0.652658
0.730242
0.784911
0.822651
0.847351
0.862148
0.869381
0.871877
0.872227
0.872132
-0.182895
-0.167844
-0.115669
-0.0462236
0.0379836
0.129382
0.226746
0.32881
0.43562
0.546616
0.650711
0.73222
0.790039
0.829864
0.854961
0.868927
0.875303
0.876971
0.877185
0.877075
-0.202394
-0.186606
-0.133975
-0.0635429
0.0216901
0.114385
0.213295
0.317183
0.426194
0.539974
0.647614
0.733174
0.794906
0.837479
0.863711
0.876818
0.881457
0.88174
0.881617
0.881513
-0.221335
-0.20494
-0.151794
-0.0804346
0.00570132
0.0995186
0.199764
0.305246
0.416202
0.532473
0.64351
0.733314
0.79927
0.845607
0.874062
0.886492
0.888846
0.886248
0.885716
0.886546
-0.239643
-0.222787
-0.169106
-0.096877
-0.00993921
0.0848295
0.186193
0.293048
0.405751
0.524237
0.638213
0.73211
0.802963
0.853876
0.886093
0.899376
0.899223
0.892556
0.887437
0.885965
-0.257316
-0.240094
-0.185864
-0.112836
-0.0251909
0.0703696
0.172648
0.280679
0.394917
0.515251
0.631685
0.729494
0.805185
0.861944
0.89965
0.91636
0.917397
0.905375
0.904112
0.908355
-0.274334
-0.256771
-0.202021
-0.128277
-0.0400113
0.0562072
0.159234
0.268238
0.383751
0.505635
0.624099
0.725122
0.805739
0.868768
0.913684
0.937221
0.941953
0.913406
0.872747
0.836621
-0.290657
-0.272836
-0.2176
-0.143262
-0.0544935
0.0422335
0.145817
0.255537
0.371988
0.495133
0.615251
0.718681
0.803459
0.873185
0.927134
0.960799
0.980563
0.963435
0.980313
1.03824
-0.306229
-0.288304
-0.232686
-0.157926
-0.0688113
0.0282296
0.132124
0.242231
0.359208
0.483213
0.604513
0.709389
0.797351
0.872406
0.931693
0.969686
0.982713
0.962454
0.921864
0.936209
-0.321036
-0.30317
-0.247225
-0.172202
-0.0828811
0.014292
0.118272
0.22847
0.345598
0.469969
0.591811
0.697197
0.785572
0.861881
0.921624
0.958766
0.948196
0.895437
0.831926
0.819782
-0.335055
-0.317404
-0.261217
-0.186093
-0.0967044
0.000415992
0.104271
0.214301
0.331218
0.455389
0.576978
0.68167
0.767861
0.839511
0.893389
0.903333
0.869275
0.793294
0.719202
0.697635
-0.348333
-0.331023
-0.274674
-0.199618
-0.110306
-0.0134115
0.0901313
0.199754
0.316113
0.439507
0.560014
0.662638
0.743195
0.803038
0.832328
0.82042
0.763911
0.662921
0.575971
0.554286
-0.361324
-0.344415
-0.288002
-0.213156
-0.124043
-0.0275012
0.0755891
0.184605
0.300069
0.422104
0.540685
0.639515
0.712662
0.756863
0.75216
0.718041
0.608425
0.486646
0.37969
0.352992
-0.374931
-0.358409
-0.301901
-0.22733
-0.138492
-0.0423349
0.0602336
0.1685
0.28281
0.40302
0.518785
0.612017
0.678025
0.698273
0.664815
0.578084
0.422899
0.270846
0.142072
0.114855
-0.389668
-0.373373
-0.316702
-0.242389
-0.153831
-0.0580436
0.0439688
0.15138
0.264328
0.382224
0.494059
0.581071
0.636581
0.628962
0.576505
0.427799
0.228633
0.0165806
-0.163108
-0.211159
-0.405657
-0.389451
-0.332454
-0.25834
-0.170042
-0.0746036
0.0268159
0.133271
0.244688
0.359851
0.466567
0.548091
0.588553
0.54956
0.462692
0.275451
0.0446778
-0.243622
-0.564709
-0.712113
-0.422961
-0.406671
-0.349286
-0.275288
-0.187179
-0.0920852
0.00869941
0.114113
0.223848
0.335951
0.436815
0.512436
0.535253
0.465611
0.329876
0.124703
-0.109112
-0.45274
-1.03976
-1.61186
-0.441669
-0.425201
-0.367249
-0.293276
-0.205272
-0.110484
-0.0103405
0.0939883
0.20196
0.310913
0.405797
0.473547
0.478257
0.39184
0.201414
-0.0321857
-0.234873
-0.469642
-1.02606
-2.54415
-0.461786
-0.445019
-0.38647
-0.312451
-0.224476
-0.130003
-0.0305475
0.0726182
0.178677
0.28433
0.37334
0.431629
0.416541
0.334162
0.108349
-0.129832
-0.277795
-0.315153
-0.305377
-0.693901
-0.483259
-0.466421
-0.407089
-0.333092
-0.245204
-0.151134
-0.0525306
0.0492426
0.153059
0.254798
0.338361
0.386383
0.355763
0.285616
0.0590043
-0.143821
-0.254736
-0.262673
-0.209459
-0.249852
-0.505901
-0.489104
-0.429138
-0.355287
-0.267521
-0.174006
-0.076457
0.0236903
0.124911
0.222191
0.301146
0.339296
0.302215
0.232916
0.0272202
-0.133968
-0.216328
-0.224065
-0.271901
-0.276277
-0.529785
-0.513026
-0.452478
-0.379003
-0.291432
-0.198635
-0.102354
-0.00408855
0.0942292
0.18687
0.261265
0.290181
0.255637
0.172841
-0.000650814
-0.12433
-0.194626
-0.170884
-0.191646
-0.193189
-0.554566
-0.537642
-0.477079
-0.404174
-0.316764
-0.224949
-0.130159
-0.0339875
0.0611545
0.149259
0.219142
0.237416
0.214864
0.10539
-0.0353665
-0.118992
-0.158794
-0.20518
-0.180518
-0.188841
-0.580031
-0.5627
-0.502715
-0.430564
-0.343326
-0.252784
-0.159666
-0.0657888
0.0258035
0.109702
0.175545
0.183757
0.17248
0.044895
-0.0722399
-0.136815
-0.11557
-0.175232
-0.155731
-0.160538
-0.605256
-0.587713
-0.52928
-0.457823
-0.370745
-0.281894
-0.19059
-0.0991638
-0.0115756
0.0685841
0.131582
0.132409
0.12145
-0.00723317
-0.0995126
-0.151279
-0.138884
-0.155507
-0.160825
-0.159188
-0.629869
-0.612467
-0.555891
-0.485176
-0.398734
-0.311906
-0.222506
-0.133667
-0.0504506
0.0261469
0.0877004
0.0846477
0.0652027
-0.0508279
-0.115023
-0.145737
-0.182938
-0.156406
-0.163123
-0.157873
-0.652838
-0.636171
-0.581553
-0.511854
-0.426861
-0.342253
-0.254886
-0.168765
-0.0899448
-0.0172604
0.0436641
0.0406421
0.0101493
-0.0885598
-0.13236
-0.12207
-0.191959
-0.140907
-0.15537
-0.148349
-0.673505
-0.657951
-0.605221
-0.536834
-0.454709
-0.372151
-0.287041
-0.203813
-0.129057
-0.0611225
-0.000711521
-0.000610435
-0.037466
-0.10755
-0.146072
-0.10878
-0.152349
-0.131548
-0.137092
-0.134272
-0.69029
-0.676363
-0.626225
-0.559737
-0.481134
-0.400566
-0.318141
-0.238009
-0.166771
-0.104525
-0.0455287
-0.0409464
-0.0736712
-0.110566
-0.140523
-0.120576
-0.132065
-0.131492
-0.1301
-0.129859
-0.702354
-0.690507
-0.643466
-0.579512
-0.504579
-0.4266
-0.347189
-0.270379
-0.202248
-0.146188
-0.0889026
-0.0797401
-0.107018
-0.103755
-0.119007
-0.138559
-0.125345
-0.135242
-0.130968
-0.131218
-0.708285
-0.698832
-0.655928
-0.595113
-0.523752
-0.449063
-0.37308
-0.299726
-0.23449
-0.184111
-0.128887
-0.118051
-0.148851
-0.110815
-0.0623461
-0.109367
-0.09938
-0.133298
-0.138932
-0.141059
-0.70799
-0.700656
-0.661918
-0.604797
-0.537422
-0.466611
-0.394402
-0.324626
-0.262405
-0.216345
-0.163524
-0.155718
-0.197853
-0.169073
-0.0529701
-0.07662
-0.10081
-0.125629
-0.132907
-0.135654
-0.70049
-0.69323
-0.659682
-0.607574
-0.544769
-0.478171
-0.409903
-0.343425
-0.283978
-0.240078
-0.192376
-0.194143
-0.260593
-0.349386
-0.41847
-0.493125
-0.50418
-0.469106
-0.436606
-0.416085
-0.681115
-0.673009
-0.64687
-0.601709
-0.544545
-0.482654
-0.418432
-0.354582
-0.296176
-0.252675
-0.209005
-0.210615
-0.340147
-0.597664
-0.968205
-1.18073
-1.19936
-1.15639
-1.04682
-0.961065
-0.641397
-0.633808
-0.622189
-0.587842
-0.537291
-0.480071
-0.419678
-0.356944
-0.29648
-0.249192
-0.207441
-0.182072
-0.291508
-0.505126
-0.737978
-0.810654
-0.747696
-0.661766
-0.600332
-0.563419
-0.59776
-0.594399
-0.592746
-0.566253
-0.523714
-0.471588
-0.413599
-0.350499
-0.284192
-0.224576
-0.17135
-0.0846178
0.0148905
0.175142
0.317409
0.485315
0.625883
0.717899
0.778588
0.833329
-0.572957
-0.573842
-0.565982
-0.54705
-0.510432
-0.460603
-0.402077
-0.336843
-0.261823
-0.179447
-0.0942278
0.0566559
0.290288
0.663612
1.02071
1.30761
1.50621
1.62126
1.67385
1.68794
-0.541452
-0.542263
-0.537053
-0.529357
-0.497635
-0.449693
-0.389339
-0.32055
-0.238124
-0.138851
-0.0297199
0.11952
0.381892
0.739138
1.09018
1.37921
1.58544
1.70497
1.7582
1.77548
-0.516335
-0.515291
-0.516127
-0.511752
-0.486533
-0.441054
-0.37896
-0.305513
-0.219162
-0.113305
0.0018209
0.11773
0.356478
0.659755
0.960369
1.21946
1.41969
1.54104
1.59507
1.61051
-0.498533
-0.496289
-0.498255
-0.492136
-0.477233
-0.435819
-0.372039
-0.295064
-0.207762
-0.104162
0.00474932
0.0851671
0.280088
0.535047
0.77972
0.991057
1.16099
1.26451
1.30959
1.3208
-0.488584
-0.486376
-0.484922
-0.481668
-0.475244
-0.431818
-0.366535
-0.288589
-0.20394
-0.11016
-0.00799247
0.0511905
0.198755
0.410827
0.604654
0.765258
0.893825
0.973508
1.00802
1.01698
-0.495216
-0.494165
-0.493888
-0.500529
-0.489174
-0.433083
-0.362752
-0.283773
-0.202256
-0.121156
-0.0251597
0.0244067
0.127858
0.297579
0.448586
0.567373
0.660533
0.720522
0.746306
0.751839
-0.502787
-0.504242
-0.509295
-0.515237
-0.494973
-0.431212
-0.355874
-0.276064
-0.197857
-0.129432
-0.0406475
0.00509505
0.0719008
0.202677
0.318548
0.406574
0.473857
0.517695
0.535277
0.540588
-0.46976
-0.472721
-0.480964
-0.484558
-0.462349
-0.403103
-0.333377
-0.259496
-0.187079
-0.130429
-0.051733
-0.00842658
0.0335876
0.132654
0.218795
0.282169
0.331641
0.363854
0.377274
0.381857
-0.371606
-0.376065
-0.382276
-0.385587
-0.369656
-0.330299
-0.281495
-0.226525
-0.166195
-0.121387
-0.056914
-0.0186839
0.00867896
0.085745
0.147825
0.191432
0.22841
0.252957
0.26261
0.265086
-0.243101
-0.245874
-0.249023
-0.25158
-0.244848
-0.228694
-0.205717
-0.175172
-0.135568
-0.102459
-0.0558895
-0.0245001
-0.0053176
0.0540267
0.0982928
0.1284
0.153184
0.168736
0.175435
0.17708
-0.127902
-0.12931
-0.131631
-0.135465
-0.136525
-0.135614
-0.130938
-0.119324
-0.0994552
-0.0791461
-0.0497349
-0.0264177
-0.0106774
0.033035
0.0628469
0.0832083
0.0975075
0.105331
0.10794
0.10803
-0.0429234
-0.043818
-0.0456646
-0.0507656
-0.0585553
-0.0665783
-0.0715942
-0.0716273
-0.0654483
-0.0565885
-0.0401752
-0.0248557
-0.0121636
0.0173728
0.036293
0.0480728
0.0550567
0.0577356
0.0573596
0.0563129
0.00916023
0.00844015
0.00673874
0.00110124
-0.00936116
-0.021367
-0.0310172
-0.0372102
-0.0385488
-0.037648
-0.0295446
-0.020281
-0.0114956
0.0049711
0.0155052
0.0213943
0.023955
0.0235822
0.0219345
0.0205125
0.0351367
0.0345691
0.0330062
0.0275931
0.0174517
0.00503898
-0.00622992
-0.0151776
-0.0201339
-0.0236947
-0.0199281
-0.0153302
-0.0112117
-0.00380848
0.000474302
0.00238382
0.0026951
0.00110064
-0.00104693
-0.00253013
0.0451147
0.044665
0.0433538
0.0387304
0.0299459
0.0187411
0.00759421
-0.00217288
-0.00870149
-0.0141538
-0.0128019
-0.0111535
-0.0109119
-0.00905886
-0.00858257
-0.0089132
-0.00984992
-0.011848
-0.0138729
-0.0153487
0.0460144
0.0456869
0.0446704
0.0410814
0.0341654
0.0249944
0.0151067
0.00559501
-0.00144268
-0.00770355
-0.00792459
-0.00897221
-0.0108618
-0.0106283
-0.0118677
-0.0130816
-0.0152147
-0.0177697
-0.0196292
-0.0209617
0.042374
0.0421468
0.0413972
0.0387425
0.0336172
0.026649
0.018672
0.0102906
0.0037825
-0.00307908
-0.00460174
-0.00691238
-0.0103165
-0.0106936
-0.01239
-0.0145262
-0.0169716
-0.019277
-0.0207856
-0.0219154
0.0368234
0.0366784
0.0361406
0.0342815
0.0306321
0.0255294
0.0194706
0.0125374
0.00709067
-2.85014e-06
-0.00252917
-0.00479965
-0.00791988
-0.00913419
-0.0111813
-0.0135274
-0.0157969
-0.0175639
-0.0185991
-0.0195933
0.030739
0.0306363
0.0302474
0.0289526
0.0263667
0.0226649
0.0181149
0.0126209
0.00840155
0.00181863
-0.000948443
-0.00349999
-0.00609246
-0.00689413
-0.0088967
-0.0110623
-0.0128247
-0.0140717
-0.0146689
-0.0155106
0.0250157
0.0249342
0.0246523
0.0237449
0.0219087
0.0192142
0.0157075
0.0113201
0.00817243
0.00275399
-4.87484e-05
-0.00216672
-0.00481453
-0.00556742
-0.00683572
-0.00824293
-0.00946787
-0.0103712
-0.0106804
-0.0113778
0.0199026
0.0198318
0.0196185
0.0189996
0.017783
0.01588
0.0133317
0.00990886
0.00745438
0.00296397
0.000622433
-0.00147418
-0.00390262
-0.00414432
-0.00508254
-0.00602731
-0.0067635
-0.00722422
-0.00732531
-0.00790467
0.0156717
0.0156062
0.0154451
0.0150005
0.0141453
0.0128084
0.0110072
0.00840657
0.00658493
0.00269714
0.000716008
-0.00172161
-0.0037576
-0.00303054
-0.00329935
-0.00345248
-0.00356519
-0.0036866
-0.00363442
-0.00419351
0.012186
0.0121515
0.0120665
0.0118073
0.0112396
0.0102461
0.00894793
0.00695437
0.0055808
0.00233948
0.000515373
-0.00158847
-0.00320324
-0.00256866
-0.00194868
-0.0011729
-0.000836788
-0.000810132
-0.000791432
-0.00131496
0.00898125
0.00892863
0.00884959
0.00869107
0.00833321
0.00768141
0.00683816
0.00536996
0.00450417
0.00211679
0.000711176
-0.00121563
-0.00245482
-0.00175035
-0.00101814
-0.000207092
0.000557671
0.000868458
0.000950681
0.000432354
0.00612116
0.00607627
0.00601697
0.00594733
0.00570919
0.00529277
0.00475612
0.00370656
0.00330796
0.00157546
0.000967549
-0.000629532
-0.00152318
-0.000884156
-0.000481111
0.000108735
0.000796983
0.00122873
0.00134676
0.000783104
0.00362954
0.00359019
0.00356088
0.00355551
0.00344147
0.00323737
0.00289643
0.00216914
0.00215896
0.000897177
0.00107189
0.000312648
-0.0001986
-3.46255e-06
-0.000209636
-0.000160563
0.000168072
0.000486203
0.000726438
0.000306537
0.00149735
0.00146581
0.00143571
0.00138707
0.00129845
0.00128893
0.00117782
0.000748744
0.00110993
0.000374061
0.00108695
0.00117041
0.000866072
0.000720574
-0.000343546
-0.00147618
-0.00234084
-0.00297437
-0.00269014
-0.0027481
-1.07539
-0.234006
0.0361011
0.312882
0.49521
0.651999
0.779441
0.90928
1.05152
1.13321
-0.0936077
0.313855
0.33095
0.519615
0.644276
0.756127
0.852485
0.938243
0.96581
0.923603
0.284526
0.498835
0.534516
0.671179
0.757589
0.837831
0.903997
0.953634
0.955822
0.969791
0.51477
0.658216
0.693462
0.795738
0.852711
0.910799
0.955762
0.988198
0.997305
1.02095
0.693329
0.795128
0.824893
0.892949
0.937396
0.978681
1.01091
1.03522
1.04504
1.07658
0.837032
0.906081
0.936453
0.979574
1.01575
1.04599
1.07035
1.09109
1.10526
1.13351
0.956477
1.00718
1.0328
1.06089
1.08865
1.11248
1.13248
1.15172
1.16663
1.19311
1.06045
1.09753
1.11865
1.13936
1.16021
1.17964
1.19705
1.21516
1.23004
1.25369
1.15457
1.18372
1.20009
1.21538
1.23152
1.24759
1.26314
1.28005
1.29366
1.31598
1.24292
1.26339
1.27826
1.29143
1.305
1.31877
1.33227
1.34686
1.3584
1.37804
1.32839
1.34419
1.35801
1.36982
1.38172
1.39335
1.40449
1.41617
1.42385
1.44066
1.41363
1.42617
1.43987
1.45162
1.46225
1.47204
1.48086
1.48913
1.49269
1.50395
1.50236
1.51316
1.52663
1.53617
1.54375
1.55103
1.55823
1.56473
1.56581
1.57318
1.60075
1.60534
1.61354
1.61831
1.62171
1.6262
1.63219
1.63988
1.64376
1.65364
1.71406
1.70096
1.69368
1.68795
1.68522
1.68657
1.69294
1.7053
1.72011
1.74977
1.83606
1.78003
1.74901
1.73181
1.72359
1.72354
1.73235
1.75194
1.78379
1.85304
)
;

boundaryField
{
    wall-4
    {
        type            zeroGradient;
    }
    pressure-outlet-7
    {
        type            fixedValue;
        value           uniform 0;
    }
    velocity-inlet-6
    {
        type            zeroGradient;
    }
    velocity-inlet-5
    {
        type            zeroGradient;
    }
    frontAndBackPlanes
    {
        type            empty;
    }
}


// ************************************************************************* //
