/*--------------------------------*- C++ -*----------------------------------*\
  =========                 |
  \\      /  F ield         | OpenFOAM: The Open Source CFD Toolbox
   \\    /   O peration     | Website:  https://openfoam.org
    \\  /    A nd           | Version:  9
     \\/     M anipulation  |
\*---------------------------------------------------------------------------*/
FoamFile
{
    format      ascii;
    class       surfaceScalarField;
    location    "49";
    object      phi;
}
// * * * * * * * * * * * * * * * * * * * * * * * * * * * * * * * * * * * * * //

dimensions      [0 3 -1 0 0 0 0];

internalField   nonuniform List<scalar> 
4262
(
0.107142
0.470846
0.0955852
0.705143
0.069413
0.858475
0.0474131
1.02076
0.031035
1.21489
0.0198406
1.44941
0.0124636
1.73324
0.00728527
2.07621
0.00337182
2.48916
-0.000271882
2.98594
-0.00391237
2.98593
-0.00780313
2.48913
-0.012885
2.07612
-0.0201734
1.73315
-0.0311932
1.44924
-0.0472665
1.21459
-0.0690184
1.02052
-0.0952571
0.858542
-0.107082
0.705411
0.470906
0.112879
0.357967
0.13529
0.682733
0.120386
0.873378
0.0978258
1.04332
0.0745769
1.23814
0.0528385
1.47115
0.034428
1.75165
0.0202032
2.09044
0.00887445
2.50049
-0.00123791
2.99605
-0.0112579
2.99595
-0.0222953
2.50017
-0.0363228
2.09015
-0.0545561
1.75139
-0.0762912
1.47097
-0.099978
1.23828
-0.123114
1.04365
-0.136831
0.872259
-0.113502
0.682082
0.357405
0.0920787
0.265888
0.12504
0.649771
0.121201
0.877217
0.104976
1.05955
0.0863553
1.25676
0.0672308
1.49028
0.0482677
1.77061
0.0302308
2.10848
0.013778
2.51694
-0.00205658
3.01188
-0.0177899
3.01169
-0.0339664
2.51635
-0.0515629
2.10774
-0.0699893
1.76981
-0.0884491
1.48943
-0.105842
1.25567
-0.120114
1.05792
-0.125303
0.877447
-0.0923605
0.64914
0.265044
0.0640239
0.201864
0.10489
0.608905
0.106648
0.875459
0.095222
1.07098
0.0813259
1.27066
0.0666685
1.50493
0.0505727
1.78671
0.0334024
2.12565
0.0156233
2.53472
-0.00318247
3.03069
-0.0216807
3.03018
-0.038954
2.53362
-0.0554454
2.12423
-0.0706975
1.78506
-0.084437
1.50317
-0.0980424
1.26927
-0.109768
1.06965
-0.106868
0.874548
-0.0648379
0.607109
0.200206
0.0375005
0.164364
0.0807983
0.565607
0.0912071
0.86505
0.0840807
1.0781
0.0714714
1.28327
0.0596041
1.5168
0.0466654
1.79965
0.0317919
2.14052
0.0149579
2.55155
-0.00410816
3.04975
-0.0229048
3.04898
-0.0390356
2.54975
-0.0529345
2.13813
-0.0650494
1.79718
-0.0763991
1.51452
-0.0883879
1.28126
-0.0947824
1.07604
-0.0830248
0.86279
-0.0383153
0.5624
0.161891
0.019505
0.144859
0.0573061
0.527806
0.0727102
0.849646
0.0706375
1.08017
0.06189
1.29202
0.0510372
1.52765
0.0399034
1.81078
0.0273417
2.15308
0.0122695
2.56662
-0.00540706
3.06743
-0.0227326
3.06631
-0.0368759
2.5639
-0.0484335
2.14969
-0.0584962
1.80724
-0.0683955
1.52442
-0.0761001
1.28897
-0.076978
1.07692
-0.0599179
0.84573
-0.0203509
0.522833
0.14154
0.0106592
0.134199
0.042501
0.495965
0.058704
0.833443
0.0590245
1.07985
0.0528922
1.29815
0.0435536
1.53699
0.033218
1.82112
0.0219179
2.16438
0.00878578
2.57976
-0.00700143
3.08322
-0.0222562
3.08156
-0.0342157
2.57586
-0.0441
2.15957
-0.0530972
1.81624
-0.0611505
1.53248
-0.0658421
1.29366
-0.0639733
1.07505
-0.0457018
0.827459
-0.0116481
0.488779
0.129892
0.00664551
0.127554
0.0331605
0.46945
0.0496
0.817004
0.0512636
1.07819
0.0462637
1.30315
0.0379417
1.54531
0.0282672
1.83079
0.0173807
2.17527
0.00539941
2.59174
-0.00845878
3.09708
-0.0218741
3.09498
-0.032699
2.58668
-0.042004
2.16888
-0.0498287
1.82406
-0.0563684
1.53902
-0.0595445
1.29684
-0.0559994
1.07151
-0.0370131
0.808472
-0.0078156
0.459582
0.122076
0.00474717
0.122807
0.0266581
0.447539
0.0425104
0.801151
0.0447209
1.07598
0.0402931
1.30758
0.0328847
1.55272
0.0239167
1.83976
0.0134405
2.18574
0.00167857
2.6035
-0.0112842
3.11004
-0.0232134
3.10691
-0.0330384
2.5965
-0.0414019
2.17724
-0.0483059
1.83097
-0.053672
1.54438
-0.0559999
1.29916
-0.0511072
1.06661
-0.0316538
0.789019
-0.00626564
0.434193
0.115811
0.00379463
0.119012
0.0219181
0.429415
0.0372699
0.785799
0.0401373
1.07311
0.0358201
1.31189
0.0285309
1.56001
0.0198833
1.84841
0.00996368
2.19566
-0.00106436
2.61453
-0.0130957
3.12207
-0.0246305
3.11844
-0.033995
2.60587
-0.0414063
2.18465
-0.0474165
1.83698
-0.0522208
1.54919
-0.0536327
1.30058
-0.0474121
1.06039
-0.0278138
0.769421
-0.00562868
0.412008
0.110182
0.00312209
0.11589
0.0177287
0.414809
0.0318095
0.771719
0.0349297
1.06999
0.0309473
1.31588
0.0239348
1.56703
0.0156092
1.85673
0.00594749
2.20533
-0.00515921
2.62563
-0.0173188
3.13423
-0.0280059
3.12913
-0.0361029
2.61397
-0.0426669
2.19122
-0.0478406
1.84215
-0.0516961
1.55304
-0.0520409
1.30092
-0.0446233
1.05298
-0.0249748
0.749772
-0.00532731
0.392361
0.104855
0.00244719
0.113443
0.0140909
0.403165
0.0269019
0.758908
0.0301352
1.06676
0.0262063
1.31981
0.0192833
1.57395
0.011039
1.86498
0.00165168
2.21471
-0.00875016
2.63604
-0.0201241
3.1456
-0.0304891
3.13949
-0.0383736
2.62185
-0.0440944
2.19694
-0.0486005
1.84666
-0.0517245
1.55617
-0.0512585
1.30045
-0.0424753
1.04419
-0.0228468
0.730144
-0.00514757
0.374662
0.0997073
0.00171085
0.111732
0.0106112
0.394265
0.0216338
0.747885
0.0245997
1.06379
0.0208454
1.32356
0.0140744
1.58072
0.00583056
1.87322
-0.00349618
2.22404
-0.0142356
2.64678
-0.026071
3.15744
-0.0358594
3.14928
-0.0424062
2.6284
-0.0470938
2.20163
-0.0506776
1.85024
-0.0523949
1.55788
-0.0510402
1.2991
-0.0410445
1.0342
-0.0213798
0.710479
-0.0050235
0.358305
0.0946838
0.000917248
0.110815
0.00732099
0.387861
0.0167073
0.738499
0.0192084
1.06129
0.0151449
1.32762
0.00816138
1.5877
-0.00025133
1.88163
-0.00993145
2.23372
-0.0203333
2.65718
-0.0308416
3.16795
-0.0398722
3.15831
-0.0461323
2.63466
-0.0500691
2.20556
-0.0528329
1.853
-0.0536308
1.55868
-0.0514068
1.29688
-0.0401224
1.02291
-0.0203277
0.690684
-0.00491671
0.342894
0.0897671
0.000214906
0.1106
0.00433817
0.383738
0.0112139
0.731623
0.0125354
1.05997
0.00812355
1.33203
0.00093219
1.59489
-0.00783318
1.8904
-0.0175481
2.24343
-0.0281032
2.66773
-0.0388625
3.17871
-0.0468623
3.16631
-0.0513315
2.63913
-0.0542353
2.20847
-0.0560552
1.85482
-0.0560425
1.55867
-0.0523721
1.29321
-0.0399698
1.01051
-0.0199006
0.670615
-0.00495833
0.327952
0.0848087
-0.000759362
0.111359
0.000666348
0.382312
0.00567198
0.726617
0.00623337
1.05941
0.000950956
1.33732
-0.0072038
1.60305
-0.0165764
1.89977
-0.0267083
2.25357
-0.0369777
2.678
-0.0465001
3.18823
-0.0533492
3.17316
-0.0573151
2.64309
-0.0592628
2.21041
-0.0603208
1.85588
-0.0594692
1.55782
-0.0542046
1.28794
-0.0402748
0.99658
-0.0197168
0.650057
-0.00499302
0.313228
0.0798157
-0.00161239
0.112972
-0.00245679
0.383156
-0.000487746
0.724648
-0.00199857
1.06092
-0.00805155
1.34337
-0.0166754
1.61167
-0.0267188
1.90982
-0.0374088
2.26426
-0.0482225
2.68882
-0.0581518
3.19816
-0.0645046
3.17951
-0.06697
2.64556
-0.0674911
2.21094
-0.0669085
1.8553
-0.0645045
1.55541
-0.0576692
1.28111
-0.0418339
0.980745
-0.0203196
0.628543
-0.00525898
0.298168
0.0745567
-0.00296342
0.115935
-0.00618151
0.386374
-0.00760133
0.726068
-0.0101502
1.06347
-0.0172312
1.35045
-0.027256
1.6217
-0.0382812
1.92084
-0.049672
2.27565
-0.0607271
2.69987
-0.0698863
3.20732
-0.0745585
3.18419
-0.075671
2.64667
-0.0749691
2.21023
-0.0737266
1.85406
-0.0704053
1.55209
-0.0616863
1.27239
-0.0437997
0.962858
-0.0212085
0.605952
-0.00557302
0.282532
0.0689837
-0.00427874
0.120214
-0.0104484
0.392544
-0.0154191
0.731039
-0.0213706
1.06942
-0.0295302
1.35861
-0.0401324
1.6323
-0.0521063
1.93282
-0.0647404
2.28828
-0.0769077
2.71204
-0.0866103
3.21702
-0.0911719
3.18875
-0.0915047
2.647
-0.0890434
2.20777
-0.0849276
1.84994
-0.0786255
1.54579
-0.0673364
1.2611
-0.046987
0.942509
-0.0227476
0.581712
-0.00604513
0.26583
0.0629386
-0.00570777
0.125921
-0.0153747
0.402211
-0.0242017
0.739866
-0.0325744
1.07779
-0.0427701
1.36881
-0.0554417
1.64497
-0.0689527
1.94633
-0.082623
2.30195
-0.0951325
2.72455
-0.104171
3.22606
-0.106591
3.19117
-0.104065
2.64448
-0.0993733
2.20308
-0.0945959
1.84516
-0.0877043
1.5389
-0.0739773
1.24737
-0.0508261
0.919357
-0.0245701
0.555456
-0.00657047
0.24783
0.0563681
-0.00801571
0.133937
-0.0223637
0.416559
-0.036794
0.754296
-0.0487584
1.08976
-0.0605843
1.38063
-0.0747699
1.65916
-0.0903667
1.96192
-0.106183
2.31777
-0.119826
2.73819
-0.128013
3.23425
-0.128506
3.19166
-0.124688
2.64066
-0.11918
2.19757
-0.110741
1.83673
-0.0996051
1.52776
-0.0822691
1.23003
-0.055631
0.892719
-0.0267894
0.526615
-0.00714955
0.22819
0.0492186
-0.0105578
0.144495
-0.0299444
0.435946
-0.0504815
0.774833
-0.0672633
1.10654
-0.0826033
1.39597
-0.0999934
1.67655
-0.117831
1.97976
-0.134474
2.33441
-0.147235
2.75095
-0.153411
3.24042
-0.1515
3.18975
-0.144473
2.63363
-0.13485
2.18795
-0.125231
1.82711
-0.112768
1.5153
-0.0918643
1.20913
-0.0611391
0.861994
-0.0293242
0.4948
-0.00774391
0.20661
0.0414746
-0.0152852
0.15978
-0.0422579
0.462918
-0.0696229
0.802198
-0.0915708
1.12849
-0.110679
1.41508
-0.131326
1.69719
-0.151519
1.99995
-0.169755
2.35265
-0.183135
2.76433
-0.187981
3.24527
-0.182167
3.18393
-0.17159
2.62305
-0.1599
2.17626
-0.146395
1.8136
-0.128841
1.49774
-0.103239
1.18353
-0.06787
0.826625
-0.0322911
0.459221
-0.00830078
0.18262
0.0331739
-0.0195554
0.179336
-0.0555415
0.498904
-0.0926228
0.839279
-0.121811
1.15768
-0.146332
1.4396
-0.171319
1.72218
-0.194007
2.02264
-0.212334
2.37098
-0.223402
2.7754
-0.224072
3.24594
-0.214916
3.17478
-0.200721
2.60886
-0.184525
2.16006
-0.168064
1.79714
-0.147916
1.4776
-0.11702
1.15263
-0.0755869
0.785193
-0.0353329
0.418967
-0.00869415
0.155981
0.0244797
-0.0325432
0.211879
-0.0815283
0.547889
-0.128393
0.886144
-0.164251
1.19353
-0.194776
1.47013
-0.223873
1.75128
-0.247581
2.04635
-0.265157
2.38855
-0.274092
2.78433
-0.271311
3.24316
-0.255931
3.1594
-0.236701
2.58963
-0.218004
2.14137
-0.197292
1.77643
-0.170588
1.45089
-0.13291
1.11495
-0.0845457
0.736828
-0.0386602
0.373081
-0.00896525
0.126286
0.0155145
-0.0471378
0.259017
-0.120775
0.621527
-0.183582
0.948951
-0.227586
1.23754
-0.263388
1.50593
-0.292843
1.78073
-0.314232
2.06774
-0.32763
2.40195
-0.330352
2.78705
-0.319118
3.23192
-0.298064
3.13835
-0.274604
2.56617
-0.250189
2.11695
-0.225628
1.75187
-0.194623
1.41989
-0.148713
1.06904
-0.0916511
0.679767
-0.0399234
0.321354
-0.00886069
0.0952233
0.00665376
-0.0339572
0.292974
-0.0970088
0.684578
-0.154675
1.00662
-0.20149
1.28435
-0.243919
1.54836
-0.281284
1.8181
-0.315666
2.10212
-0.345975
2.43226
-0.367874
2.80895
-0.376652
3.2407
-0.367088
3.12878
-0.346648
2.54573
-0.322133
2.09244
-0.28918
1.71892
-0.241328
1.37204
-0.176037
1.00375
-0.100913
0.604643
-0.0397237
0.260165
-0.00881443
0.064314
-0.00216067
-0.0127621
0.305736
-0.0477102
0.719526
-0.0889463
1.04785
-0.127703
1.32311
-0.165915
1.58657
-0.19944
1.85162
-0.230206
2.13289
-0.25565
2.4577
-0.271427
2.82473
-0.272747
3.24202
-0.257783
3.11382
-0.233859
2.5218
-0.202689
2.06127
-0.167373
1.6836
-0.128796
1.33346
-0.0830908
0.958047
-0.0385636
0.560115
-0.0124739
0.234075
-0.00281506
0.0546552
-0.00497574
0.000181085
0.305555
-0.0245002
0.744207
-0.0539897
1.07734
-0.0837361
1.35286
-0.114379
1.61721
-0.144193
1.88144
-0.171349
2.16004
-0.193421
2.47978
-0.20745
2.83876
-0.206631
3.2412
-0.187412
3.0946
-0.157697
2.49209
-0.126861
2.03043
-0.0952408
1.65198
-0.0582693
1.29649
-0.0222565
0.922034
0.000569541
0.537289
0.00457863
0.230066
0.001339
0.0578949
-0.00363674
0.000820092
0.304735
-0.0123896
0.757417
-0.0337736
1.09873
-0.0583147
1.3774
-0.0838677
1.64276
-0.108921
1.90649
-0.132172
2.18329
-0.150891
2.49849
-0.160632
2.8485
-0.154874
3.23545
-0.135262
3.07499
-0.110172
2.467
-0.0784594
1.99872
-0.0436843
1.6172
-0.0148913
1.26769
0.0066764
0.900466
0.0161534
0.527812
0.0117153
0.234504
0.00361652
0.0659936
-2.02197e-05
0.00389606
0.300839
-0.00573246
0.767046
-0.0237388
1.11673
-0.0441176
1.39778
-0.0654746
1.66412
-0.0868812
1.9279
-0.107157
2.20357
-0.123452
2.51479
-0.131777
2.85682
-0.128109
3.23178
-0.109056
3.05593
-0.079257
2.4372
-0.0502732
1.96974
-0.023272
1.5902
0.0046178
1.2398
0.0234161
0.881668
0.0255611
0.525667
0.0156375
0.244428
0.0045948
0.0770363
0.00457458
0.00516182
0.295677
-0.000950269
0.773158
-0.017215
1.133
-0.035799
1.41636
-0.0549238
1.68325
-0.0737266
1.9467
-0.091416
2.22126
-0.10559
2.52896
-0.112412
2.86365
-0.106831
3.2262
-0.0865157
3.03562
-0.062772
2.41346
-0.0369594
1.94392
-0.00920475
1.56245
0.0119764
1.21862
0.0251199
0.868525
0.0257675
0.52502
0.0154091
0.254786
0.00469499
0.0877503
0.00926958
0.00370095
0.291976
-0.000944385
0.777803
-0.0144484
1.1465
-0.0312612
1.43317
-0.0485469
1.70053
-0.0658205
1.96397
-0.0823876
2.23782
-0.0962022
2.54278
-0.103933
2.87138
-0.100184
3.22245
-0.0838997
3.01933
-0.062003
2.39156
-0.0363567
1.91828
-0.0129356
1.53903
0.00885046
1.19684
0.0225887
0.854786
0.0219475
0.525661
0.0132227
0.263511
0.00405706
0.096916
0.0133266
0.00240939
0.289566
-0.0015874
0.7818
-0.0138758
1.15879
-0.0290169
1.44831
-0.0454249
1.71694
-0.0617882
1.98034
-0.0775161
2.25355
-0.0906135
2.55588
-0.0975401
2.8783
-0.0938524
3.21876
-0.0803496
3.00583
-0.0611111
2.37232
-0.0396388
1.8968
-0.0153074
1.5147
0.0038246
1.17771
0.0147135
0.843898
0.0163734
0.524001
0.00949674
0.270387
0.00290089
0.103512
0.0162275
8.24409e-05
0.289484
-0.00396314
0.785845
-0.0149091
1.16974
-0.028653
1.46206
-0.0439969
1.73228
-0.059657
1.996
-0.0750344
2.26893
-0.0884023
2.56924
-0.0974035
2.8873
-0.0980355
3.21939
-0.085983
2.99378
-0.0671995
2.35354
-0.0443797
1.87398
-0.0248575
1.49517
-0.00507068
1.15792
0.00755154
0.831275
0.0085901
0.522962
0.00555268
0.273425
0.00187408
0.10719
0.0181016
-0.000670523
0.290155
-0.00568168
0.790857
-0.0159021
1.17996
-0.0289005
1.47506
-0.0437655
1.74715
-0.0589951
2.01123
-0.0741927
2.28413
-0.0880324
2.58308
-0.0975251
2.8968
-0.0982333
3.2201
-0.087892
2.98344
-0.0709097
2.33656
-0.0532679
1.85634
-0.0315703
1.47348
-0.0146791
1.14103
-0.00386121
0.820458
0.00110245
0.517999
0.000646429
0.273881
0.000490633
0.107346
0.0185922
-0.00216406
0.292319
-0.00774282
0.796435
-0.0175501
1.18976
-0.0298283
1.48734
-0.0438911
1.76121
-0.0587365
2.02607
-0.0740983
2.29949
-0.0885975
2.59758
-0.0996924
2.90789
-0.104259
3.22467
-0.0966079
2.97579
-0.079671
2.31962
-0.0591304
1.8358
-0.0413616
1.45571
-0.0235377
1.1232
-0.0106379
0.807558
-0.00526179
0.512623
-0.00221627
0.270835
-0.000497648
0.105628
0.0180946
-0.00350896
0.295828
-0.00918659
0.802113
-0.0186454
1.19922
-0.030526
1.49922
-0.0442854
1.77497
-0.0589532
2.04074
-0.0743552
2.31489
-0.0893869
2.61261
-0.101817
2.92032
-0.107628
3.23048
-0.101259
2.96942
-0.0872119
2.30557
-0.069666
1.81826
-0.0482245
1.43427
-0.0312555
1.10623
-0.0188288
0.795131
-0.00983846
0.503632
-0.004784
0.265781
-0.00115017
0.101994
0.0169444
-0.00417098
0.299999
-0.0104493
0.808391
-0.01988
1.20865
-0.0313625
1.5107
-0.0445673
1.78817
-0.0589168
2.05509
-0.0744516
2.33043
-0.0902117
2.62837
-0.104336
2.93445
-0.112971
3.23911
-0.110461
2.96691
-0.097228
2.29234
-0.075338
1.79637
-0.056318
1.41525
-0.0374339
1.08735
-0.0227712
0.780468
-0.0138986
0.49476
-0.00596962
0.257852
-0.00150837
0.0975326
0.0154361
-0.00437014
0.304369
-0.0111346
0.815156
-0.0204566
1.21798
-0.0316805
1.52192
-0.0446747
1.80117
-0.0588632
2.06928
-0.0744723
2.34603
-0.0908343
2.64474
-0.106287
2.9499
-0.117203
3.25003
-0.116969
2.96667
-0.104202
2.27957
-0.0860146
1.77818
-0.061783
1.39101
-0.0426759
1.06824
-0.0277541
0.765547
-0.0151264
0.482132
-0.00674865
0.249474
-0.00154913
0.0923331
0.0138869
-0.00442775
0.308796
-0.0116357
0.822364
-0.0209808
1.22732
-0.0319279
1.53287
-0.044491
1.81373
-0.0583935
2.08318
-0.0740811
2.36172
-0.0910126
2.66167
-0.107919
2.96681
-0.121595
3.26371
-0.123919
2.969
-0.112775
2.26843
-0.0906546
1.75606
-0.0683121
1.36867
-0.045329
1.04526
-0.0277266
0.747944
-0.0158961
0.470301
-0.00612395
0.239702
-0.0012648
0.0874739
0.0126221
-0.00448381
0.31328
-0.011844
0.829724
-0.020954
1.23643
-0.0316448
1.54356
-0.0440148
1.8261
-0.0577687
2.09693
-0.0734753
2.37743
-0.0908743
2.67907
-0.10903
2.98496
-0.124952
3.27963
-0.130079
2.97413
-0.120358
2.25871
-0.102025
1.73773
-0.073647
1.34029
-0.047685
1.0193
-0.0269762
0.727235
-0.0113689
0.454694
-0.00348446
0.231818
-0.000118465
0.0841079
0.0125037
-0.00451522
0.317795
-0.0119097
0.837118
-0.0208752
1.2454
-0.0312814
1.55397
-0.0432575
1.83808
-0.0567252
2.1104
-0.0723956
2.3931
-0.0901456
2.69682
-0.10931
3.00412
-0.127146
3.29746
-0.135316
2.9823
-0.128557
2.25195
-0.106996
1.71616
-0.0801588
1.31346
-0.0475085
0.986648
-0.0206155
0.700342
-0.00390652
0.437985
0.00195458
0.225957
-0.00159689
0.0876594
0.0109068
-0.00452215
0.322318
-0.0118151
0.844411
-0.0204248
1.25401
-0.0305035
1.56404
-0.0422171
1.84979
-0.0554784
2.12366
-0.0710669
2.40869
-0.0890943
2.71484
-0.109182
3.02421
-0.129116
3.3174
-0.140401
2.99358
-0.13618
2.24773
-0.119849
1.69983
-0.0873008
1.28091
-0.0489972
0.948344
-0.00998705
0.661332
0.0226336
0.405364
0.0356404
0.21295
0.0250954
0.0982044
0.0360021
-0.00442148
0.326739
-0.0115665
0.851556
-0.0199549
1.26239
-0.0296879
1.57378
-0.0409622
1.86107
-0.0538868
2.13659
-0.0693187
2.42412
-0.0874815
2.73301
-0.108136
3.04487
-0.129384
3.33865
-0.143062
3.00726
-0.144155
2.24882
-0.126225
1.6819
-0.0964279
1.25111
-0.0502372
0.902153
-0.00172004
0.612815
0.0424562
0.361188
0.0458907
0.209515
0.0201629
0.123932
0.056165
-0.00426931
0.331008
-0.0112384
0.858526
-0.0192329
1.27039
-0.028562
1.58311
-0.0395311
1.87204
-0.0521832
2.14924
-0.0674361
2.43937
-0.0856489
2.75122
-0.106886
3.0661
-0.129968
3.36173
-0.146216
3.02351
-0.149955
2.25256
-0.140743
1.67269
-0.109431
1.2198
-0.0613272
0.854049
0.011699
0.539789
0.111831
0.261057
0.190255
0.131091
0.181178
0.133009
0.237344
-0.00412564
0.335134
-0.0109784
0.865378
-0.0189558
1.27837
-0.0282685
1.59242
-0.0393452
1.88311
-0.0524052
2.1623
-0.0685338
2.4555
-0.0882903
2.77098
-0.11208
3.08989
-0.139045
3.38869
-0.161065
3.04553
-0.172098
2.26359
-0.163572
1.66416
-0.137266
1.19349
-0.0830587
0.799842
-0.0276701
0.4844
-0.07436
0.307746
-0.358393
0.415124
-0.940394
0.71501
0.8996
-1.60265
-0.00395155
0.339086
-0.0106417
0.872068
-0.0183294
1.28605
-0.0274402
1.60153
-0.0384376
1.89411
-0.0516235
2.17549
-0.0681699
2.47205
-0.0888465
2.79165
-0.114534
3.11558
-0.145375
3.41953
-0.172435
3.07259
-0.187229
2.27838
-0.196528
1.67346
-0.182116
1.17908
-0.158214
0.77594
-0.248073
0.574259
-0.693064
0.752737
-1.43922
1.16128
-2.04761
1.32341
1.21717
-2.36518
-0.00372897
0.342815
-0.0101384
0.878478
-0.0176445
1.29356
-0.0265611
1.61045
-0.037377
1.90493
-0.0506011
2.18871
-0.067491
2.48894
-0.0890202
2.81318
-0.116457
3.14302
-0.150347
3.45342
-0.183614
3.10586
-0.210423
2.30519
-0.221253
1.68429
-0.213954
1.17178
-0.300601
0.862588
-0.753514
1.02717
-1.54074
1.53997
-2.10823
1.72876
-2.34795
1.56313
1.33163
-2.46241
-0.00355876
0.346373
-0.00965552
0.884575
-0.0167974
1.3007
-0.0254558
1.61911
-0.0361188
1.91559
-0.0493821
2.20197
-0.0665765
2.50613
-0.0889091
2.83551
-0.118099
3.17221
-0.156056
3.49138
-0.195467
3.14527
-0.225618
2.33534
-0.255677
1.71435
-0.338518
1.25462
-0.688154
1.21222
-1.43496
1.77397
-2.02557
2.13058
-2.26563
1.96882
-2.37904
1.67653
1.39612
-2.44353
-0.00327358
0.349647
-0.0089711
0.890272
-0.0158443
1.30757
-0.0242387
1.6275
-0.0347248
1.92607
-0.0479539
2.2152
-0.0653647
2.52354
-0.0883845
2.85853
-0.119177
3.203
-0.160285
3.53249
-0.206591
3.19157
-0.252604
2.38136
-0.296847
1.7586
-0.47753
1.43531
-1.09273
1.82742
-1.78581
2.46706
-2.10757
2.45234
-2.25612
2.11737
-2.33827
1.75868
1.46191
-2.40406
-0.00321987
0.352867
-0.00885194
0.895904
-0.0156175
1.31434
-0.0240263
1.63591
-0.0347667
1.93681
-0.0482996
2.22874
-0.0662346
2.54148
-0.0902072
2.88251
-0.122754
3.23555
-0.167908
3.57764
-0.220755
3.24442
-0.267562
2.42816
-0.358663
1.8497
-0.749112
1.82576
-1.48861
2.56691
-1.9629
2.94136
-2.16289
2.65234
-2.26919
2.22367
-2.34622
1.83571
1.52551
-2.40981
-0.00329271
0.356159
-0.00912558
0.901737
-0.0163299
1.32154
-0.0251871
1.64477
-0.0364033
1.94803
-0.0505709
2.2429
-0.0693635
2.56027
-0.0945506
2.90769
-0.129071
3.27007
-0.177725
3.6263
-0.234971
3.30167
-0.29981
2.493
-0.489472
2.03936
-1.04618
2.38246
-1.677
3.19774
-1.95346
3.21782
-2.10051
2.79938
-2.21436
2.33752
-2.30786
1.92921
1.58722
-2.36957
-0.00336554
0.359525
-0.00956813
0.90794
-0.0170794
1.32906
-0.0263929
1.65408
-0.0381606
1.9598
-0.0529987
2.25774
-0.0726918
2.57996
-0.0992047
2.93421
-0.135658
3.30652
-0.188044
3.67868
-0.251239
3.36486
-0.337683
2.57945
-0.619491
2.32117
-1.26294
3.02591
-1.75262
3.68742
-1.95987
3.42506
-2.10001
2.93953
-2.22376
2.46126
-2.33433
2.03978
1.64582
-2.39293
-0.00332384
0.362849
-0.00970406
0.91432
-0.0177998
1.33715
-0.0276677
1.66395
-0.0399564
1.97209
-0.0554922
2.27328
-0.0761099
2.60058
-0.103868
2.96197
-0.142249
3.3449
-0.197292
3.73373
-0.265087
3.43266
-0.3911
2.70546
-0.776706
2.70677
-1.40943
3.65863
-1.76316
4.04115
-1.93623
3.59814
-2.03824
3.04153
-2.12688
2.54991
-2.19433
2.10724
1.63868
-2.1872
-0.00327478
0.366124
-0.0100648
0.92111
-0.018467
1.34555
-0.0288499
1.67433
-0.0417956
1.98503
-0.0580469
2.28953
-0.0795943
2.62213
-0.108716
2.99109
-0.148921
3.38511
-0.205938
3.79074
-0.285095
3.51181
-0.455181
2.87555
-0.906372
3.15796
-1.46213
4.2144
-1.72437
4.30338
-1.87649
3.75025
-1.96985
3.13489
-1.97156
2.55162
-1.90295
2.03863
1.6041
-1.86837
-0.00307093
0.369195
-0.00988139
0.92792
-0.0189098
1.35458
-0.0298025
1.68522
-0.0431404
1.99837
-0.0598608
2.30625
-0.0818657
2.64413
-0.111309
3.02053
-0.151893
3.42569
-0.208268
3.84712
-0.293926
3.59747
-0.499107
3.08073
-0.987934
3.64679
-1.42933
4.65579
-1.59503
4.46908
-1.66233
3.81756
-1.66693
3.13949
-1.51951
2.40421
-1.01944
1.53855
0.584667
-0.00259721
0.371792
-0.00997368
0.935297
-0.0192598
1.36387
-0.0308147
1.69678
-0.0452305
2.01279
-0.0632454
2.32426
-0.0870921
2.66798
-0.119323
3.05276
-0.163911
3.47028
-0.226795
3.91
-0.330585
3.70126
-0.585178
3.33532
-1.12302
4.18463
-1.48194
5.01471
-1.58166
4.56881
-1.57967
3.81557
-1.47648
3.0363
-1.23712
2.16485
-0.633823
0.935248
-0.0491557
-0.00215374
0.373946
-0.00910962
0.942253
-0.0190964
1.37386
-0.0314263
1.70911
-0.0466744
2.02804
-0.0660467
2.34364
-0.0918284
2.69376
-0.126626
3.08756
-0.175405
3.51906
-0.24471
3.97931
-0.366957
3.82351
-0.681148
3.64951
-1.24063
4.74411
-1.50288
5.27697
-1.56167
4.6276
-1.53977
3.79367
-1.33738
2.83391
-0.785246
1.61271
-0.109811
0.259813
-0.158967
-0.00162561
0.375571
-0.00867217
0.949299
-0.0185842
1.38377
-0.0315097
1.72203
-0.0478117
2.04434
-0.0684089
2.36423
-0.0960035
2.72136
-0.133749
3.1253
-0.186278
3.57159
-0.263567
4.0566
-0.412705
3.97265
-0.785008
4.02181
-1.31965
5.27875
-1.49642
5.45374
-1.52776
4.65894
-1.43946
3.70537
-1.10403
2.49848
-0.315213
0.823894
0.025468
-0.0808681
-0.133499
-0.000507171
0.376078
-0.00647161
0.955264
-0.0170143
1.39431
-0.0306686
1.73569
-0.0475668
2.06124
-0.0694631
2.38613
-0.0989617
2.75086
-0.138977
3.16532
-0.19431
3.62692
-0.280405
4.14269
-0.454411
4.14665
-0.890807
4.45821
-1.3632
5.75114
-1.48119
5.57173
-1.48356
4.66131
-1.26107
3.48288
-0.690142
1.92755
-0.0627474
0.1965
0.0310004
-0.174616
-0.102499
0.000471337
0.375607
-0.00458952
0.960325
-0.0147072
1.40443
-0.0288248
1.74981
-0.04656
2.07897
-0.0695086
2.40908
-0.100487
2.78183
-0.142949
3.20778
-0.201297
3.68527
-0.296493
4.23789
-0.498639
4.3488
-0.985094
4.94466
-1.3606
6.12665
-1.42406
5.63519
-1.37915
4.6164
-1.09031
3.19403
-0.325455
1.16269
0.00471129
-0.133667
0.0152943
-0.185199
-0.0872042
0.00323516
0.372372
0.000437176
0.963123
-0.0105137
1.41538
-0.0251638
1.76446
-0.0429053
2.09671
-0.0669531
2.43313
-0.0994403
2.81432
-0.143469
3.25181
-0.204477
3.74627
-0.307844
4.34125
-0.533831
4.57479
-1.04408
5.45491
-1.32082
6.40338
-1.36312
5.67749
-1.22546
4.47874
-0.777012
2.74559
-0.0723048
0.457987
0.0459494
-0.251921
0.0253191
-0.164569
-0.0618851
0.00490273
0.367469
0.00345043
0.964575
-0.00562954
1.42446
-0.0195546
1.77838
-0.0378078
2.11497
-0.0625114
2.45783
-0.0956934
2.8475
-0.141299
3.29742
-0.204757
3.80973
-0.315779
4.45228
-0.573031
4.83204
-1.06708
5.94897
-1.25904
6.59534
-1.26839
5.68685
-1.05085
4.2612
-0.463305
2.15804
-0.0136899
0.00837238
-0.00237286
-0.263238
0.00769635
-0.174638
-0.0541887
0.00850274
0.358966
0.00993559
0.963142
0.00267443
1.43172
-0.0105416
1.7916
-0.0284451
2.13287
-0.0534111
2.4828
-0.0871144
2.88121
-0.132798
3.3431
-0.197671
3.87461
-0.314906
4.56951
-0.590773
5.1079
-1.04183
6.40002
-1.16297
6.71647
-1.15152
5.6754
-0.896861
4.00654
-0.267782
1.52896
-0.07034
-0.18907
-0.0374795
-0.296098
-0.0127489
-0.199368
-0.0669376
0.0118301
0.347136
0.0172048
0.957767
0.0130158
1.43591
0.00224048
1.80237
-0.0166287
2.15174
-0.0408957
2.50706
-0.0737895
2.9141
-0.119435
3.38875
-0.184762
3.93993
-0.305444
4.69019
-0.590491
5.39295
-0.976201
6.78573
-1.04722
6.78749
-0.976801
5.60498
-0.685338
3.71508
-0.0894512
0.933073
-0.00918967
-0.269332
-0.0162432
-0.289045
-0.00694978
-0.208662
-0.0738874
0.018167
0.328969
0.0296199
0.946314
0.0281488
1.43738
0.0180341
1.81249
0.00167235
2.1681
-0.0203744
2.52911
-0.052045
2.94577
-0.0957841
3.43248
-0.158904
4.00305
-0.279011
4.8103
-0.550151
5.66409
-0.860203
7.09579
-0.892528
6.81982
-0.797776
5.51023
-0.460856
3.37816
0.0410235
0.431193
0.0568582
-0.285166
0.0385266
-0.270713
0.0139345
-0.18407
-0.0599529
0.0243922
0.304577
0.0431307
0.927576
0.0473234
1.43319
0.0406113
1.8192
0.0273322
2.18138
0.00629435
2.55015
-0.0227842
2.97485
-0.0633732
3.47307
-0.123187
4.06287
-0.236432
4.92355
-0.474878
5.90254
-0.699063
7.31997
-0.73662
6.85738
-0.618664
5.39227
-0.294756
3.05425
0.00202601
0.134411
0.0223566
-0.305497
0.0316084
-0.279965
0.016017
-0.168478
-0.0439359
0.0343224
0.270255
0.0637977
0.898101
0.0743544
1.42263
0.0718791
1.82167
0.0628501
2.19041
0.0453317
2.56767
0.0197862
3.00039
-0.0165963
3.50946
-0.0688549
4.11512
-0.16489
5.01958
-0.35328
6.09093
-0.504514
7.47121
-0.538577
6.89144
-0.450853
5.30455
-0.147544
2.75094
-0.0264961
0.013363
-0.0113305
-0.320662
0.0212822
-0.312578
0.0230989
-0.170295
-0.020837
0.0438649
0.22639
0.0863923
0.855573
0.107416
1.40161
0.112219
1.81687
0.107639
2.19499
0.0940986
2.58121
0.074743
3.01975
0.0459309
3.53827
-0.0019815
4.16304
-0.0687982
5.0864
-0.196555
6.21868
-0.27788
7.55253
-0.301514
6.91507
-0.253459
5.25649
-0.0472184
2.5447
-0.0895714
0.0557159
-0.077105
-0.333129
-0.0165751
-0.373108
0.0248477
-0.211718
0.00401072
0.0560945
0.170295
0.117066
0.794602
0.152289
1.36638
0.164915
1.80424
0.167056
2.19285
0.159656
2.58861
0.147752
3.03165
0.129206
3.55681
0.101707
4.19054
0.0626301
5.12547
0.0288718
6.25244
-0.00996653
7.59137
-0.0463831
6.95149
-0.157322
5.36743
-0.260169
2.64755
-0.492267
0.287814
-0.4924
-0.332996
-0.351006
-0.514502
-0.148574
-0.41415
-0.144563
0.0592886
0.111007
0.147058
0.706832
0.203024
1.31042
0.230141
1.77713
0.24133
2.18166
0.241021
2.58891
0.237562
3.03511
0.231011
3.56337
0.223159
4.19839
0.214652
5.13398
0.292044
6.17505
0.36635
7.51706
0.307129
7.01071
0.0912778
5.58328
-0.347543
3.08637
-0.772481
0.712753
-0.811853
-0.293624
-0.624504
-0.701851
-0.304494
-0.73416
-0.449057
0.050951
0.0600557
0.1779
0.579883
0.26834
1.21998
0.311823
1.73364
0.333652
2.15983
0.344394
2.57817
0.349684
3.02982
0.358634
3.55442
0.376176
4.18085
0.414921
5.09524
0.603342
5.98663
0.842998
7.27741
0.969465
6.88424
1.01744
5.53531
0.595194
3.50861
-0.0521167
1.36006
-0.471654
0.125914
-0.566404
-0.607102
-0.307862
-0.992701
-0.75692
0.035894
0.0241617
0.210881
0.404896
0.333321
1.09754
0.4083
1.65866
0.447051
2.12108
0.470331
2.55489
0.483939
3.01622
0.507212
3.53114
0.55122
4.13684
0.649628
4.99683
0.987715
5.64854
1.5487
6.71642
1.96677
6.46617
2.28193
5.22016
2.11279
3.67775
1.41399
2.05887
0.790788
0.749112
0.28836
-0.104674
0.0298049
-0.734146
-0.727115
0.0313669
-0.00720522
0.231622
0.204641
0.423114
0.906047
0.527512
1.55427
0.581279
2.06731
0.618575
2.5176
0.644392
2.9904
0.679226
3.49631
0.751073
4.06499
0.901596
4.8463
1.33393
5.21621
2.11401
5.93634
2.5193
6.06088
2.72092
5.01854
2.5769
3.82177
2.08851
2.54725
1.52915
1.30848
1.02684
0.397635
0.410077
-0.117386
-0.317038
0.0282064
-0.0354116
0.175971
0.0568758
0.474318
0.6077
0.654167
1.37442
0.741217
1.98026
0.790568
2.46825
0.831191
2.94978
0.868601
3.4589
0.946299
3.98729
1.09602
4.69658
1.44034
4.87188
2.19685
5.17983
2.56329
5.69445
2.72416
4.85766
2.63713
3.90881
2.23647
2.94791
1.61539
1.92956
0.963045
1.04998
0.411817
0.433842
0.0947794
0.00963364
-0.0450453
0.0921434
-0.0256339
0.406151
0.293693
0.657384
1.12318
0.778988
1.85866
0.814249
2.43299
0.82415
2.93987
0.814153
3.4689
0.812541
3.98891
0.856866
4.65226
0.961288
4.76746
1.31939
4.82173
1.52574
5.48811
1.53776
4.84564
1.46311
3.98346
1.27059
3.14042
0.941177
2.25898
0.585725
1.40543
0.242706
0.776861
0.337486
-0.00277752
-0.0422678
0.0353568
-0.0637683
0.233451
0.0955986
0.491918
0.864718
0.630782
1.71979
0.680138
2.38363
0.696682
2.92333
0.692842
3.47274
0.67692
4.00483
0.686278
4.6429
0.732349
4.72139
0.94698
4.6071
1.1619
5.27318
1.16369
4.84386
1.09783
4.04931
0.958924
3.27933
0.723302
2.4946
0.444977
1.68375
0.179005
1.04283
0.516491
0.00105589
-0.0433236
0.0280214
-0.0907337
0.120455
0.00316463
0.351693
0.633479
0.482082
1.5894
0.535045
2.33067
0.552591
2.90578
0.556429
3.4689
0.542844
4.01841
0.534131
4.65161
0.551676
4.70385
0.684913
4.47386
0.847929
5.11017
0.843802
4.84798
0.773125
4.11999
0.660928
3.39153
0.496079
2.65945
0.29457
1.88526
0.109428
1.22797
0.625918
0.0148777
-0.0582013
0.0536749
-0.129531
0.105453
-0.0486133
0.258407
0.480525
0.361652
1.48616
0.405877
2.28644
0.417612
2.89405
0.423584
3.46292
0.419056
4.02294
0.410561
4.66011
0.40915
4.70526
0.484434
4.39857
0.594189
5.00041
0.588485
4.85369
0.524769
4.18371
0.438954
3.47734
0.324793
2.77361
0.18649
2.02357
0.0585332
1.35593
0.684451
0.0417869
-0.0999882
0.0934974
-0.181241
0.115655
-0.0707707
0.153151
0.443028
0.223113
1.4162
0.261753
2.2478
0.27869
2.87711
0.293655
3.44796
0.302907
4.01369
0.301927
4.66109
0.293204
4.71398
0.329564
4.36221
0.399223
4.93075
0.392417
4.86049
0.340268
4.23586
0.27431
3.5433
0.191408
2.85652
0.0939981
2.12098