/*--------------------------------*- C++ -*----------------------------------*\
  =========                 |
  \\      /  F ield         | OpenFOAM: The Open Source CFD Toolbox
   \\    /   O peration     | Website:  https://openfoam.org
    \\  /    A nd           | Version:  9
     \\/     M anipulation  |
\*---------------------------------------------------------------------------*/
FoamFile
{
    format      ascii;
    class       volVectorField;
    location    "49";
    object      U;
}
// * * * * * * * * * * * * * * * * * * * * * * * * * * * * * * * * * * * * * //

dimensions      [0 1 -1 0 0 0 0];

internalField   nonuniform List<vector> 
2200
(
(0.878831 -0.0304149 0)
(1.00578 -0.0512828 0)
(1.00327 -0.0354097 0)
(1.00022 -0.0244529 0)
(0.99981 -0.0166825 0)
(1 -0.0107458 0)
(1.00002 -0.00687909 0)
(1.00002 -0.00423681 0)
(1 -0.00226435 0)
(1.00017 -0.000729945 0)
(1.00002 0.000967041 0)
(0.999938 0.0024994 0)
(0.999993 0.00445676 0)
(1.00002 0.00703691 0)
(1.00009 0.0108849 0)
(0.99998 0.0166909 0)
(1.00031 0.0244173 0)
(1.00347 0.0349579 0)
(1.00595 0.051368 0)
(0.879007 0.0303183 0)
(0.712009 -0.032763 0)
(0.996629 -0.0630199 0)
(1.03331 -0.056152 0)
(1.02493 -0.0464147 0)
(1.01595 -0.0361085 0)
(1.00967 -0.0263763 0)
(1.0059 -0.0181187 0)
(1.00375 -0.0114262 0)
(1.00256 -0.00604344 0)
(1.00206 -0.00153129 0)
(1.00212 0.0026172 0)
(1.00261 0.00703972 0)
(1.00367 0.0122791 0)
(1.00584 0.0189058 0)
(1.00944 0.0270967 0)
(1.01549 0.0368445 0)
(1.02459 0.047304 0)
(1.0331 0.0577491 0)
(0.996675 0.0631444 0)
(0.711795 0.0330039 0)
(0.535499 -0.023899 0)
(0.969876 -0.0569528 0)
(1.05641 -0.0547556 0)
(1.05222 -0.0488097 0)
(1.03618 -0.0404855 0)
(1.02442 -0.032324 0)
(1.01589 -0.0240551 0)
(1.01038 -0.0161557 0)
(1.00718 -0.00889888 0)
(1.0056 -0.00229492 0)
(1.0054 0.0040349 0)
(1.00684 0.0105979 0)
(1.01013 0.0176731 0)
(1.01558 0.0253485 0)
(1.02416 0.0333537 0)
(1.03622 0.041377 0)
(1.05226 0.0494129 0)
(1.05635 0.0534916 0)
(0.969221 0.0576167 0)
(0.53442 0.0239331 0)
(0.392227 -0.0136553 0)
(0.911748 -0.0464051 0)
(1.05745 -0.0469426 0)
(1.0695 -0.0442891 0)
(1.05487 -0.0381593 0)
(1.03933 -0.0315315 0)
(1.02752 -0.0247509 0)
(1.01902 -0.0175384 0)
(1.01364 -0.01004 0)
(1.01105 -0.00243216 0)
(1.01106 0.00513375 0)
(1.0135 0.0125344 0)
(1.01853 0.0198075 0)
(1.02681 0.0267004 0)
(1.0385 0.0330738 0)
(1.05391 0.0394479 0)
(1.06817 0.0455021 0)
(1.05563 0.0482292 0)
(0.91 0.0469376 0)
(0.390044 0.0137697 0)
(0.30757 -0.00451528 0)
(0.846617 -0.0323994 0)
(1.04942 -0.0399716 0)
(1.07953 -0.0383039 0)
(1.06814 -0.0336498 0)
(1.0516 -0.0280123 0)
(1.03832 -0.0226491 0)
(1.02814 -0.0166164 0)
(1.0211 -0.00974753 0)
(1.01719 -0.00216267 0)
(1.0168 0.0056617 0)
(1.02032 0.0130578 0)
(1.02723 0.0195454 0)
(1.03719 0.0251743 0)
(1.05026 0.0301866 0)
(1.06682 0.0355548 0)
(1.07792 0.0399058 0)
(1.04744 0.041585 0)
(0.843208 0.0329117 0)
(0.304 0.00471164 0)
(0.264097 9.47557e-05 0)
(0.788744 -0.020109 0)
(1.03302 -0.0315068 0)
(1.08335 -0.0320912 0)
(1.07727 -0.0288355 0)
(1.06081 -0.0239514 0)
(1.04712 -0.0194768 0)
(1.03627 -0.0144047 0)
(1.02846 -0.00838873 0)
(1.02406 -0.0013621 0)
(1.0239 0.00599337 0)
(1.02776 0.0127269 0)
(1.03483 0.018303 0)
(1.04527 0.0229598 0)
(1.05875 0.026947 0)
(1.07492 0.0313754 0)
(1.08042 0.034144 0)
(1.02931 0.0332312 0)
(0.782974 0.0207172 0)
(0.259116 0.000106701 0)
(0.240111 0.00106331 0)
(0.738148 -0.0123205 0)
(1.01377 -0.0250839 0)
(1.0841 -0.0268841 0)
(1.08289 -0.0245903 0)
(1.06768 -0.0204787 0)
(1.05414 -0.0164817 0)
(1.04329 -0.0120017 0)
(1.0352 -0.0066184 0)
(1.03026 -0.000325798 0)
(1.02965 0.00634293 0)
(1.03365 0.0121739 0)
(1.04138 0.0169764 0)
(1.05173 0.0208781 0)
(1.06498 0.0243698 0)
(1.0798 0.0278747 0)
(1.08032 0.029485 0)
(1.00804 0.0270806 0)
(0.729528 0.0130878 0)
(0.233573 -0.000852647 0)
(0.225639 0.000942128 0)
(0.69481 -0.00808957 0)
(0.992398 -0.020873 0)
(1.08184 -0.0233237 0)
(1.08675 -0.0215321 0)
(1.07332 -0.0179849 0)
(1.05983 -0.0141847 0)
(1.04922 -0.00983716 0)
(1.04126 -0.00495154 0)
(1.03638 0.000663457 0)
(1.03578 0.00662198 0)
(1.03946 0.011926 0)
(1.0462 0.0161809 0)
(1.05625 0.0197535 0)
(1.0694 0.0227559 0)
(1.0821 0.0255324 0)
(1.07577 0.0265271 0)
(0.983672 0.0232428 0)
(0.682658 0.00905817 0)
(0.217254 -0.000728038 0)
(0.21606 0.000621153 0)
(0.659629 -0.00570911 0)
(0.972397 -0.017671 0)
(1.07937 -0.0202944 0)
(1.09 -0.0187703 0)
(1.07799 -0.0157723 0)
(1.06468 -0.0121691 0)
(1.05424 -0.00806925 0)
(1.04639 -0.00320462 0)
(1.04143 0.00216165 0)
(1.04055 0.00755895 0)
(1.04399 0.0121908 0)
(1.05088 0.0160694 0)
(1.06033 0.0192886 0)
(1.07296 0.0220459 0)
(1.08387 0.0241183 0)
(1.07178 0.0247202 0)
(0.960343 0.0207633 0)
(0.643064 0.00697584 0)
(0.205347 -0.000355753 0)
(0.208697 0.000290211 0)
(0.630516 -0.00425331 0)
(0.952743 -0.0151732 0)
(1.07572 -0.0181489 0)
(1.09291 -0.0168697 0)
(1.08259 -0.0139158 0)
(1.06925 -0.0104162 0)
(1.05881 -0.00634386 0)
(1.05104 -0.00180236 0)
(1.04604 0.00312839 0)
(1.04474 0.00811438 0)
(1.04745 0.012665 0)
(1.0535 0.0162863 0)
(1.06292 0.0191298 0)
(1.07563 0.0215049 0)
(1.08467 0.0234038 0)
(1.06422 0.0233652 0)
(0.935389 0.0187859 0)
(0.608405 0.00579682 0)
(0.195088 1.55363e-05 0)
(0.202854 6.76801e-05 0)
(0.607297 -0.00321254 0)
(0.935109 -0.012676 0)
(1.07287 -0.0157989 0)
(1.09624 -0.0146942 0)
(1.08712 -0.0120291 0)
(1.07364 -0.00847962 0)
(1.06299 -0.00463035 0)
(1.05494 -4.02132e-05 0)
(1.04974 0.00496985 0)
(1.04848 0.00987824 0)
(1.05122 0.0137949 0)
(1.05722 0.0169457 0)
(1.06623 0.0195728 0)
(1.0785 0.0216724 0)
(1.08545 0.0228734 0)
(1.05854 0.0224168 0)
(0.912812 0.0171813 0)
(0.579015 0.00508796 0)
(0.185835 0.000292592 0)
(0.198082 -2.00008e-06 0)
(0.588698 -0.00235029 0)
(0.91908 -0.0104281 0)
(1.06946 -0.0136825 0)
(1.09945 -0.0126851 0)
(1.09202 -0.0099684 0)
(1.07835 -0.00656703 0)
(1.0674 -0.00269188 0)
(1.05921 0.00169438 0)
(1.05375 0.00635619 0)
(1.05143 0.0108836 0)
(1.05325 0.0148612 0)
(1.05892 0.0178525 0)
(1.06809 0.0199947 0)
(1.08059 0.021913 0)
(1.08529 0.0228204 0)
(1.04905 0.0217493 0)
(0.888109 0.0158356 0)
(0.551837 0.00466427 0)
(0.176698 0.000462029 0)
(0.194469 2.46392e-05 0)
(0.573889 -0.00157444 0)
(0.904587 -0.00817345 0)
(1.06674 -0.0112632 0)
(1.10296 -0.0103093 0)
(1.09682 -0.00775823 0)
(1.08309 -0.0042464 0)
(1.07167 -0.000503685 0)
(1.06279 0.00389086 0)
(1.05668 0.00880477 0)
(1.05461 0.0135389 0)
(1.05657 0.0169201 0)
(1.06207 0.0193506 0)
(1.07106 0.0211718 0)
(1.08265 0.0225089 0)
(1.08469 0.0229705 0)
(1.04128 0.0213156 0)
(0.865942 0.0148301 0)
(0.528189 0.00442871 0)
(0.168134 0.000545454 0)
(0.192255 4.25909e-05 0)
(0.56316 -0.000827055 0)
(0.89274 -0.0060766 0)
(1.06376 -0.00899893 0)
(1.10611 -0.00791515 0)
(1.1017 -0.00517226 0)
(1.0879 -0.00168075 0)
(1.07619 0.00224356 0)
(1.06698 0.00665577 0)
(1.06033 0.011212 0)
(1.05676 0.0151937 0)
(1.05783 0.0187082 0)
(1.06307 0.0209205 0)
(1.07213 0.0222648 0)
(1.08322 0.0232404 0)
(1.08303 0.0233318 0)
(1.02921 0.0211624 0)
(0.840921 0.0140644 0)
(0.504726 0.00428879 0)
(0.159369 0.000580416 0)
(0.191256 9.23014e-05 0)
(0.555547 -0.000254321 0)
(0.882451 -0.00397846 0)
(1.06216 -0.00619137 0)
(1.10995 -0.0048683 0)
(1.10679 -0.00208547 0)
(1.09316 0.0015757 0)
(1.08106 0.00550254 0)
(1.07116 0.00990265 0)
(1.06354 0.0146001 0)
(1.06019 0.0187386 0)
(1.06131 0.0212879 0)
(1.06603 0.0228413 0)
(1.07449 0.0239828 0)
(1.0838 0.0243512 0)
(1.0808 0.0240619 0)
(1.01876 0.0212886 0)
(0.818444 0.0137153 0)
(0.483768 0.00430039 0)
(0.151098 0.000615686 0)
(0.191752 5.8632e-05 0)
(0.551196 0.000797012 0)
(0.875961 -0.00165797 0)
(1.06101 -0.00362369 0)
(1.114 -0.00191142 0)
(1.11236 0.00133488 0)
(1.0986 0.00523557 0)
(1.08622 0.00939935 0)
(1.07587 0.0138469 0)
(1.06769 0.0182151 0)
(1.06253 0.0216398 0)
(1.06181 0.0240367 0)
(1.06592 0.0253228 0)
(1.07439 0.0258488 0)
(1.08342 0.0261061 0)
(1.0768 0.0252183 0)
(1.00436 0.0216861 0)
(0.792731 0.0135591 0)
(0.461706 0.00433556 0)
(0.142289 0.000630082 0)
(0.193701 0.000206907 0)
(0.551386 0.00149223 0)
(0.870929 0.000457593 0)
(1.06176 -0.00015896 0)
(1.11888 0.00191145 0)
(1.1182 0.00522951 0)
(1.10441 0.00947609 0)
(1.09132 0.0139303 0)
(1.07999 0.0185871 0)
(1.07038 0.0231397 0)
(1.06489 0.0267141 0)
(1.06473 0.0285961 0)
(1.06837 0.0290837 0)
(1.07593 0.029187 0)
(1.0823 0.028557 0)
(1.07179 0.0270744 0)
(0.990729 0.0227811 0)
(0.768918 0.0138435 0)
(0.441195 0.00457457 0)
(0.133728 0.000672844 0)
(0.197682 0.00065308 0)
(0.55396 0.00226209 0)
(0.871072 0.00335473 0)
(1.06355 0.00299582 0)
(1.12435 0.00555506 0)
(1.12478 0.00955334 0)
(1.11044 0.014282 0)
(1.09674 0.0191145 0)
(1.08482 0.0240064 0)
(1.07472 0.0284752 0)
(1.0674 0.031433 0)
(1.06409 0.032473 0)
(1.06624 0.0327464 0)
(1.07375 0.0320509 0)
(1.08044 0.0314694 0)
(1.06548 0.0293002 0)
(0.972656 0.0239983 0)
(0.741038 0.014363 0)
(0.41829 0.0048689 0)
(0.124114 0.00071122 0)
(0.204069 0.000863048 0)
(0.560778 0.00340776 0)
(0.874755 0.00575022 0)
(1.06815 0.00743123 0)
(1.13092 0.0107567 0)
(1.13212 0.0148865 0)
(1.11738 0.0199554 0)
(1.1026 0.0253246 0)
(1.08928 0.0307905 0)
(1.07709 0.0356167 0)
(1.06835 0.0386395 0)
(1.06566 0.0396672 0)
(1.06803 0.0391535 0)
(1.07424 0.0379343 0)
(1.07686 0.0355454 0)
(1.05693 0.0322473 0)
(0.954856 0.0258746 0)
(0.714602 0.0153312 0)
(0.396078 0.00529983 0)
(0.114416 0.000770183 0)
(0.212258 0.00102664 0)
(0.571792 0.00471167 0)
(0.882696 0.00883743 0)
(1.07488 0.0117853 0)
(1.13845 0.0160658 0)
(1.14038 0.0210789 0)
(1.12482 0.026985 0)
(1.109 0.0327985 0)
(1.09435 0.0385708 0)
(1.08086 0.043399 0)
(1.07024 0.045955 0)
(1.06405 0.045825 0)
(1.06311 0.0442354 0)
(1.0691 0.0416626 0)
(1.07264 0.03992 0)
(1.0469 0.0357647 0)
(0.931878 0.0280716 0)
(0.682764 0.0165442 0)
(0.370121 0.00577739 0)
(0.103194 0.000831468 0)
(0.224478 0.00135309 0)
(0.589906 0.00668173 0)
(0.897277 0.0133184 0)
(1.08533 0.0181972 0)
(1.14781 0.0234327 0)
(1.14953 0.0290047 0)
(1.13289 0.0357157 0)
(1.11527 0.0425412 0)
(1.09812 0.0490521 0)
(1.08152 0.0541041 0)
(1.06847 0.0558524 0)
(1.0629 0.0549765 0)
(1.06381 0.0528513 0)
(1.06833 0.0501191 0)
(1.066 0.0457534 0)
(1.03376 0.0400449 0)
(0.908651 0.0309527 0)
(0.651692 0.018 0)
(0.344326 0.00633483 0)
(0.0917575 0.00087621 0)
(0.240135 0.00193299 0)
(0.613749 0.00855858 0)
(0.918528 0.0181132 0)
(1.09996 0.0253426 0)
(1.15911 0.0321727 0)
(1.16062 0.0391692 0)
(1.14241 0.0472114 0)
(1.12314 0.0546528 0)
(1.10407 0.0612271 0)
(1.08526 0.0654349 0)
(1.06993 0.0663755 0)
(1.06068 0.0643376 0)
(1.05707 0.0607766 0)
(1.05933 0.0560128 0)
(1.05835 0.0520179 0)
(1.01831 0.0451628 0)
(0.878517 0.034133 0)
(0.613474 0.0197524 0)
(0.313544 0.00695007 0)
(0.0785044 0.000890981 0)
(0.262099 0.00279585 0)
(0.646964 0.0123701 0)
(0.947138 0.0249779 0)
(1.11922 0.0350479 0)
(1.17364 0.0432641 0)
(1.17369 0.0521531 0)
(1.15317 0.0611378 0)
(1.13109 0.0695821 0)
(1.10855 0.0766846 0)
(1.08607 0.0810239 0)
(1.06739 0.0807041 0)
(1.05721 0.076824 0)
(1.05489 0.071827 0)
(1.05716 0.0666219 0)
(1.04764 0.0600167 0)
(0.998922 0.0509127 0)
(0.847649 0.0381603 0)
(0.575714 0.0219123 0)
(0.282467 0.00759392 0)
(0.065159 0.000854695 0)
(0.293622 0.00371982 0)
(0.693183 0.0155918 0)
(0.986449 0.0332702 0)
(1.14486 0.0467454 0)
(1.19126 0.0575023 0)
(1.18904 0.0684129 0)
(1.16516 0.0791195 0)
(1.14014 0.0881199 0)
(1.1148 0.094865 0)
(1.08926 0.0976231 0)
(1.06735 0.0955592 0)
(1.05351 0.0906679 0)
(1.04634 0.0837971 0)
(1.04433 0.0762727 0)
(1.03564 0.0688541 0)
(0.976226 0.0583711 0)
(0.80768 0.0427181 0)
(0.527917 0.0243851 0)
(0.244324 0.00812403 0)
(0.0498053 0.000773921 0)
(0.330019 0.00707511 0)
(0.751141 0.0246913 0)
(1.03481 0.0463193 0)
(1.17618 0.0639416 0)
(1.21298 0.0765647 0)
(1.20606 0.0906923 0)
(1.17716 0.102246 0)
(1.14719 0.111367 0)
(1.11634 0.117472 0)
(1.08563 0.119172 0)
(1.06046 0.115645 0)
(1.0455 0.107356 0)
(1.04001 0.0987774 0)
(1.03874 0.0903072 0)
(1.019 0.0801365 0)
(0.947476 0.0665782 0)
(0.765336 0.0483717 0)
(0.479809 0.0271976 0)
(0.206363 0.00857311 0)
(0.035276 0.000646992 0)
(0.410039 0.0107252 0)
(0.838549 0.0357815 0)
(1.10001 0.067379 0)
(1.21523 0.0896316 0)
(1.23854 0.105067 6.48365e-34)
(1.22449 0.120738 -2.91463e-34)
(1.18909 0.132214 0)
(1.15443 0.140185 0)
(1.11991 0.144107 0)
(1.08623 0.142771 0)
(1.05722 0.134852 0)
(1.03856 0.125381 0)
(1.028 0.114245 0)
(1.02042 0.103127 0)
(1.00002 0.0917327 0)
(0.914147 0.0758124 0)
(0.710638 0.0533178 0)
(0.416798 0.0291327 0)
(0.157701 0.00828918 0)
(0.0183514 0.000720617 0)
(0.481357 0.0259581 4.83894e-20)
(0.940566 0.0595685 -3.66184e-20)
(1.17012 0.101389 0)
(1.25551 0.127665 2.81645e-20)
(1.26586 0.142989 -2.28386e-20)
(1.24226 0.160793 3.07518e-34)
(1.19997 0.170476 0)
(1.15984 0.176356 1.63022e-20)
(1.11918 0.178007 -5.34884e-20)
(1.07823 0.173675 1.09067e-20)
(1.04498 0.164051 0)
(1.02474 0.150056 -2.75839e-20)
(1.01589 0.136893 -3.30487e-20)
(1.00968 0.12453 5.78044e-20)
(0.970026 0.1089 -4.56566e-20)
(0.860681 0.0867885 0)
(0.636777 0.0598618 -1.64824e-20)
(0.340227 0.0299438 0)
(0.10625 0.00816569 -9.08405e-20)
(0.00110909 0.000652206 1.07059e-19)
(0.517551 0.053527 -6.32442e-21)
(1.00461 0.102603 1.10673e-19)
(1.21945 0.151499 -6.50853e-21)
(1.28863 0.175286 -7.02914e-20)
(1.28994 0.192344 -4.84157e-20)
(1.25731 0.208068 7.87449e-20)
(1.2087 0.214886 0)
(1.16305 0.218153 0)
(1.11721 0.216757 8.51692e-20)
(1.07347 0.20921 0)
(1.0367 0.195466 9.98154e-20)
(1.01106 0.18028 2.95969e-20)
(0.993589 0.165277 3.91417e-22)
(0.973396 0.14844 -6.30639e-20)
(0.932365 0.130868 0)
(0.811173 0.106219 0)
(0.573488 0.0700431 -2.69449e-19)
(0.28517 0.0332098 6.76678e-19)
(0.07954 0.00843429 -4.00212e-19)
(-0.00828711 -0.000334792 -4.71972e-19)
(0.525333 0.0762065 -6.45576e-20)
(1.0425 0.159396 2.4497e-20)
(1.25626 0.21186 1.31698e-20)
(1.31476 0.234304 1.22789e-19)
(1.30867 0.249666 1.43514e-20)
(1.2686 0.261026 -2.05529e-19)
(1.21447 0.263979 6.99376e-20)
(1.16354 0.26393 0)
(1.11239 0.259586 -1.80356e-19)
(1.06211 0.249631 1.59851e-19)
(1.01807 0.232184 -2.69502e-19)
(0.988784 0.213582 1.26317e-19)
(0.972434 0.195054 -8.18349e-20)
(0.956751 0.179827 1.84311e-19)
(0.90288 0.15929 0)
(0.772566 0.125619 -6.74434e-20)
(0.539157 0.0819799 0)
(0.273723 0.0378121 3.72295e-19)
(0.0779384 0.010884 -8.80577e-19)
(-0.00862422 -0.00145034 5.52206e-19)
(0.520671 0.107915 1.83278e-19)
(1.06176 0.215788 -8.00131e-20)
(1.27749 0.276505 -1.68906e-20)
(1.33165 0.298364 0)
(1.32043 0.311748 -9.07459e-20)
(1.27508 0.318016 1.11887e-19)
(1.21623 0.316219 -7.49417e-20)
(1.16008 0.312204 0)
(1.10331 0.303687 1.28222e-19)
(1.04702 0.288046 -1.12364e-19)
(1.00023 0.267018 2.33705e-19)
(0.96849 0.24662 0)
(0.946084 0.228989 -1.7399e-19)
(0.920475 0.207528 9.80188e-20)
(0.870974 0.184748 2.47401e-19)
(0.746199 0.150364 -2.17701e-19)
(0.524049 0.100055 3.45974e-19)
(0.274291 0.0496112 -7.6694e-19)
(0.0875383 0.0152623 4.8418e-19)
(-0.00357951 -0.00100872 -6.05589e-19)
(0.509521 0.132244 -6.5648e-20)
(1.07058 0.270168 4.7074e-20)
(1.28889 0.34272 -5.60648e-20)
(1.34072 0.364148 1.10659e-19)
(1.32586 0.375107 -1.03913e-19)
(1.2767 0.376402 3.55492e-20)
(1.21429 0.370197 3.61497e-21)
(1.15432 0.362101 -1.45918e-19)
(1.09394 0.349581 -1.34609e-19)
(1.03499 0.330654 -2.41533e-19)
(0.984804 0.307907 -5.0267e-19)
(0.947575 0.283375 -1.54821e-19)
(0.922747 0.260381 2.30021e-21)
(0.901884 0.242059 -3.36075e-19)
(0.845729 0.21711 -5.99195e-21)
(0.720399 0.174077 3.17064e-19)
(0.511537 0.117768 -9.56837e-20)
(0.279013 0.0624719 -5.54547e-20)
(0.0998857 0.0217513 0)
(0.00341327 0.000511367 1.28948e-18)
(0.492788 0.15305 0)
(1.06493 0.319598 -4.95704e-21)
(1.291 0.405688 -1.01078e-20)
(1.34285 0.428021 -1.27711e-20)
(1.32545 0.43797 1.00915e-19)
(1.27385 0.43494 -8.26189e-20)
(1.2088 0.424329 8.19233e-20)
(1.1456 0.411891 2.39459e-19)
(1.08128 0.394713 -7.49008e-20)
(1.0169 0.370955 1.19537e-19)
(0.959016 0.341923 2.70288e-19)
(0.920336 0.314748 3.37478e-19)
(0.897166 0.294222 -2.03285e-19)
(0.866275 0.271331 3.63935e-19)
(0.815975 0.243459 -2.88402e-19)
(0.701727 0.202345 0)
(0.507897 0.140286 -7.26711e-19)
(0.290413 0.0790093 9.78053e-19)
(0.115467 0.0310631 7.30058e-20)
(0.0118438 0.00318754 -1.36347e-18)
(0.478806 0.173407 -5.11348e-21)
(1.05759 0.368226 1.04489e-20)
(1.28851 0.466899 7.38835e-20)
(1.34034 0.490015 -9.52025e-20)
(1.32081 0.498756 8.31535e-20)
(1.26731 0.491849 -8.02767e-20)
(1.20027 0.477583 1.62635e-19)
(1.13447 0.461495 -7.21373e-20)
(1.06679 0.440666 -3.02387e-19)
(0.999381 0.413957 -1.83952e-23)
(0.942793 0.382979 -2.93597e-19)
(0.901986 0.354128 -3.62883e-19)
(0.870345 0.329556 2.24287e-19)
(0.848396 0.305439 -1.30936e-19)
(0.792798 0.277813 3.13352e-19)
(0.679919 0.226271 0)
(0.498229 0.162126 -4.50973e-19)
(0.295595 0.0948309 6.66029e-19)
(0.126652 0.0407277 1.26107e-18)
(0.0186728 0.00613113 -1.48336e-18)
(0.464866 0.19119 -4.48476e-20)
(1.0454 0.412728 1.62799e-20)
(1.28177 0.524358 -5.14322e-20)
(1.33395 0.548938 9.86853e-20)
(1.31263 0.55724 1.18982e-20)
(1.25774 0.547067 -1.57811e-19)
(1.18906 0.529377 -9.41044e-20)
(1.12111 0.509653 -9.17981e-20)
(1.0514 0.484905 -1.70251e-19)
(0.981804 0.453429 2.74244e-19)
(0.919151 0.417139 2.96931e-19)
(0.873047 0.386803 5.75891e-19)
(0.846777 0.360979 0)
(0.812227 0.334497 6.36988e-21)
(0.764587 0.301576 -8.60339e-19)
(0.661214 0.254661 2.00932e-19)
(0.493077 0.184167 9.7501e-19)
(0.301497 0.112304 -2.87688e-19)
(0.136174 0.0509044 5.986e-19)
(0.0242517 0.00928984 -4.99246e-20)
(0.455273 0.20957 5.92548e-21)
(1.03457 0.455951 3.86874e-20)
(1.27305 0.579595 -2.37859e-20)
(1.32506 0.605724 1.12137e-19)
(1.30212 0.61307 -1.70368e-19)
(1.24601 0.599714 1.57042e-19)
(1.17613 0.57912 9.74451e-20)
(1.10674 0.556284 2.74692e-19)
(1.03474 0.528298 3.4251e-19)
(0.960902 0.494081 -3.16057e-19)
(0.8968 0.456932 0)
(0.853689 0.422863 -2.17462e-19)
(0.819323 0.392429 2.4967e-19)
(0.795255 0.365328 3.1502e-19)
(0.741972 0.333423 -1.82113e-19)
(0.640345 0.275721 -4.44547e-19)
(0.481543 0.205111 -1.32698e-19)
(0.301468 0.127739 -1.64271e-21)
(0.140991 0.059793 0)
(0.0277841 0.0119037 0)
(0.447269 0.225915 -6.50295e-20)
(1.02259 0.496109 0)
(1.26223 0.63109 -9.54829e-21)
(1.31397 0.659125 -9.03294e-21)
(1.28976 0.666099 1.92529e-19)
(1.23279 0.650129 -4.91022e-20)
(1.16197 0.626808 9.89085e-20)
(1.09115 0.600984 -1.86061e-19)
(1.01732 0.5701 2.59638e-19)
(0.942715 0.532522 -1.03156e-19)
(0.877099 0.490836 1.69914e-19)
(0.828263 0.452451 6.89307e-19)
(0.796176 0.422453 1.42124e-20)
(0.760583 0.391042 -3.28291e-19)
(0.713275 0.352675 6.08268e-19)
(0.620183 0.301848 4.12886e-21)
(0.47096 0.224388 1.41967e-19)
(0.297079 0.141526 -6.7711e-19)
(0.140183 0.0667858 6.97999e-19)
(0.0289908 0.0135988 -8.22733e-19)
(0.440719 0.243808 3.88083e-23)
(1.01143 0.534686 0)
(1.2506 0.680312 0)
(1.3017 0.710283 -5.48163e-21)
(1.27635 0.716296 -5.78189e-20)
(1.21861 0.697673 7.39649e-20)
(1.14701 0.672054 -1.8517e-19)
(1.0751 0.643887 0)
(0.999506 0.610319 -3.82707e-19)
(0.922015 0.570038 4.57223e-19)
(0.852565 0.52583 4.83417e-19)
(0.803513 0.485164 -2.53007e-19)
(0.769188 0.449589 -3.05819e-19)
(0.743057 0.417445 7.16929e-19)
(0.690972 0.38101 -2.16049e-19)
(0.598 0.317775 -2.58009e-19)
(0.455053 0.241178 -1.54429e-19)
(0.290077 0.152347 -7.30115e-19)
(0.136297 0.0717392 1.06654e-19)
(0.0285233 0.014525 8.8768e-19)
(0.436484 0.262008 -3.34535e-20)
(1.00066 0.571022 -4.2942e-20)
(1.23804 0.726098 2.3628e-20)
(1.28843 0.75798 -1.6984e-22)
(1.2622 0.763613 -5.68377e-20)
(1.20382 0.742911 1.21265e-19)
(1.13153 0.715157 0)
(1.05865 0.684605 1.12001e-19)
(0.982026 0.648902 -8.83137e-20)
(0.903676 0.606429 7.61634e-19)
(0.832906 0.558495 -1.10322e-19)
(0.7809 0.513857 1.25306e-19)
(0.746027 0.476906 0)
(0.707708 0.439765 -3.88107e-19)
(0.662704 0.394608 4.69863e-19)
(0.576872 0.33946 0)
(0.441767 0.254552 -3.32848e-19)
(0.279861 0.161736 9.78652e-19)
(0.130565 0.0743238 1.1547e-19)
(0.0265448 0.015041 -1.09154e-18)
(0.433996 0.278954 -8.63908e-20)
(0.990819 0.605701 1.10906e-19)
(1.22541 0.769628 0)
(1.27485 0.803456 7.53784e-21)
(1.24768 0.808245 0)
(1.1887 0.785369 -1.55186e-19)
(1.11596 0.755735 0)
(1.0425 0.723405 0)
(0.964412 0.685707 -1.16267e-19)
(0.882788 0.640743 -7.23861e-19)
(0.808755 0.589769 -8.92853e-19)
(0.754779 0.542701 1.46383e-19)
(0.716174 0.500287 5.27799e-19)
(0.690334 0.461142 4.2707e-19)
(0.640413 0.4194 -1.50721e-18)
(0.554748 0.349319 -6.04924e-19)
(0.422602 0.265863 3.5421e-19)
(0.267523 0.16677 0)
(0.122995 0.0753336 9.91873e-19)
(0.0240067 0.0146733 -1.17553e-18)
(0.432368 0.294711 1.04852e-19)
(0.981425 0.638442 -1.3019e-19)
(1.21262 0.810032 0)
(1.26095 0.845598 -1.09958e-20)
(1.23307 0.850117 2.79257e-21)
(1.17365 0.82561 0)
(1.10055 0.794314 5.667e-20)
(1.02633 0.760098 7.71619e-20)
(0.947144 0.720907 -2.19e-19)
(0.864675 0.674506 9.60074e-20)
(0.789141 0.621457 0)
(0.731894 0.569881 6.06037e-19)
(0.693458 0.524344 4.92021e-21)
(0.654037 0.479404 2.30305e-19)
(0.611556 0.42657 2.7359e-19)
(0.532325 0.366147 0)
(0.40701 0.273 -5.78791e-19)
(0.254053 0.170116 1.13559e-18)
(0.115032 0.0749199 -1.2008e-18)
(0.0212773 0.013924 2.53053e-18)
(0.431115 0.309714 0)
(0.972542 0.669578 0)
(1.20015 0.848297 -6.29176e-20)
(1.24723 0.885705 0)
(1.21855 0.889518 0)
(1.15871 0.863252 -1.29441e-19)
(1.08537 0.83046 5.79814e-20)
(1.01068 0.794919 1.75791e-20)
(0.930188 0.754241 -5.01624e-20)
(0.844716 0.705948 0)
(0.765217 0.650171 -1.35696e-19)
(0.705498 0.595012 -4.94318e-19)
(0.662917 0.5443 -5.95079e-19)
(0.635593 0.496102 -2.39174e-19)
(0.588769 0.446943 2.96298e-19)
(0.509713 0.368565 -6.98492e-19)
(0.386054 0.277892 1.24524e-18)
(0.240379 0.169789 2.3525e-21)
(0.107001 0.073432 -1.15093e-18)
(0.0189411 0.0129774 -1.70597e-19)
(0.430007 0.324263 0)
(0.964233 0.699328 -1.07265e-19)
(1.18789 0.883871 7.78231e-20)
(1.23358 0.922733 0)
(1.20433 0.92636 0)
(1.14417 0.898835 2.59933e-19)
(1.07059 0.864782 0)
(0.995252 0.827789 0)
(0.913702 0.786122 -4.79597e-19)
(0.827116 0.737112 1.32208e-19)
(0.745395 0.680126 -1.20282e-18)
(0.682393 0.621315 0)
(0.639257 0.566853 -6.4528e-19)
(0.597626 0.511712 1.06298e-20)
(0.557706 0.446664 -9.5167e-19)
(0.485953 0.378924 3.75849e-19)
(0.371077 0.276727 1.58081e-21)
(0.228299 0.167142 -1.31098e-18)
(0.100515 0.0704963 6.20793e-19)
(0.0162417 0.0114565 1.82501e-19)
(0.428954 0.338453 0)
(0.956272 0.727448 -1.50904e-19)
(1.17605 0.917507 8.23327e-20)
(1.22036 0.957956 1.02623e-19)
(1.19041 0.960952 -1.3913e-20)
(1.12993 0.932029 2.60694e-20)
(1.05625 0.896831 -3.52086e-20)
(0.980632 0.858931 4.61936e-19)
(0.89803 0.816238 5.13033e-19)
(0.808873 0.765897 1.00744e-18)
(0.723688 0.706767 9.99414e-19)
(0.656803 0.645063 1.75521e-19)
(0.606994 0.585222 9.28402e-19)
(0.576793 0.524411 5.73115e-19)
(0.532528 0.462618 6.83187e-19)
(0.462514 0.370943 -4.11325e-19)
(0.350331 0.271179 -4.78436e-19)
(0.219492 0.15773 5.61168e-19)
(0.0994709 0.0719672 -3.33051e-19)
(0.0196465 0.0173591 5.90501e-19)
(0.428004 0.352208 2.14053e-19)
(0.948979 0.75443 2.36111e-19)
(1.16454 0.948868 4.82791e-20)
(1.20737 0.990384 1.62005e-20)
(1.17696 0.99322 1.13737e-20)
(1.11631 0.963343 -7.21785e-20)
(1.04256 0.927251 3.39676e-20)
(0.966472 0.888292 -2.0307e-20)
(0.882937 0.845017 -5.96336e-19)
(0.792463 0.794559 -1.09313e-18)
(0.703937 0.734859 6.93999e-20)
(0.63276 0.670663 0)
(0.582759 0.607659 0)
(0.535263 0.53988 -2.98746e-19)
(0.496074 0.454735 -1.11728e-18)
(0.435059 0.37123 8.85994e-19)
(0.341624 0.250934 5.23313e-19)
(0.226689 0.139266 0)
(0.112976 0.0460622 1.06251e-18)
(0.0132498 -0.00809052 -6.30682e-19)
(0.427101 0.365402 -1.13479e-19)
(0.941815 0.779579 1.00478e-19)
(1.15343 0.978439 -1.16854e-19)
(1.19495 1.02125 -9.28825e-20)
(1.16395 1.02346 -1.19702e-20)
(1.1031 0.992471 -2.30519e-20)
(1.02942 0.955557 0)
(0.953213 0.91605 -5.80108e-19)
(0.868742 0.872094 7.32115e-20)
(0.776046 0.820734 0)
(0.685083 0.760152 0)
(0.609145 0.694909 1.11778e-19)
(0.548211 0.626369 1.50129e-19)
(0.510476 0.55043 -3.22437e-19)
(0.464373 0.4694 8.02061e-19)
(0.401958 0.348235 -9.65393e-19)
(0.313715 0.228256 -1.11942e-18)
(0.23408 0.1199 9.91126e-19)
(0.169168 0.0877671 -3.7825e-19)
(0.11312 0.0797816 2.20146e-19)
(0.426196 0.377808 1.43353e-19)
(0.935272 0.803759 0)
(1.1427 1.00604 0)
(1.18282 1.04957 -2.52462e-20)
(1.15151 1.05163 2.04386e-20)
(1.09064 1.0199 -2.07467e-20)
(1.01702 0.982392 1.50138e-19)
(0.940438 0.94215 5.93968e-19)
(0.855188 0.897894 1.08139e-18)
(0.761434 0.84694 -8.21129e-20)
(0.666692 0.786602 1.69586e-19)
(0.585636 0.719458 -9.99368e-19)
(0.525309 0.650118 -9.95042e-19)
(0.464312 0.57019 -1.72945e-19)
(0.414013 0.457386 0)
(0.360047 0.347549 -7.11182e-21)
(0.288762 0.160355 6.16241e-19)
(0.261711 0.0187154 -1.03753e-18)
(0.224441 -0.0895152 7.88815e-19)
(0.0847318 -0.096827 6.54054e-19)
(0.425186 0.389786 -3.17072e-19)
(0.928585 0.826008 -1.43308e-19)
(1.13228 1.03207 6.99385e-21)
(1.17121 1.07676 5.51637e-20)
(1.13939 1.07827 0)
(1.07838 1.04571 -7.55349e-20)
(1.00488 1.00771 -2.15624e-19)
(0.928265 0.967329 -1.65799e-21)
(0.842301 0.922878 -5.66615e-19)
(0.746437 0.871379 -8.05496e-20)
(0.64961 0.811105 7.48163e-20)
(0.563967 0.746239 8.77855e-19)
(0.487688 0.672858 9.71117e-19)
(0.43439 0.582094 1.68304e-19)
(0.37499 0.4824 8.60445e-19)
(0.290794 0.315645 0)
(0.171735 0.146224 0)
(0.00306518 0.204161 7.14536e-19)
(-0.0777372 0.629917 -2.97012e-20)
(0.00703807 1.53664 -8.79504e-19)
(0.424184 0.40107 1.75363e-19)
(0.922596 0.847783 4.00746e-19)
(1.12219 1.05668 -5.47654e-19)
(1.15978 1.102 2.72409e-19)
(1.12767 1.10359 -6.3662e-21)
(1.06665 1.07068 -2.89554e-20)
(0.99321 1.03253 0)
(0.916261 0.991966 -4.95064e-19)
(0.829635 0.94786 0)
(0.732789 0.897549 1.135e-18)
(0.631656 0.838586 -9.08951e-20)
(0.540162 0.772556 1.01919e-19)
(0.466744 0.701879 1.11059e-18)
(0.380945 0.618171 -3.64827e-19)
(0.283525 0.477586 -4.37998e-19)
(0.19659 0.371323 0)
(0.087337 0.502121 0)
(0.026126 1.33108 0)
(0.0725329 2.46269 -4.05899e-19)
(0.0999535 2.91051 -2.49803e-19)
(0.422852 0.411782 0)
(0.916306 0.867443 0)
(1.1124 1.0798 2.00044e-19)
(1.14892 1.12637 -2.20973e-19)
(1.11628 1.12763 9.59283e-20)
(1.0551 1.09428 3.5565e-20)
(0.981796 1.05608 2.77258e-20)
(0.904904 1.01596 -2.15866e-20)
(0.817715 0.972372 7.97708e-20)
(0.718697 0.922258 -1.30256e-18)
(0.615754 0.864251 1.64823e-19)
(0.520545 0.804112 8.76007e-19)
(0.425744 0.734451 -1.10653e-18)
(0.348322 0.63342 -1.21381e-18)
(0.267016 0.538577 4.08668e-19)
(0.190273 0.673449 0)
(0.122031 1.55839 5.65909e-19)
(0.123383 2.69338 6.20775e-19)
(0.131452 3.08799 -6.94036e-19)
(0.123108 3.22223 7.45325e-19)
(0.42156 0.422183 0)
(0.910799 0.886875 3.5613e-19)
(1.10299 1.10168 -5.01214e-20)
(1.13826 1.14885 3.12223e-19)
(1.10537 1.15044 -1.00692e-19)
(1.04424 1.11706 0)
(0.971033 1.0791 0)
(0.893863 1.03922 0)
(0.806091 0.996514 4.49797e-19)
(0.70649 0.948403 6.01558e-20)
(0.599663 0.8931 0)
(0.497693 0.831984 -8.71291e-19)
(0.413276 0.766761 0)
(0.29793 0.682966 8.68765e-19)
(0.204961 0.747921 -5.85321e-19)
(0.154405 1.46234 -4.70948e-19)
(0.156734 2.68122 -1.10174e-18)
(0.178587 3.12678 -5.80973e-19)
(0.169409 3.2673 -7.89255e-19)
(0.155516 3.30755 5.95472e-19)
(0.420039 0.431634 -1.24652e-19)
(0.904869 0.904027 1.5431e-20)
(1.09386 1.12213 -5.59144e-20)
(1.12824 1.17063 -2.40947e-19)
(1.09484 1.17209 0)
(1.03356 1.13858 0)
(0.96049 1.10091 0)
(0.883444 1.06188 3.451e-20)
(0.795307 1.02022 -5.68532e-19)
(0.69376 0.973061 0)
(0.585706 0.91959 0)
(0.483938 0.866595 0)
(0.370609 0.802815 0)
(0.305717 0.77493 6.34522e-19)
(0.270863 1.16388 1.56013e-18)
(0.248314 2.38504 4.61964e-19)
(0.262038 3.08315 9.3127e-19)
(0.25662 3.28295 -7.13844e-19)
(0.207832 3.34865 2.63867e-19)
(0.175362 3.36137 0)
(0.418599 0.440825 1.2846e-19)
(0.899636 0.921784 -7.92359e-19)
(1.08491 1.14213 -2.12508e-19)
(1.11816 1.1912 -4.65744e-20)
(1.08456 1.19321 2.3397e-20)
(1.02341 1.15992 -7.73394e-20)
(0.950478 1.12274 -3.31831e-21)
(0.873209 1.08421 -3.8603e-19)
(0.784618 1.04381 0)
(0.683102 0.999309 -7.60931e-20)
(0.572325 0.949601 6.92213e-20)
(0.463281 0.895282 0)
(0.374875 0.845293 0)
(0.319924 0.96257 -7.94092e-19)
(0.273148 1.85526 9.79419e-20)
(0.269368 2.94352 -3.4673e-19)
(0.291957 3.2871 7.24231e-19)
(0.26431 3.38554 5.25061e-19)
(0.198767 3.40998 -7.13466e-19)
(0.174014 3.41954 3.53813e-19)
(0.416588 0.450227 2.53066e-19)
(0.893186 0.93839 7.73359e-19)
(1.07539 1.16233 2.54995e-19)
(1.10794 1.21286 0)
(1.07388 1.21471 0)
(1.01266 1.18131 6.04405e-20)
(0.939963 1.14449 7.11232e-20)
(0.863036 1.10697 3.44272e-19)
(0.774531 1.06787 2.23261e-20)
(0.671549 1.02482 9.74177e-19)
(0.560339 0.97729 -1.14921e-18)
(0.449837 0.929131 0)
(0.371646 0.924013 0)
(0.334256 1.33015 -5.41047e-19)
(0.334765 2.48887 -6.50471e-19)
(0.378076 3.19789 0)
(0.402554 3.36907 -7.31825e-19)
(0.332595 3.43179 4.93993e-20)
(0.263217 3.47656 3.43114e-19)
(0.240723 3.50186 -1.13024e-19)
(0.41446 0.459993 -4.81971e-19)
(0.887043 0.957758 -3.71594e-19)
(1.06515 1.18392 0)
(1.09659 1.23473 0)
(1.06251 1.23718 0)
(1.00162 1.20388 0)
(0.929307 1.16744 -8.35453e-20)
(0.852415 1.1303 3.03062e-19)
(0.763748 1.09242 0)
(0.66162 1.05215 -8.87074e-19)
(0.549688 1.0088 2.06125e-18)
(0.440041 0.969191 8.40643e-20)
(0.389264 1.04445 1.11753e-19)
(0.386652 1.74945 8.8194e-19)
(0.400688 2.90107 -4.74173e-19)
(0.438635 3.31982 0)
(0.421823 3.44289 2.04832e-19)
(0.336333 3.53119 9.18125e-20)
(0.260826 3.59497 1.5012e-19)
(0.185498 3.57441 -1.29797e-20)
(0.41147 0.470237 2.29547e-19)
(0.878867 0.975724 -3.80591e-19)
(1.05382 1.20607 0)
(1.08476 1.2584 -6.80952e-20)
(1.05029 1.26035 2.33114e-19)
(0.989479 1.2267 0)
(0.917661 1.19042 0)
(0.841521 1.15423 -5.26273e-19)
(0.753583 1.11757 -5.69614e-20)
(0.65084 1.07887 8.70066e-19)
(0.536205 1.03743 -9.79546e-19)
(0.446917 1.0174 5.71169e-19)
(0.407602 1.23137 0)
(0.42287 2.18714 -4.67659e-19)
(0.465381 3.14562 3.06739e-19)
(0.528904 3.42317 1.9195e-19)
(0.520991 3.5194 0)
(0.458173 3.60084 -3.81744e-20)
(0.38815 3.64178 -4.13537e-19)
(0.307488 3.61331 -9.68275e-20)
(0.40834 0.480675 -4.58537e-19)
(0.87122 0.997595 5.45253e-19)
(1.04165 1.23002 3.76446e-19)
(1.0715 1.28211 -9.32961e-20)
(1.03719 1.28464 -3.56519e-19)