/*--------------------------------*- C++ -*----------------------------------*\
  =========                 |
  \\      /  F ield         | OpenFOAM: The Open Source CFD Toolbox
   \\    /   O peration     | Website:  https://openfoam.org
    \\  /    A nd           | Version:  9
     \\/     M anipulation  |
\*---------------------------------------------------------------------------*/
FoamFile
{
    format      ascii;
    class       volScalarField;
    location    "37";
    object      p;
}
// * * * * * * * * * * * * * * * * * * * * * * * * * * * * * * * * * * * * * //

dimensions      [0 2 -2 0 0 0 0];

internalField   nonuniform List<scalar> 
2200
(
0.824962
0.803461
0.787551
0.77188
0.757266
0.744735
0.734364
0.726228
0.720489
0.717473
0.717874
0.721619
0.727888
0.736398
0.747037
0.759768
0.774527
0.790386
0.806397
0.827902
0.757411
0.754152
0.751225
0.747098
0.741619
0.735131
0.728494
0.72251
0.717958
0.715488
0.715886
0.719117
0.724232
0.730639
0.737582
0.744301
0.749943
0.754067
0.756952
0.760288
0.717527
0.717745
0.719787
0.721116
0.721496
0.720625
0.718613
0.715914
0.713333
0.711787
0.712255
0.714606
0.7178
0.720957
0.723267
0.72427
0.723984
0.722929
0.721203
0.720961
0.695013
0.696458
0.699062
0.701525
0.703964
0.705971
0.707109
0.707305
0.706886
0.706528
0.707066
0.708329
0.709445
0.709765
0.709022
0.707311
0.705116
0.702877
0.700273
0.69886
0.680748
0.68272
0.685536
0.688359
0.691192
0.693993
0.696424
0.698239
0.699397
0.700089
0.700705
0.701077
0.700747
0.699569
0.69764
0.695224
0.692639
0.689901
0.687112
0.685181
0.673517
0.675118
0.677308
0.679814
0.682451
0.685084
0.687622
0.689988
0.691936
0.693332
0.694055
0.693949
0.692992
0.691379
0.689405
0.687197
0.684835
0.682476
0.680368
0.67879
0.670128
0.67115
0.672412
0.674271
0.676407
0.678554
0.680697
0.682921
0.685055
0.686789
0.687656
0.687491
0.686571
0.685246
0.683769
0.682116
0.680348
0.678719
0.677578
0.676564
0.667583
0.668247
0.668878
0.67018
0.671791
0.673448
0.675144
0.676976
0.6789
0.680699
0.681754
0.68186
0.6814
0.680655
0.679763
0.678724
0.677583
0.6766
0.67612
0.675448
0.664555
0.665002
0.665399
0.666389
0.667636
0.668986
0.670421
0.671973
0.673652
0.675387
0.676674
0.677261
0.677343
0.677139
0.676704
0.676106
0.675418
0.674806
0.674579
0.67412
0.660689
0.660988
0.661349
0.662227
0.66334
0.664603
0.666014
0.667559
0.669238
0.671034
0.672618
0.673663
0.67417
0.674287
0.674126
0.673774
0.673323
0.672879
0.672699
0.672385
0.656155
0.656346
0.656734
0.657604
0.658744
0.660085
0.66162
0.663323
0.665184
0.667214
0.669156
0.670578
0.671402
0.671743
0.671749
0.671554
0.671229
0.670885
0.670711
0.670496
0.651271
0.651401
0.65178
0.652645
0.65386
0.655357
0.657088
0.659027
0.661183
0.663577
0.665969
0.667835
0.668967
0.669532
0.669683
0.669569
0.669349
0.669117
0.668974
0.668821
0.64617
0.646259
0.646634
0.647462
0.648705
0.650319
0.652288
0.654601
0.657254
0.660228
0.663186
0.665472
0.666886
0.667636
0.667958
0.66803
0.667992
0.667893
0.66779
0.667664
0.640644
0.640698
0.641078
0.641937
0.64326
0.644999
0.647173
0.64986
0.653097
0.656809
0.660418
0.663113
0.664861
0.665939
0.666598
0.666975
0.66712
0.66715
0.6671
0.666989
0.634636
0.634634
0.635047
0.635948
0.637421
0.639323
0.641686
0.644635
0.648319
0.652722
0.657161
0.660651
0.663083
0.66478
0.665905
0.666537
0.666865
0.667011
0.66701
0.66692
0.628271
0.628178
0.628601
0.629582
0.631213
0.633347
0.635975
0.639252
0.643389
0.648521
0.654017
0.658658
0.662046
0.664432
0.666012
0.666941
0.6675
0.667761
0.667811
0.66774
0.621379
0.621378
0.621716
0.622719
0.624633
0.627091
0.630213
0.634168
0.639164
0.645356
0.652101
0.657872
0.662104
0.665064
0.667078
0.668425
0.669259
0.669663
0.669768
0.669699
0.613508
0.613489
0.613924
0.615158
0.617344
0.620224
0.624036
0.628986
0.635237
0.642938
0.651166
0.658069
0.663101
0.666727
0.669307
0.671063
0.672134
0.672699
0.672871
0.672798
0.604449
0.604362
0.604907
0.60638
0.608839
0.612221
0.616783
0.622748
0.630442
0.639968
0.650072
0.658515
0.664763
0.669305
0.672565
0.674814
0.676235
0.677005
0.677249
0.677161
0.593582
0.593472
0.594071
0.595747
0.598649
0.602662
0.608071
0.615231
0.624508
0.636104
0.648535
0.659009
0.666847
0.672633
0.676811
0.67973
0.681638
0.682646
0.682968
0.682852
0.580467
0.580342
0.581028
0.582976
0.586419
0.591346
0.598093
0.60697
0.618404
0.632581
0.647673
0.660396
0.669915
0.677028
0.68222
0.685959
0.688437
0.689706
0.6901
0.689943
0.564019
0.563931
0.564896
0.567373
0.571784
0.578122
0.586743
0.598077
0.612459
0.629852
0.647964
0.663095
0.67444
0.682915
0.689185
0.693702
0.696704
0.698204
0.698649
0.698446
0.543299
0.543142
0.54445
0.547827
0.553667
0.562077
0.573398
0.588009
0.606064
0.627341
0.649037
0.666886
0.680209
0.690184
0.697574
0.702931
0.706472
0.708197
0.708691
0.708441
0.515924
0.515971
0.518078
0.522838
0.530979
0.542555
0.557631
0.576415
0.598895
0.624715
0.650495
0.671484
0.687084
0.698791
0.707522
0.713831
0.717923
0.71985
0.720364
0.720059
0.479026
0.479332
0.482975
0.490723
0.502813
0.519212
0.539486
0.563628
0.591442
0.622451
0.652732
0.6771
0.695144
0.708685
0.718841
0.726242
0.73094
0.733076
0.733605
0.733208
0.429492
0.429935
0.437064
0.450084
0.468681
0.492231
0.519471
0.550281
0.584389
0.621236
0.65634
0.684173
0.704688
0.720167
0.731845
0.740275
0.745453
0.747629
0.748033
0.747609
0.363549
0.366526
0.381923
0.403407
0.430922
0.46316
0.498504
0.536858
0.577999
0.62138
0.661904
0.693894
0.717667
0.735668
0.749275
0.759286
0.76542
0.767803
0.768029
0.767808
0.288311
0.298059
0.323793
0.355274
0.392853
0.434068
0.477497
0.52362
0.572174
0.62259
0.669382
0.706417
0.734048
0.755199
0.771551
0.783501
0.790849
0.793316
0.793433
0.793595
0.22153
0.236623
0.268847
0.308841
0.35578
0.405794
0.457231
0.511111
0.566998
0.624292
0.676937
0.718518
0.749691
0.773584
0.791767
0.805196
0.813418
0.817003
0.817788
0.817763
0.170962
0.184487
0.222023
0.267877
0.321934
0.379233
0.438094
0.499285
0.562096
0.625929
0.68414
0.729999
0.76406
0.789972
0.809866
0.824831
0.833628
0.83747
0.838213
0.838301
0.129338
0.141949
0.182969
0.232696
0.29214
0.355215
0.420443
0.488114
0.557214
0.627189
0.69086
0.74039
0.776915
0.804563
0.82545
0.841145
0.8505
0.854606
0.855499
0.855609
0.0935161
0.106381
0.149789
0.202341
0.265975
0.333674
0.404258
0.477541
0.552344
0.628121
0.696568
0.749261
0.787816
0.816656
0.838295
0.854141
0.863887
0.868328
0.869401
0.869509
0.0622516
0.0752755
0.120663
0.175693
0.242715
0.314218
0.389308
0.467411
0.547305
0.62803
0.700631
0.756316
0.796588
0.826399
0.848392
0.864492
0.874807
0.879502
0.880784
0.880881
0.0342267
0.0473194
0.0943546
0.151639
0.221579
0.296312
0.375232
0.457497
0.541869
0.627302
0.70426
0.762457
0.804018
0.834558
0.857213
0.873569
0.884155
0.889116
0.890485
0.89054
0.00859181
0.0216593
0.069943
0.12939
0.201945
0.279496
0.361754
0.44773
0.536233
0.626103
0.70642
0.767226
0.810438
0.841916
0.865065
0.881641
0.892351
0.897357
0.898699
0.898506
-0.0155003
-0.00207895
0.0469966
0.108471
0.183304
0.263369
0.348571
0.437792
0.529859
0.623382
0.707654
0.771642
0.816315
0.8486
0.872156
0.88886
0.899265
0.904328
0.905644
0.905485
-0.038116
-0.0245974
0.025279
0.0885649
0.165374
0.247662
0.335406
0.427443
0.522803
0.620363
0.709032
0.775358
0.821964
0.855177
0.878796
0.8955
0.905936
0.910782
0.912206
0.912099
-0.0594801
-0.0459803
0.0045805
0.0694002
0.147891
0.232156
0.322184
0.416874
0.515483
0.616766
0.708608
0.778334
0.827325
0.861365
0.88552
0.902136
0.91244
0.917219
0.918481
0.918411
-0.0801031
-0.0663662
-0.0153066
0.0507759
0.130702
0.216774
0.308938
0.406059
0.507434
0.611876
0.707862
0.781538
0.832424
0.867946
0.892434
0.90894
0.919037
0.923541
0.924758
0.924646
-0.100389
-0.0860037
-0.0345654
0.0326033
0.113765
0.201475
0.295571
0.394832
0.498655
0.606377
0.706541
0.783368
0.837432
0.874752
0.89984
0.916177
0.925703
0.929933
0.930871
0.930734
-0.120365
-0.10515
-0.0533276
0.0148426
0.0970785
0.186218
0.282003
0.383208
0.489443
0.600282
0.704051
0.78487
0.842261
0.881846
0.908018
0.924084
0.932737
0.936122
0.936777
0.936592
-0.139871
-0.123918
-0.0716518
-0.00253229
0.0806327
0.171
0.268278
0.371287
0.479769
0.593284
0.700262
0.785202
0.846487
0.889313
0.917258
0.933139
0.940261
0.942179
0.942233
0.942084
-0.158798
-0.142288
-0.0895257
-0.0195135
0.0644661
0.155884
0.254471
0.359098
0.469491
0.585174
0.695245
0.784481
0.850143
0.897027
0.927786
0.944205
0.949425
0.947689
0.946954
0.947682
-0.177105
-0.160186
-0.106897
-0.0360561
0.0486425
0.14095
0.24063
0.346594
0.458585
0.576315
0.68935
0.782275
0.852718
0.904567
0.939568
0.957985
0.962007
0.956017
0.950522
0.948613
-0.194776
-0.177505
-0.123696
-0.0521057
0.0332306
0.126271
0.226825
0.333872
0.447246
0.566763
0.681905
0.778377
0.853755
0.911473
0.95239
0.975205
0.982352
0.970266
0.967426
0.971875
-0.211804
-0.19419
-0.139868
-0.0676042
0.0182933
0.111925
0.213157
0.321056
0.435541
0.556494
0.673562
0.773069
0.852781
0.916612
0.965035
0.995522
1.0095
0.98348
0.940261
0.900873
-0.228125
-0.210234
-0.155443
-0.0826223
0.00372974
0.0978017
0.199506
0.308005
0.423307
0.545425
0.66401
0.765437
0.848745
0.918826
0.976119
1.01791
1.0468
1.03963
1.05667
1.11076
-0.243696
-0.225699
-0.170519
-0.0972981
-0.0106417
0.0836807
0.185618
0.294404
0.410128
0.532906
0.652482
0.755027
0.840817
0.91529
0.977294
1.02266
1.0448
1.03323
0.99704
1.00855
-0.258485
-0.240544
-0.185048
-0.111584
-0.0247534
0.0696528
0.171623
0.280421
0.396182
0.519173
0.639156
0.741776
0.827155
0.901873
0.963261
1.00635
1.00295
0.955664
0.894871
0.883714
-0.272496
-0.254775
-0.199035
-0.125483
-0.0386105
0.0557109
0.157532
0.266102
0.38153
0.504128
0.623584
0.725131
0.808004
0.877095
0.931741
0.947467
0.916618
0.844181
0.771711
0.753895
-0.285758
-0.268374
-0.21249
-0.139018
-0.0522401
0.0418352
0.143337
0.251449
0.366192
0.48778
0.605857
0.705243
0.78219
0.838776
0.868887
0.8601
0.808795
0.709318
0.623203
0.603467
-0.298735
-0.281765
-0.225813
-0.152557
-0.0659945
0.0277129
0.128755
0.236214
0.349961
0.469974
0.585948
0.681523
0.751265
0.791957
0.787982
0.755481
0.649762
0.529297
0.423153
0.398106
-0.312325
-0.295723
-0.239702
-0.166731
-0.0804513
0.0128574
0.113363
0.220021
0.33252
0.450507
0.563416
0.653751
0.716385
0.733707
0.699615
0.615105
0.460736
0.309498
0.18189
0.155941
-0.327057
-0.310691
-0.254487
-0.181772
-0.0957901
-0.00286392
0.0970648
0.202817
0.313862
0.429377
0.538281
0.623139
0.674576
0.665051
0.610616
0.463052
0.262871
0.0499698
-0.130025
-0.176878
-0.343023
-0.326718
-0.270217
-0.197706
-0.111989
-0.0194217
0.0798923
0.184632
0.294057
0.406757
0.510569
0.589896
0.626087
0.585512
0.497418
0.308349
0.0743784
-0.217178
-0.54139
-0.68653
-0.360311
-0.343948
-0.287013
-0.214608
-0.129093
-0.0368768
0.0617856
0.165431
0.273096
0.382698
0.480644
0.554146
0.573131
0.500912
0.363815
0.154671
-0.0842732
-0.433812
-1.02837
-1.60431
-0.378972
-0.362407
-0.304931
-0.232543
-0.147123
-0.0552143
0.0427936
0.145302
0.251147
0.357578
0.449607
0.515419
0.516882
0.425268
0.233675
-0.00547323
-0.214757
-0.457721
-1.02833
-2.5755
-0.399015
-0.382252
-0.324077
-0.251623
-0.166231
-0.0746287
0.0226939
0.123998
0.227875
0.330975
0.417235
0.473756
0.456114
0.365727
0.13699
-0.108167
-0.262252
-0.306049
-0.305084
-0.700661
-0.420339
-0.403502
-0.344605
-0.272155
-0.186813
-0.0955953
0.000887096
0.100768
0.202361
0.301552
0.382444
0.428793
0.394911
0.31695
0.0848815
-0.125904
-0.242605
-0.25358
-0.202783
-0.244831
-0.442901
-0.426115
-0.366514
-0.294173
-0.208927
-0.11823
-0.0227589
0.0754807
0.174438
0.269141
0.345301
0.381992
0.340915
0.265715
0.0509581
-0.118917
-0.204244
-0.211732
-0.259117
-0.2658
-0.466582
-0.449791
-0.389716
-0.317692
-0.232558
-0.142528
-0.0482737
0.048081
0.144104
0.234103
0.305756
0.333603
0.292907
0.204956
0.0229012
-0.109466
-0.18463
-0.15504
-0.177756
-0.179583
-0.491237
-0.474191
-0.414111
-0.342579
-0.257533
-0.168404
-0.0755514
0.0187009
0.11151
0.196932
0.264045
0.281978
0.250804
0.138102
-0.0112935
-0.104021
-0.153051
-0.193099
-0.169595
-0.177456
-0.516386
-0.499002
-0.439572
-0.368676
-0.283633
-0.19566
-0.104378
-0.012384
0.0768456
0.157969
0.221032
0.228791
0.208436
0.0751741
-0.0500704
-0.118258
-0.10768
-0.167895
-0.143508
-0.149162
-0.541425
-0.523844
-0.465885
-0.395514
-0.310491
-0.224027
-0.134423
-0.0448301
0.040352
0.117515
0.177669
0.17675
0.158037
0.0222178
-0.0798743
-0.137062
-0.11427
-0.141934
-0.144058
-0.144452
-0.565754
-0.548441
-0.492198
-0.422411
-0.337792
-0.253086
-0.165237
-0.0780881
0.00279004
0.076069
0.13512
0.128058
0.102064
-0.0228102
-0.0971563
-0.134926
-0.157083
-0.143641
-0.149542
-0.146282
-0.588645
-0.572042
-0.517501
-0.448485
-0.365083
-0.28225
-0.196214
-0.111579
-0.0349828
0.0338349
0.0923659
0.0817038
0.0443527
-0.0601703
-0.112706
-0.11926
-0.17752
-0.142584
-0.150249
-0.143831
-0.609187
-0.593706
-0.540849
-0.47288
-0.391945
-0.310706
-0.226565
-0.144517
-0.0717442
-0.00832691
0.0500707
0.0361435
-0.0102162
-0.0840214
-0.129475
-0.118308
-0.175526
-0.131969
-0.137682
-0.13236
-0.626133
-0.61218
-0.56155
-0.495057
-0.417159
-0.337383
-0.255369
-0.175978
-0.106455
-0.0494442
0.00887305
-0.0087466
-0.06475
-0.0985062
-0.114897
-0.100932
-0.110862
-0.117815
-0.123261
-0.123644
-0.638412
-0.626421
-0.578619
-0.514196
-0.439246
-0.361272
-0.281619
-0.204885
-0.138033
-0.0878372
-0.0306014
-0.0510491
-0.126248
-0.119873
-0.0486867
-0.0271997
-0.0547906
-0.102111
-0.121786
-0.130258
-0.644905
-0.635152
-0.59105
-0.52903
-0.456715
-0.381185
-0.304096
-0.229868
-0.165058
-0.120778
-0.0670167
-0.0863795
-0.195618
-0.236957
-0.171401
-0.200425
-0.209793
-0.21963
-0.226246
-0.222838
-0.645028
-0.63728
-0.597164
-0.538055
-0.468612
-0.395792
-0.321358
-0.249332
-0.18603
-0.144817
-0.0986699
-0.115692
-0.275164
-0.492975
-0.689323
-0.804199
-0.819741
-0.757656
-0.699258
-0.654017
-0.6379
-0.630676
-0.595415
-0.54009
-0.473835
-0.403915
-0.331983
-0.261551
-0.1983
-0.156131
-0.118995
-0.127743
-0.320152
-0.67096
-1.13175
-1.35877
-1.36179
-1.30826
-1.21349
-1.13763
-0.619553
-0.611909
-0.583368
-0.533686
-0.471567
-0.404698
-0.334922
-0.264866
-0.198963
-0.150712
-0.115525
-0.101259
-0.231212
-0.453912
-0.738528
-0.838197
-0.770312
-0.687211
-0.573318
-0.503461
-0.583654
-0.576814
-0.559918
-0.518997
-0.461634
-0.397584
-0.329658
-0.258455
-0.186474
-0.124312
-0.0746446
-0.00158158
0.0751196
0.229158
0.357392
0.496497
0.626251
0.715815
0.772268
0.830362
-0.53791
-0.534107
-0.528986
-0.496757
-0.445879
-0.38437
-0.316473
-0.242637
-0.161849
-0.0767137
0.00578911
0.151853
0.383744
0.756531
1.11993
1.42012
1.63609
1.77036
1.83747
1.85763
-0.504705
-0.504683
-0.498838
-0.474353
-0.42834
-0.367641
-0.297634
-0.220029
-0.130762
-0.0248082
0.0884529
0.243893
0.542807
0.945007
1.33792
1.66952
1.90594
2.04058
2.09877
2.11451
-0.47262
-0.473438
-0.467775
-0.453723
-0.412368
-0.351571
-0.27851
-0.197978
-0.105757
0.00464516
0.122219
0.234072
0.494156
0.826546
1.14223
1.40964
1.61585
1.74
1.79704
1.81422
-0.443697
-0.442627
-0.441905
-0.436917
-0.39641
-0.335958
-0.261951
-0.18003
-0.0910112
0.0106048
0.121317
0.195104
0.394863
0.666176
0.914144
1.12424
1.29569
1.40259
1.45054
1.46344
-0.42799
-0.426463
-0.431999
-0.423004
-0.38182
-0.319992
-0.246646
-0.167278
-0.085203
0.00133113
0.10374
0.15748
0.293617
0.506323
0.702154
0.861459
0.989553
1.07424
1.11233
1.12255
-0.399154
-0.398543
-0.40588
-0.39631
-0.359137
-0.298552
-0.228845
-0.15513
-0.0811708
-0.00978691
0.082941
0.129842
0.214246
0.37517
0.528393
0.647146
0.739583
0.802232
0.829691
0.835311
-0.34374
-0.344954
-0.350722
-0.343068
-0.313923
-0.261822
-0.203002
-0.138583
-0.0739419
-0.0161327
0.0647312
0.109648
0.159815
0.279059
0.395432
0.482279
0.548279
0.592844
0.611789
0.618221
-0.259934
-0.262151
-0.265144
-0.260592
-0.240096
-0.205329
-0.163381
-0.114168
-0.0606241
-0.014601
0.0518706
0.0933905
0.124958
0.214073
0.298882
0.359775
0.407151
0.442134
0.455048
0.458586
-0.163382
-0.164959
-0.16661
-0.164755
-0.154475
-0.136346
-0.112084
-0.080659
-0.0404404
-0.00578665
0.0449978
0.0799194
0.103122
0.171054
0.231058
0.272396
0.306025
0.329084
0.340084
0.34365
-0.0761018
-0.0772501
-0.0786301
-0.0792602
-0.0767533
-0.0705683
-0.0599051
-0.0429608
-0.016902
0.00619281
0.0421791
0.069751
0.0862165
0.138886
0.181413
0.208976
0.23125
0.244762
0.25137
0.253114
-0.00921832
-0.00998319
-0.0114054
-0.0140902
-0.0169486
-0.018075
-0.0161082
-0.00936074
0.00440897
0.0178044
0.0404782
0.0623563
0.0723582
0.112279
0.140841
0.15985
0.173225
0.179813
0.181741
0.181471
0.0334929
0.032956
0.0315791
0.0278095
0.0217693
0.0168132
0.0140813
0.0146291
0.0200616
0.0275464
0.0401978
0.0546657
0.0630058
0.0885182
0.108315
0.121455
0.128485
0.130795
0.130033
0.128635
0.0565451
0.0560921
0.0547873
0.0508286
0.0438706
0.0372867
0.0321123
0.0293029
0.0305606
0.0348462
0.0425223
0.0499369
0.0572354
0.0706448
0.0822246
0.0896763
0.0931148
0.0931655
0.0917024
0.0901277
0.0663992
0.0660267
0.0649119
0.0615083
0.0553196
0.0487659
0.0428992
0.0385986
0.0379088
0.0396245
0.0456514
0.0489721
0.0530404
0.0592871
0.0637951
0.0654332
0.0662469
0.0643624
0.0622271
0.0609729
0.0690892
0.0687895
0.0679023
0.0652614
0.0604225
0.0549699
0.0496148
0.0448421
0.0430885
0.0424159
0.0467231
0.0495034
0.0507918
0.0534984
0.0547516
0.0546105
0.0535701
0.0518837
0.049557
0.0478514
0.0679368
0.0677179
0.0670223
0.0651752
0.0616341
0.0574034
0.0529457
0.0483599
0.0458942
0.0438134
0.0455677
0.047503
0.0486152
0.0509523
0.0520697
0.0518638
0.0504459
0.0490049
0.0474716
0.0456357
0.0650927
0.0649284
0.0643699
0.0630306
0.0603297
0.0571488
0.0535149
0.0495421
0.046901
0.0440375
0.0438007
0.0438883
0.0442206
0.0460496
0.048433
0.0488442
0.0493676
0.0480442
0.0469623
0.04568
0.0614906
0.061353
0.0608981
0.0599365
0.0579437
0.0556144
0.0527471
0.0494026
0.0468387
0.0436319
0.0423947
0.0411807
0.0416113
0.042074
0.0440643
0.0466644
0.0481907
0.0489921
0.0489701
0.0474735
0.0580294
0.057902
0.0575459
0.0568077
0.0553465
0.0536802
0.0514834
0.0488134
0.0462135
0.042521
0.0407144
0.037581
0.0379449
0.0403026
0.0437248
0.0476788
0.0494755
0.0523582
0.0544024
0.0523339
0.0550195
0.0548955
0.0546613
0.0541288
0.053047
0.0518566
0.0502312
0.0478501
0.0457283
0.0417861
0.0386587
0.0345659
0.0316557
0.0366107
0.0436918
0.0490397
0.0548428
0.0570362
0.0580828
0.0567907
0.0525302
0.052411
0.0522654
0.0518262
0.0510841
0.0503677
0.0494389
0.0472086
0.0458649
0.0416137
0.036702
0.0320256
0.0262531
0.031197
0.0412904
0.0471093
0.0517837
0.0528682
0.0525489
0.0517888
0.0501885
0.0501108
0.0501279
0.0500204
0.049727
0.0489152
0.0486073
0.0470592
0.0451859
0.0409151
0.0344815
0.0296196
0.022528
0.0276543
0.0343809
0.0378969
0.0379934
0.0389741
0.0398139
0.0390575
0.047338
0.0472718
0.0473417
0.0474369
0.047625
0.0473658
0.0475333
0.0471917
0.0462647
0.0434792
0.0390212
0.0305791
0.0222095
0.0287859
0.0322227
0.0333691
0.0370286
0.041103
0.0445385
0.042383
0.0432615
0.0432843
0.0435334
0.0441666
0.0448826
0.0453709
0.0454229
0.046217
0.047229
0.0470054
0.0482653
0.0382184
0.0282621
0.0325949
0.0365053
0.0423031
0.053308
0.058462
0.0585481
0.0551324
0.0373386
0.0372789
0.0374596
0.03792
0.038648
0.041632
0.0442191
0.0477116
0.0507191
0.051126
0.0560161
0.0493414
0.0368444
0.0349208
0.0342475
0.0382358
0.0375712
0.03482
0.0332433
0.0306714
0.0302289
0.0302772
0.0306459
0.0313887
0.0319587
0.0345349
0.0380244
0.0434508
0.048436
0.056591
0.062366
0.0606919
0.048944
0.0353398
0.0173893
0.00239935
-0.0112756
-0.0226573
-0.0241047
-0.0229906
0.0198043
0.0197731
0.0201804
0.0214022
0.0225454
0.0239522
0.0260546
0.0308454
0.0405375
0.0477561
0.0573794
0.0648528
0.0534392
0.0286202
0.000178596
-0.0222474
-0.0355079
-0.042555
-0.0418832
-0.0363299
0.00472353
0.00434941
0.00314431
0.00107266
-0.000418205
-0.000465154
0.000909651
0.00410819
0.0173938
0.0253673
0.0447532
0.0561173
0.038325
0.0146106
-0.00113475
-0.0129054
-0.0200295
-0.0208643
-0.0190678
-0.0165794
-1.04547
-0.191779
0.0788575
0.359335
0.545979
0.706941
0.839857
0.974883
1.12078
1.19971
-0.0531308
0.359759
0.380507
0.571665
0.700574
0.815793
0.915482
1.00377
1.03232
0.989323
0.33263
0.550406
0.589466
0.727733
0.816962
0.899491
0.96741
1.01827
1.0211
1.03446
0.567983
0.714531
0.750701
0.855867
0.91308
0.973358
1.01907
1.05198
1.06139
1.08483
0.750253
0.854334
0.883944
0.95434
0.998609
1.0413
1.07398
1.09855
1.1086
1.13998
0.896283
0.966416
0.996986
1.04118
1.07772
1.10849
1.13322
1.15408
1.16847
1.19661
1.01691
1.0684
1.09411
1.12261
1.15082
1.17495
1.1952
1.21457
1.22963
1.25602
1.12157
1.159
1.18029
1.20127
1.22248
1.24215
1.25971
1.27792
1.29285
1.3165
1.21602
1.24509
1.262
1.27754
1.29392
1.31016
1.32581
1.34281
1.35642
1.37873
1.30483
1.32543
1.34044
1.3538
1.36756
1.38145
1.39499
1.40959
1.42112
1.44077
1.39067
1.4066
1.42055
1.43248
1.44448
1.45612
1.46723
1.4789
1.48655
1.50337
1.47625
1.48911
1.50288
1.51453
1.52509
1.53482
1.54359
1.55182
1.55538
1.56665
1.56541
1.57643
1.5899
1.59913
1.60656
1.61376
1.62093
1.62744
1.62847
1.63588
1.66389
1.66861
1.67664
1.68112
1.6844
1.68886
1.69486
1.70259
1.70644
1.71632
1.77712
1.76345
1.75602
1.75042
1.74776
1.74916
1.75561
1.768
1.78279
1.81245
1.89813
1.84238
1.81152
1.79443
1.78627
1.78624
1.79498
1.81454
1.84648
1.91569
)
;

boundaryField
{
    wall-4
    {
        type            zeroGradient;
    }
    pressure-outlet-7
    {
        type            fixedValue;
        value           uniform 0;
    }
    velocity-inlet-6
    {
        type            zeroGradient;
    }
    velocity-inlet-5
    {
        type            zeroGradient;
    }
    frontAndBackPlanes
    {
        type            empty;
    }
}


// ************************************************************************* //
