/*--------------------------------*- C++ -*----------------------------------*\
  =========                 |
  \\      /  F ield         | OpenFOAM: The Open Source CFD Toolbox
   \\    /   O peration     | Website:  https://openfoam.org
    \\  /    A nd           | Version:  9
     \\/     M anipulation  |
\*---------------------------------------------------------------------------*/
FoamFile
{
    format      ascii;
    class       volVectorField;
    location    "37";
    object      U;
}
// * * * * * * * * * * * * * * * * * * * * * * * * * * * * * * * * * * * * * //

dimensions      [0 1 -1 0 0 0 0];

internalField   nonuniform List<vector> 
2200
(
(0.878826 -0.030416 0)
(1.00577 -0.0512882 0)
(1.00326 -0.0354164 0)
(1.00024 -0.0244828 0)
(0.999861 -0.0167316 0)
(1.00002 -0.0108005 0)
(0.999994 -0.00688918 0)
(1 -0.00422424 0)
(1 -0.00226277 0)
(1.00017 -0.000726729 0)
(1.00004 0.000925948 0)
(0.999972 0.00244045 0)
(0.999967 0.00439198 0)
(1.00004 0.00703245 0)
(1.00006 0.0109196 0)
(0.999819 0.0167199 0)
(1.00017 0.0244663 0)
(1.00344 0.0350761 0)
(1.0059 0.0513566 0)
(0.878957 0.030345 0)
(0.711988 -0.032763 0)
(0.996615 -0.0630215 0)
(1.03327 -0.056163 0)
(1.02483 -0.0463849 0)
(1.01583 -0.0360814 0)
(1.00969 -0.0264056 0)
(1.00597 -0.0181558 0)
(1.00377 -0.0114559 0)
(1.00253 -0.00605018 0)
(1.00199 -0.00158568 0)
(1.00197 0.00258476 0)
(1.00248 0.00702187 0)
(1.00372 0.0122919 0)
(1.0059 0.0188865 0)
(1.0095 0.0269799 0)
(1.01569 0.0367328 0)
(1.02478 0.0471183 0)
(1.03307 0.0574514 0)
(0.996633 0.0631413 0)
(0.711801 0.0329651 0)
(0.535513 -0.0238986 0)
(0.969864 -0.0569614 0)
(1.05645 -0.0547371 0)
(1.05228 -0.0488326 0)
(1.03618 -0.0404647 0)
(1.02437 -0.0322504 0)
(1.01594 -0.0240879 0)
(1.01042 -0.0162901 0)
(1.00723 -0.00906732 0)
(1.00576 -0.00244956 0)
(1.00573 0.00393402 0)
(1.00714 0.010523 0)
(1.01024 0.0176502 0)
(1.01551 0.025252 0)
(1.02403 0.0332464 0)
(1.03597 0.0412736 0)
(1.05202 0.0493608 0)
(1.05636 0.0537601 0)
(0.969239 0.0575565 0)
(0.534474 0.0239248 0)
(0.392105 -0.013674 0)
(0.911581 -0.046442 0)
(1.05741 -0.0470737 0)
(1.06945 -0.0443966 0)
(1.05489 -0.0382886 0)
(1.03926 -0.0315699 0)
(1.02738 -0.0247626 0)
(1.01893 -0.017554 0)
(1.01355 -0.0100968 0)
(1.01085 -0.00256056 0)
(1.01072 0.00489371 0)
(1.01324 0.0122214 0)
(1.01842 0.0193157 0)
(1.0268 0.02623 0)
(1.03857 0.0327898 0)
(1.05417 0.0392703 0)
(1.06861 0.0454065 0)
(1.05584 0.0480354 0)
(0.910198 0.0468649 0)
(0.390276 0.0137455 0)
(0.307495 -0.00450342 0)
(0.846646 -0.0323752 0)
(1.04942 -0.0399043 0)
(1.0795 -0.0381936 0)
(1.06825 -0.0336173 0)
(1.05172 -0.0280846 0)
(1.03825 -0.0227333 0)
(1.02808 -0.0167438 0)
(1.0211 -0.00990723 0)
(1.01737 -0.00239353 0)
(1.01716 0.00534329 0)
(1.02055 0.0126687 0)
(1.02727 0.0192634 0)
(1.0373 0.0250357 0)
(1.05061 0.0300152 0)
(1.06694 0.0353482 0)
(1.07784 0.0397076 0)
(1.04739 0.0413715 0)
(0.843494 0.0328408 0)
(0.30441 0.00468477 0)
(0.263994 9.9172e-05 0)
(0.788581 -0.0201081 0)
(1.03295 -0.031571 0)
(1.08319 -0.0322392 0)
(1.07704 -0.0290334 0)
(1.06065 -0.0242443 0)
(1.04712 -0.0197581 0)
(1.03627 -0.0146212 0)
(1.02843 -0.00858786 0)
(1.02396 -0.00156987 0)
(1.02368 0.00578318 0)
(1.02762 0.0125158 0)
(1.03512 0.0181764 0)
(1.04547 0.0228177 0)
(1.0588 0.0268747 0)
(1.07517 0.0312023 0)
(1.08094 0.0339014 0)
(1.02995 0.0330539 0)
(0.783725 0.0206356 0)
(0.259759 8.26771e-05 0)
(0.239968 0.00104377 0)
(0.73784 -0.0123664 0)
(1.0133 -0.0251474 0)
(1.08373 -0.0269757 0)
(1.08261 -0.0247183 0)
(1.06744 -0.020634 0)
(1.05405 -0.0167536 0)
(1.04327 -0.0123006 0)
(1.03516 -0.0070379 0)
(1.03029 -0.000813683 0)
(1.02985 0.00575896 0)
(1.03397 0.0116707 0)
(1.04143 0.0164735 0)
(1.05198 0.0204297 0)
(1.06512 0.0239639 0)
(1.0798 0.027467 0)
(1.08026 0.0292215 0)
(1.00825 0.0268139 0)
(0.730323 0.0129951 0)
(0.234318 -0.000870923 0)
(0.225508 0.00095727 0)
(0.694777 -0.00805921 0)
(0.992482 -0.0207911 0)
(1.0818 -0.0232475 0)
(1.08649 -0.0213892 0)
(1.07299 -0.0178539 0)
(1.05962 -0.0140885 0)
(1.0491 -0.00990907 0)
(1.0412 -0.00512123 0)
(1.03629 0.000415629 0)
(1.03571 0.00624504 0)
(1.03958 0.0114142 0)
(1.04665 0.0155152 0)
(1.05651 0.0190663 0)
(1.06947 0.0219185 0)
(1.08244 0.0248502 0)
(1.07672 0.0259554 0)
(0.985018 0.0228312 0)
(0.684431 0.00889635 0)
(0.21836 -0.000763272 0)
(0.215915 0.000625799 0)
(0.659295 -0.00567422 0)
(0.971756 -0.0176557 0)
(1.07889 -0.020296 0)
(1.08965 -0.0188219 0)
(1.07764 -0.0157458 0)
(1.06424 -0.0122122 0)
(1.0539 -0.00825034 0)
(1.04622 -0.00373808 0)
(1.04142 0.00131587 0)
(1.04062 0.00662655 0)
(1.04399 0.0111823 0)
(1.05068 0.0149953 0)
(1.06023 0.0180731 0)
(1.0733 0.021122 0)
(1.08441 0.0233878 0)
(1.07221 0.0241037 0)
(0.961432 0.0202795 0)
(0.645115 0.00676401 0)
(0.206688 -0.000395323 0)
(0.208666 0.000284323 0)
(0.630595 -0.00424114 0)
(0.952771 -0.0150855 0)
(1.07556 -0.0181286 0)
(1.09264 -0.0169147 0)
(1.08215 -0.0141427 0)
(1.06856 -0.0106623 0)
(1.05798 -0.00678323 0)
(1.05025 -0.00230867 0)
(1.04556 0.00257625 0)
(1.04455 0.00760017 0)
(1.0474 0.0118261 0)
(1.05367 0.0153145 0)
(1.06329 0.0182545 0)
(1.07609 0.0206106 0)
(1.08538 0.0224702 0)
(1.06569 0.0224974 0)
(0.937888 0.0181581 0)
(0.611799 0.00552193 0)
(0.197021 -1.69089e-05 0)
(0.202813 7.27112e-05 0)
(0.607329 -0.00310189 0)
(0.934672 -0.0125774 0)
(1.07221 -0.0157142 0)
(1.09558 -0.0147852 0)
(1.08654 -0.0122558 0)
(1.07285 -0.00898221 0)
(1.06202 -0.00520414 0)
(1.054 -0.000848447 0)
(1.04893 0.00388905 0)
(1.04747 0.00854826 0)
(1.05012 0.0126408 0)
(1.05642 0.0158067 0)
(1.06595 0.0183151 0)
(1.07887 0.020455 0)
(1.08615 0.0217376 0)
(1.05963 0.0213382 0)
(0.915568 0.0163092 0)
(0.583234 0.00470865 0)
(0.188197 0.000254853 0)
(0.19835 3.69573e-05 0)
(0.589375 -0.00210162 0)
(0.918982 -0.00981712 0)
(1.06875 -0.0130595 0)
(1.09843 -0.0123158 0)
(1.0908 -0.0099991 0)
(1.0771 -0.00681735 0)
(1.06613 -0.00318561 0)
(1.05792 0.00108013 0)
(1.05266 0.0056261 0)
(1.05106 0.00984201 0)
(1.05331 0.0134392 0)
(1.05915 0.0163565 0)
(1.06846 0.0185299 0)
(1.08085 0.0201803 0)
(1.08606 0.0209294 0)
(1.05131 0.0199286 0)
(0.892926 0.0144704 0)
(0.558454 0.00408845 0)
(0.180073 0.000398699 0)
(0.195283 2.94688e-05 0)
(0.57595 -0.00125495 0)
(0.905545 -0.00752858 0)
(1.0658 -0.0104375 0)
(1.10118 -0.00950583 0)
(1.09509 -0.00721808 0)
(1.08151 -0.00431454 0)
(1.07023 -0.000894383 0)
(1.06145 0.00305483 0)
(1.05531 0.00735953 0)
(1.05289 0.011403 0)
(1.05497 0.0146971 0)
(1.06098 0.0169792 0)
(1.07027 0.0185514 0)
(1.08217 0.019606 0)
(1.08551 0.0201194 0)
(1.04392 0.0189107 0)
(0.872354 0.0130371 0)
(0.537081 0.00367454 0)
(0.172575 0.000468292 0)
(0.193383 4.5732e-05 0)
(0.566099 -0.000634857 0)
(0.893542 -0.00536726 0)
(1.06327 -0.00801224 0)
(1.10464 -0.00691108 0)
(1.09963 -0.0043159 0)
(1.08593 -0.00104953 0)
(1.07424 0.00230196 0)
(1.06486 0.00600051 0)
(1.0582 0.00998866 0)
(1.05565 0.0136812 0)
(1.05754 0.0161971 0)
(1.06299 0.0177033 0)
(1.072 0.0187946 0)
(1.08363 0.0196061 0)
(1.08419 0.0200081 0)
(1.0336 0.018188 0)
(0.850539 0.0120149 0)
(0.51724 0.0035292 0)
(0.165274 0.000544203 0)
(0.192951 -4.80092e-05 0)
(0.559695 0.000151775 0)
(0.885801 -0.00289736 0)
(1.0619 -0.00502694 0)
(1.10799 -0.003765 0)
(1.10451 -0.00108727 0)
(1.09087 0.00221976 0)
(1.07886 0.0056463 0)
(1.06904 0.00925774 0)
(1.06157 0.0128416 0)
(1.05785 0.0159067 0)
(1.05907 0.0178624 0)
(1.0647 0.0189602 0)
(1.07373 0.0195087 0)
(1.08396 0.0203558 0)
(1.08251 0.0199033 0)
(1.02527 0.0177639 0)
(0.83181 0.0113154 0)
(0.50005 0.00343461 0)
(0.158277 0.000595189 0)
(0.193831 -3.74258e-05 0)
(0.558532 0.00120347 0)
(0.879222 -0.000621656 0)
(1.06112 -0.00206347 0)
(1.11224 -0.000637121 0)
(1.10971 0.00218085 0)
(1.09581 0.00563489 0)
(1.0835 0.00918678 0)
(1.07342 0.0128494 0)
(1.06573 0.016406 0)
(1.06164 0.0191341 0)
(1.06161 0.0206223 0)
(1.06549 0.0211626 0)
(1.07405 0.0214346 0)
(1.08338 0.0212131 0)
(1.07894 0.0202199 0)
(1.01261 0.0173517 0)
(0.810206 0.0105319 0)
(0.482742 0.00333034 0)
(0.151057 0.000618118 0)
(0.196664 0.000459606 0)
(0.559945 0.00178402 0)
(0.87715 0.00226099 0)
(1.06175 0.00153779 0)
(1.11577 0.00327182 0)
(1.1144 0.00594193 0)
(1.10044 0.00934201 0)
(1.08752 0.0129854 0)
(1.07672 0.0170186 0)
(1.06791 0.0207542 0)
(1.06224 0.0232519 0)
(1.06125 0.0242522 0)
(1.06547 0.024231 0)
(1.07372 0.0235494 0)
(1.08193 0.0224191 0)
(1.0752 0.0207484 0)
(1.00226 0.0172782 0)
(0.792719 0.0101205 0)
(0.468133 0.00333976 0)
(0.144376 0.000624893 0)
(0.201396 0.000694209 0)
(0.564484 0.00282435 0)
(0.879012 0.00476651 0)
(1.06355 0.0051241 0)
(1.12023 0.00751712 0)
(1.11951 0.0105402 0)
(1.10497 0.0140465 0)
(1.09116 0.0181129 0)
(1.07927 0.0220818 0)
(1.06923 0.0257399 0)
(1.06276 0.0278743 0)
(1.06088 0.0285218 0)
(1.06354 0.0276741 0)
(1.07119 0.0263046 0)
(1.07864 0.0245349 0)
(1.06788 0.0222066 0)
(0.986634 0.0175751 0)
(0.770599 0.0100384 0)
(0.451362 0.00354724 0)
(0.136886 0.000665512 0)
(0.209419 0.000859821 0)
(0.575507 0.00430108 0)
(0.885483 0.00790814 0)
(1.06815 0.0100939 0)
(1.12501 0.0128553 0)
(1.12493 0.0160157 0)
(1.11022 0.0202353 0)
(1.09576 0.0244692 0)
(1.0826 0.0287959 0)
(1.07079 0.0325095 0)
(1.06254 0.0341109 0)
(1.05949 0.0335251 0)
(1.06206 0.03178 0)
(1.06904 0.0294478 0)
(1.07474 0.0266746 0)
(1.06109 0.0233429 0)
(0.974168 0.018147 0)
(0.753802 0.0104865 0)
(0.437198 0.00390914 0)
(0.129736 0.00069281 0)
(0.218774 0.00107635 0)
(0.589782 0.00538111 0)
(0.896268 0.0109904 0)
(1.0752 0.0146205 0)
(1.13146 0.0181934 0)
(1.13191 0.0225682 0)
(1.11677 0.0271226 0)
(1.10165 0.032211 0)
(1.08748 0.0368084 0)
(1.07403 0.0401049 0)
(1.06356 0.0408186 0)
(1.05847 0.0397627 0)
(1.0585 0.0371314 0)
(1.06407 0.0338425 0)
(1.0686 0.0305721 0)
(1.05084 0.026039 0)
(0.955654 0.0197658 0)
(0.730072 0.0115295 0)
(0.418144 0.00448081 0)
(0.120758 0.000743211 0)
(0.232382 0.0014774 0)
(0.611576 0.007154 0)
(0.913824 0.014937 0)
(1.08606 0.0204292 0)
(1.1398 0.0251541 0)
(1.13996 0.0298201 0)
(1.12405 0.0356796 0)
(1.10761 0.0412717 0)
(1.09156 0.0464906 0)
(1.07585 0.0501641 0)
(1.06345 0.0507753 0)
(1.057 0.0482443 0)
(1.05647 0.0441425 0)
(1.06071 0.0394841 0)
(1.06223 0.0348099 0)
(1.04055 0.0291961 0)
(0.940002 0.0221943 0)
(0.711378 0.0134069 0)
(0.400764 0.00527741 0)
(0.111767 0.000807532 0)
(0.248678 0.00203757 0)
(0.637026 0.00877553 0)
(0.935806 0.0187734 0)
(1.10031 0.0263722 0)
(1.15002 0.0323931 0)
(1.14963 0.0395093 0)
(1.13199 0.0461931 0)
(1.11358 0.0528537 0)
(1.09516 0.0585052 0)
(1.07674 0.0616278 0)
(1.06108 0.0608292 0)
(1.05165 0.0569347 0)
(1.04867 0.0520269 0)
(1.0518 0.0464192 0)
(1.05291 0.0413611 0)
(1.02674 0.0346209 0)
(0.917206 0.0260379 0)
(0.681952 0.0158963 0)
(0.37495 0.00618388 0)
(0.0997406 0.000908103 0)
(0.271435 0.00286147 0)
(0.671684 0.0125719 0)
(0.964574 0.0251471 0)
(1.11917 0.0351865 0)
(1.16372 0.0433476 0)
(1.16114 0.0513919 0)
(1.14124 0.0597637 0)
(1.12002 0.0673106 0)
(1.09829 0.0732589 0)
(1.0765 0.0761539 0)
(1.0584 0.0747427 0)
(1.04813 0.0698058 0)
(1.04474 0.062856 0)
(1.04621 0.0553111 0)
(1.04286 0.0484866 0)
(1.01157 0.040163 0)
(0.895383 0.0304942 0)
(0.65625 0.0187439 0)
(0.350466 0.00722745 0)
(0.0876591 0.000973323 0)
(0.302911 0.00375461 0)
(0.717487 0.015468 0)
(1.00268 0.0326941 0)
(1.14389 0.0459349 0)
(1.18097 0.0557967 0)
(1.17557 0.0672974 0)
(1.15198 0.0770337 0)
(1.12743 0.0855117 0)
(1.10225 0.0914225 0)
(1.07681 0.0932658 0)
(1.05449 0.0895728 0)
(1.03952 0.0818584 0)
(1.03275 0.0736315 0)
(1.03285 0.0652597 0)
(1.02999 0.0576453 0)
(0.993075 0.0480138 0)
(0.865209 0.0358793 0)
(0.616414 0.0218385 0)
(0.314691 0.00802536 0)
(0.0719177 0.00098369 0)
(0.3391 0.00723843 0)
(0.774568 0.0246184 0)
(1.04894 0.045151 0)
(1.17417 0.0620092 0)
(1.2029 0.075193 0)
(1.19197 0.0884659 0)
(1.16388 0.0992928 0)
(1.135 0.107998 0)
(1.10532 0.113352 0)
(1.0754 0.114001 0)
(1.04971 0.108898 0)
(1.03412 0.100304 0)
(1.02759 0.090275 0)
(1.02587 0.0793703 0)
(1.01547 0.0688975 0)
(0.969691 0.056473 0)
(0.832347 0.0420602 0)
(0.579161 0.0252109 0)
(0.281693 0.00916645 0)
(0.0572937 0.000898686 0)
(0.420125 0.0109135 0)
(0.859717 0.0354828 0)
(1.11055 0.065422 0)
(1.21169 0.0868634 0)
(1.22814 0.101053 7.4633e-34)
(1.21013 0.117319 -3.3203e-34)
(1.17576 0.128182 0)
(1.14186 0.136154 0)
(1.10746 0.139878 0)
(1.07325 0.138206 0)
(1.04342 0.129857 0)
(1.02267 0.117775 0)
(1.01104 0.104953 0)
(1.00617 0.0928101 0)
(0.996381 0.0813796 0)
(0.942745 0.0670478 0)
(0.78993 0.0487829 0)
(0.524226 0.0289272 0)
(0.232727 0.00923849 0)
(0.0378454 0.000725321 0)
(0.49013 0.0261308 5.77657e-20)
(0.958462 0.0590838 -4.35876e-20)
(1.17645 0.098907 0)
(1.24964 0.123354 3.29327e-20)
(1.25516 0.139587 -2.66926e-20)
(1.2272 0.156217 3.50315e-34)
(1.18653 0.165305 0)
(1.1472 0.171448 1.81786e-20)
(1.10727 0.173113 -5.94088e-20)
(1.06725 0.168957 1.20577e-20)
(1.03275 0.15844 0)
(1.01069 0.144594 -3.00565e-20)
(1.00037 0.131065 -3.58348e-20)
(0.994432 0.116573 6.26085e-20)
(0.969829 0.100133 -4.94076e-20)
(0.897262 0.0801777 0)
(0.727329 0.0574174 -1.78478e-20)
(0.453229 0.0318123 0)
(0.178836 0.0105222 -9.81999e-20)
(0.0199784 0.000924961 1.15879e-19)
(0.524065 0.0538615 -7.4759e-21)
(1.01793 0.102598 1.36804e-19)
(1.22318 0.148726 -9.50076e-21)
(1.28184 0.170634 -8.55033e-20)
(1.27844 0.187864 -5.65738e-20)
(1.24187 0.202409 9.18328e-20)
(1.19538 0.209164 0)
(1.1505 0.213154 0)
(1.10501 0.212453 9.47698e-20)
(1.06011 0.205709 0)
(1.02104 0.191948 1.09262e-19)
(0.992743 0.175723 3.22483e-20)
(0.972256 0.158369 3.58304e-22)
(0.953709 0.140067 -6.8456e-20)
(0.929324 0.122909 0)
(0.853679 0.102289 0)
(0.677005 0.0731645 -2.92385e-19)
(0.409585 0.0423762 7.32275e-19)
(0.161397 0.0139222 -4.34572e-19)
(0.0139187 0.00195695 -5.12739e-19)
(0.530555 0.0764908 -8.86422e-20)
(1.05308 0.159127 3.25855e-20)
(1.25791 0.209781 1.65082e-20)
(1.30725 0.229786 1.50074e-19)
(1.29636 0.244727 1.42118e-20)
(1.25316 0.254693 -2.40519e-19)
(1.20169 0.257813 8.10659e-20)
(1.15147 0.25889 0)
(1.10052 0.255455 -2.00943e-19)
(1.04934 0.245704 1.75989e-19)
(1.00394 0.229757 -2.9481e-19)
(0.971111 0.210865 1.37836e-19)
(0.949506 0.191606 -8.86002e-20)
(0.934364 0.174743 1.99838e-19)
(0.898741 0.154657 0)
(0.815817 0.127963 -7.29594e-20)
(0.645815 0.0937767 0)
(0.39902 0.0532109 4.04185e-19)
(0.162269 0.0219016 -9.5982e-19)
(0.0184414 0.00204056 6.01222e-19)
(0.522364 0.108229 2.7859e-19)
(1.06859 0.215532 -1.19337e-19)
(1.27739 0.274599 -2.41565e-20)
(1.32359 0.293828 0)
(1.30776 0.306306 -1.09475e-19)
(1.25999 0.311166 1.34402e-19)
(1.20427 0.309853 -8.67274e-20)
(1.14932 0.307176 0)
(1.09339 0.299671 1.42901e-19)
(1.03772 0.285885 -1.23866e-19)
(0.988948 0.266252 2.55492e-19)
(0.950875 0.244175 0)
(0.922235 0.224461 -1.88378e-19)
(0.894351 0.203262 1.06361e-19)
(0.862766 0.182025 2.67365e-19)
(0.787635 0.157257 -2.35204e-19)
(0.631253 0.119183 3.76373e-19)
(0.400684 0.07281 -8.33025e-19)
(0.177418 0.0322572 5.26197e-19)
(0.0284071 0.00513882 -6.5843e-19)
(0.509843 0.132438 -1.17132e-19)
(1.07505 0.270182 8.48311e-20)
(1.28734 0.340791 -7.94313e-20)
(1.33184 0.358995 1.48457e-19)
(1.3125 0.369003 -1.34329e-19)
(1.26182 0.369145 4.34942e-20)
(1.20302 0.363714 3.65434e-21)
(1.14418 0.357106 -1.65791e-19)
(1.08421 0.345878 -1.50248e-19)
(1.02377 0.328749 -2.6613e-19)
(0.96848 0.305055 -5.49191e-19)
(0.92624 0.28054 -1.68076e-19)
(0.896907 0.257968 2.42572e-21)
(0.875211 0.238312 -3.62695e-19)
(0.835315 0.216695 -6.32072e-21)
(0.758248 0.185912 3.41726e-19)
(0.61178 0.144077 -1.03287e-19)
(0.400305 0.0921344 -6.0141e-20)
(0.190377 0.0443063 0)
(0.0375264 0.00892728 1.39703e-18)
(0.491665 0.152897 0)
(1.06735 0.319393 -1.51731e-20)
(1.28858 0.403908 -1.84731e-20)
(1.33353 0.42288 -1.26178e-20)
(1.31174 0.431405 1.33471e-19)
(1.25919 0.427281 -9.96598e-20)
(1.19818 0.417862 9.53734e-20)
(1.13642 0.407237 2.71329e-19)
(1.07316 0.391754 -8.32626e-20)
(1.00846 0.369291 1.32827e-19)
(0.949791 0.342329 2.9512e-19)
(0.905405 0.315494 3.65741e-19)
(0.871022 0.291763 -2.1924e-19)
(0.836828 0.267034 3.91899e-19)
(0.80457 0.244883 -3.09964e-19)
(0.739 0.217743 0)
(0.605653 0.17183 -7.82862e-19)
(0.407103 0.114612 1.05383e-18)
(0.203671 0.0581763 7.86545e-20)
(0.0456835 0.0133558 -1.47187e-18)
(0.477445 0.173366 -5.1434e-21)
(1.05896 0.367834 7.61759e-20)
(1.28499 0.464754 1.366e-19)
(1.33018 0.484379 -1.53277e-19)
(1.3065 0.491651 1.06027e-19)
(1.25272 0.483969 -9.85899e-20)
(1.19002 0.471239 1.91322e-19)
(1.12586 0.457039 -8.34648e-20)
(1.05917 0.437719 -3.37676e-19)
(0.990918 0.412769 2.04048e-22)
(0.929164 0.3826 -3.19717e-19)
(0.880713 0.35069 -3.92313e-19)
(0.845086 0.324006 2.41004e-19)
(0.821169 0.301831 -1.40671e-19)
(0.782708 0.279 3.35611e-19)
(0.714391 0.244338 0)
(0.589368 0.197663 -4.84042e-19)
(0.406701 0.135212 7.14835e-19)
(0.211788 0.0713683 1.35598e-18)
(0.0511439 0.0175163 -1.59538e-18)
(0.462837 0.190786 6.93819e-20)
(1.04544 0.412075 -4.25924e-20)
(1.27741 0.522168 -1.09121e-19)
(1.32318 0.543268 1.60738e-19)
(1.29795 0.549753 1.16255e-20)
(1.24332 0.538917 -1.96495e-19)
(1.17959 0.523103 -1.09244e-19)
(1.11379 0.505515 -1.03631e-19)
(1.04557 0.482438 -1.88839e-19)
(0.975682 0.452469 3.03859e-19)
(0.910601 0.415112 3.24944e-19)
(0.860278 0.383323 6.23055e-19)
(0.823757 0.35484 0)
(0.78659 0.328816 5.96867e-21)
(0.755299 0.303167 -9.1813e-19)
(0.697651 0.275304 2.13609e-19)
(0.581793 0.22364 1.0425e-18)
(0.406928 0.156781 -3.07353e-19)
(0.21615 0.0836732 6.42216e-19)
(0.0543927 0.0211335 -5.36157e-20)
(0.453743 0.209495 5.90534e-21)
(1.03396 0.455247 -1.1942e-20)
(1.26766 0.576868 -6.5037e-20)
(1.31365 0.59914 2.11973e-19)
(1.28702 0.604816 -2.49792e-19)
(1.23175 0.59129 1.98249e-19)
(1.16706 0.572927 1.13539e-19)
(1.0997 0.552316 3.12787e-19)
(1.02861 0.525994 3.82637e-19)
(0.953405 0.492735 -3.47112e-19)
(0.885632 0.455533 0)
(0.834527 0.417949 -2.3375e-19)
(0.79698 0.386712 2.68367e-19)
(0.772956 0.360635 3.35886e-19)
(0.734446 0.335194 -1.94227e-19)
(0.672685 0.298212 -4.73321e-19)
(0.561947 0.247442 -1.41445e-19)
(0.397674 0.173766 -1.41235e-21)
(0.212105 0.0936513 0)
(0.0543366 0.0231188 0)
(0.445452 0.225145 -1.55274e-20)
(1.02142 0.495391 0)
(1.25634 0.628441 -5.37408e-20)
(1.30216 0.652513 9.05898e-21)
(1.27435 0.657473 2.76656e-19)
(1.21861 0.641385 -7.16756e-20)
(1.15327 0.620685 1.15791e-19)
(1.08473 0.597456 -2.13185e-19)
(1.01248 0.568226 2.91114e-19)
(0.938303 0.53152 -1.10986e-19)
(0.870532 0.488273 1.85354e-19)
(0.81585 0.447694 7.41112e-19)
(0.774742 0.415623 1.37941e-20)
(0.737302 0.384777 -3.50669e-19)
(0.707775 0.356562 6.46668e-19)
(0.655286 0.326054 4.36432e-21)
(0.550743 0.268156 1.51327e-19)
(0.389413 0.190031 -7.22565e-19)
(0.20525 0.100416 7.39293e-19)
(0.0519468 0.0246378 -8.76086e-19)
(0.439266 0.244207 3.49116e-23)
(1.00992 0.533858 0)
(1.24402 0.676913 0)
(1.28944 0.702632 -2.45673e-20)
(1.26064 0.706882 -8.79396e-20)
(1.20452 0.688726 9.73337e-20)
(1.13867 0.66608 -2.21836e-19)
(1.06937 0.640441 0)
(0.995555 0.608442 -4.2767e-19)
(0.916939 0.568961 5.01143e-19)
(0.841942 0.523172 5.24263e-19)
(0.787076 0.479101 -2.7148e-19)
(0.750011 0.441097 -3.26354e-19)
(0.723471 0.413312 7.64147e-19)
(0.687876 0.384972 -2.29626e-19)
(0.630642 0.342641 -2.7418e-19)
(0.529215 0.286303 -1.64313e-19)
(0.375742 0.201328 -7.78525e-19)
(0.19633 0.104666 1.126e-19)
(0.0481952 0.0252346 9.45117e-19)
(0.435774 0.262611 -1.47015e-20)
(0.999235 0.570314 -1.16309e-20)
(1.23112 0.722733 2.34224e-20)
(1.27585 0.750347 -1.14857e-22)
(1.2462 0.753911 -7.21742e-20)
(1.18984 0.73362 1.71517e-19)
(1.12366 0.709099 0)
(1.05347 0.681423 1.27163e-19)
(0.97797 0.647271 -1.0027e-19)
(0.897938 0.604934 8.3601e-19)
(0.825471 0.554323 -1.19795e-19)
(0.769481 0.507647 1.35102e-19)
(0.725215 0.470101 0)
(0.689348 0.43412 -4.13182e-19)
(0.660284 0.400883 4.98905e-19)
(0.612166 0.366626 0)
(0.514479 0.300362 -3.54748e-19)
(0.360196 0.211161 1.04244e-18)
(0.185146 0.106803 1.22779e-19)
(0.0434753 0.0249247 -1.16293e-18)
(0.433814 0.279422 -4.65591e-20)
(0.989332 0.604835 6.0405e-20)
(1.21801 0.765525 0)
(1.26196 0.794778 -3.61528e-20)
(1.23159 0.797744 0)
(1.175 0.775834 -2.0847e-19)
(1.10838 0.749853 0)
(1.03732 0.720338 0)
(0.960486 0.684062 -1.28936e-19)
(0.878481 0.639405 -7.93519e-19)
(0.801131 0.588071 -9.66835e-19)
(0.73909 0.537914 1.56694e-19)
(0.699581 0.492627 5.62725e-19)
(0.6739 0.458143 4.53806e-19)
(0.639744 0.425621 -1.6008e-18)
(0.586211 0.376596 -6.43184e-19)
(0.489864 0.313235 3.7628e-19)
(0.342027 0.215754 0)
(0.173074 0.107098 1.05677e-18)
(0.0385549 0.0236772 -1.25272e-18)
(0.432526 0.295097 6.26297e-20)
(0.979953 0.637548 -7.61232e-20)
(1.20503 0.80586 0)
(1.24793 0.836975 -1.06673e-20)
(1.21686 0.839441 2.14353e-20)
(1.16001 0.815816 0)
(1.09308 0.788283 6.76231e-20)
(1.02142 0.757205 8.5645e-20)
(0.943635 0.719426 -2.45995e-19)
(0.85969 0.673032 1.06531e-19)
(0.779224 0.617048 0)
(0.718922 0.562116 6.49833e-19)
(0.675064 0.517481 4.67652e-21)
(0.637686 0.475412 2.447e-19)
(0.611018 0.434872 2.90326e-19)
(0.565756 0.395923 0)
(0.472913 0.320109 -6.17186e-19)
(0.324014 0.219491 1.2116e-18)
(0.160419 0.105641 -1.28259e-18)
(0.0337715 0.022035 2.69815e-18)
(0.431486 0.310181 0)
(0.971153 0.668737 0)
(1.19235 0.843428 -3.15745e-20)
(1.23408 0.876045 0)
(1.20234 0.878084 0)
(1.14532 0.853261 -1.89793e-19)
(1.07817 0.824667 6.96441e-20)
(1.00591 0.792102 1.74554e-20)
(0.926679 0.752887 -5.73679e-20)
(0.840457 0.704679 0)
(0.75845 0.647996 -1.46037e-19)
(0.69335 0.592123 -5.29433e-19)
(0.646669 0.538785 -6.35083e-19)
(0.62129 0.495397 -2.54507e-19)
(0.58944 0.456393 3.14906e-19)
(0.539121 0.398432 -7.42777e-19)
(0.446527 0.327219 1.32817e-18)
(0.303797 0.218063 3.82793e-21)
(0.147863 0.102704 -1.23166e-18)
(0.0295328 0.0201694 -1.82097e-19)
(0.43054 0.324918 0)
(0.962888 0.698489 -6.60611e-20)
(1.18002 0.878916 4.41793e-20)
(1.22042 0.913179 0)
(1.18809 0.914849 0)
(1.13091 0.888699 3.88784e-19)
(1.06357 0.858862 0)
(0.990781 0.825155 0)
(0.910319 0.784658 -5.40452e-19)
(0.821828 0.7354 1.44015e-19)
(0.735099 0.676227 -1.30106e-18)
(0.667195 0.613945 0)
(0.621929 0.561819 -6.86919e-19)
(0.582655 0.511164 1.09586e-20)
(0.556906 0.459161 -1.01044e-18)
(0.516076 0.411771 3.9987e-19)
(0.429275 0.32527 2.36662e-21)
(0.287853 0.216022 -1.40054e-18)
(0.137349 0.098826 6.64165e-19)
(0.0257109 0.018352 1.94907e-19)
(0.429675 0.339281 0)
(0.955221 0.726842 -1.06769e-19)
(1.16814 0.912032 4.65092e-20)
(1.2072 0.947464 1.7631e-20)
(1.1743 0.948752 -3.56454e-20)
(1.11702 0.921738 4.2697e-20)
(1.04955 0.89118 -4.87365e-20)
(0.976143 0.856339 5.44896e-19)
(0.894509 0.815005 5.78131e-19)
(0.804806 0.76502 1.10732e-18)
(0.718239 0.704965 1.08118e-18)
(0.647253 0.643957 1.88554e-19)
(0.59176 0.583555 9.87978e-19)
(0.563053 0.528029 6.0741e-19)
(0.5324 0.477693 7.25317e-19)
(0.487499 0.404224 -4.38125e-19)
(0.402013 0.323122 -5.12495e-19)
(0.26989 0.204664 5.99983e-19)
(0.128703 0.0946457 -3.55719e-19)
(0.0262066 0.0218882 6.30913e-19)
(0.428869 0.353172 1.59116e-19)
(0.947945 0.753668 1.65406e-19)
(1.1566 0.943289 2.92313e-20)
(1.19431 0.980059 1.62944e-20)
(1.16092 0.981023 8.2171e-20)
(1.10356 0.952991 -1.0921e-19)
(1.03597 0.9215 4.83703e-20)
(0.962229 0.885862 -2.08522e-20)
(0.879793 0.843584 -6.73406e-19)
(0.787921 0.792716 -1.19986e-18)
(0.694535 0.731335 7.55667e-20)
(0.616541 0.6662 0)
(0.566353 0.605501 0)
(0.520617 0.544709 -3.16665e-19)
(0.493287 0.473921 -1.1838e-18)
(0.458273 0.409543 9.43822e-19)
(0.387587 0.300997 5.61478e-19)
(0.27336 0.186582 0)
(0.139374 0.0713626 1.13455e-18)
(0.0199412 -0.00226556 -6.7521e-19)
(0.428125 0.36643 -8.39679e-20)
(0.941137 0.779108 7.52788e-20)
(1.14556 0.972478 -7.5969e-20)
(1.18196 1.01007 -4.38252e-20)
(1.14811 1.01063 1.33612e-20)
(1.09072 0.98197 -3.33018e-20)
(1.02316 0.950058 0)
(0.94905 0.913693 -6.86097e-19)
(0.865698 0.87105 8.3141e-20)
(0.77229 0.820211 0)
(0.67981 0.759294 0)
(0.602487 0.69554 1.18839e-19)
(0.534789 0.629072 1.58355e-19)
(0.497561 0.560199 -3.41281e-19)
(0.462575 0.492946 8.49861e-19)
(0.419697 0.389965 -1.02744e-18)
(0.350335 0.282632 -1.2007e-18)
(0.267784 0.162451 1.06205e-18)
(0.184784 0.104034 -4.05207e-19)
(0.114219 0.0830408 2.36227e-19)
(0.427261 0.378898 1.11609e-19)
(0.934475 0.802925 0)
(1.1348 0.999891 0)
(1.16997 1.03856 -8.22109e-21)
(1.13576 1.03882 6.65554e-21)
(1.0784 1.00937 -2.09904e-20)
(1.01085 0.976789 2.06115e-19)
(0.936567 0.939915 7.11904e-19)
(0.852483 0.89666 1.22576e-18)
(0.757515 0.845046 -8.94134e-20)
(0.659384 0.783604 1.83064e-19)
(0.570404 0.717929 -1.06552e-18)
(0.509862 0.652298 -1.05221e-18)
(0.450885 0.581899 -1.8267e-19)
(0.409761 0.486218 0)
(0.374116 0.396704 -9.80215e-21)
(0.318888 0.22065 6.57736e-19)
(0.278495 0.0619086 -1.11394e-18)
(0.238631 -0.069517 8.4812e-19)
(0.0810809 -0.0957015 7.06717e-19)
(0.426354 0.390875 -2.4887e-19)
(0.928159 0.825566 -1.14614e-19)
(1.12449 1.02566 6.82544e-21)
(1.15847 1.06495 3.6733e-20)
(1.12385 1.06485 0)
(1.06651 1.035 -1.61136e-19)
(0.999071 1.00231 -2.89328e-19)
(0.924542 0.965146 4.0964e-21)
(0.839831 0.922022 -6.43926e-19)
(0.743293 0.871283 -8.7746e-20)
(0.644245 0.811842 8.14999e-20)
(0.559256 0.748486 9.35424e-19)
(0.477553 0.680189 1.02729e-18)
(0.424279 0.599622 1.77357e-19)
(0.373387 0.517387 9.04183e-19)
(0.303059 0.372568 0)
(0.18892 0.20798 0)
(0.0178981 0.230671 7.69048e-19)
(-0.075402 0.628996 -3.18016e-20)
(0.00449635 1.52669 -9.35482e-19)
(0.425264 0.402205 1.3863e-19)
(0.921924 0.846803 3.09569e-19)
(1.11437 1.04999 -4.01168e-19)
(1.14719 1.09038 1.76109e-19)
(1.11223 1.09021 8.08035e-21)
(1.05491 1.05993 -1.29721e-19)
(0.987467 1.02698 0)
(0.912776 0.989802 -5.99176e-19)
(0.827253 0.946703 0)
(0.729296 0.895758 1.25277e-18)
(0.625882 0.835872 -9.7316e-20)
(0.52705 0.773005 1.09117e-19)
(0.453677 0.709036 1.17019e-18)
(0.371245 0.638503 -3.82614e-19)
(0.281872 0.522154 -4.60708e-19)
(0.205694 0.431539 0)
(0.0968644 0.535522 0)
(0.0294299 1.30136 0)
(0.0742519 2.45067 -4.37676e-19)
(0.102997 2.90467 -2.68046e-19)
(0.424029 0.41297 0)
(0.916053 0.867006 0)
(1.10475 1.073 1.48246e-19)
(1.13645 1.114 -1.39902e-19)
(1.10109 1.11367 3.39625e-20)
(1.04376 1.08332 1.28938e-19)
(0.976417 1.05068 3.64395e-20)
(0.901554 1.01379 -2.83714e-20)
(0.815686 0.971495 8.9704e-20)
(0.716325 0.922516 -1.43797e-18)
(0.610877 0.866506 1.77985e-19)
(0.517847 0.808461 9.30505e-19)
(0.419848 0.746013 -1.1671e-18)
(0.343939 0.660596 -1.26867e-18)
(0.270342 0.585874 4.27335e-19)
(0.199283 0.711792 0)
(0.130415 1.53116 5.97321e-19)
(0.129917 2.68464 6.65266e-19)
(0.137633 3.08495 -7.44263e-19)
(0.128725 3.22078 8.06488e-19)
(0.422601 0.42327 0)
(0.910198 0.88572 2.87352e-19)
(1.09528 1.09452 -3.65657e-20)
(1.12598 1.13668 2.15924e-19)
(1.0903 1.13653 -3.56492e-20)
(1.03301 1.10606 0)
(0.965659 1.07347 0)
(0.890656 1.03694 0)
(0.803997 0.995273 5.21694e-19)
(0.703329 0.946678 6.78722e-20)
(0.595153 0.890342 0)
(0.487336 0.833437 -9.26898e-19)
(0.405308 0.777998 0)
(0.294987 0.713928 9.09077e-19)
(0.21073 0.785885 -6.10016e-19)
(0.162225 1.45578 -4.91223e-19)
(0.16476 2.67329 -1.16083e-18)
(0.185518 3.12647 -6.15302e-19)
(0.176122 3.26891 -8.50961e-19)
(0.161558 3.30944 6.65577e-19)
(0.421156 0.432758 -1.02259e-19)
(0.904751 0.90358 1.54183e-20)
(1.08638 1.11501 -4.16421e-20)
(1.1161 1.15778 -1.62677e-19)
(1.08002 1.15764 0)
(1.02272 1.12736 0)
(0.955463 1.09539 0)
(0.880369 1.05952 4.14957e-20)
(0.79366 1.01914 -6.57975e-19)
(0.692235 0.973448 0)
(0.582146 0.92309 0)
(0.483855 0.873631 0)
(0.369348 0.819793 0)
(0.306701 0.803864 6.64032e-19)
(0.276362 1.17786 1.62989e-18)
(0.259182 2.36559 4.8436e-19)
(0.270441 3.0827 9.86889e-19)
(0.264435 3.28636 -7.62222e-19)
(0.214857 3.35291 2.83926e-19)
(0.181652 3.36549 0)
(0.41954 0.441888 1.06195e-19)
(0.899049 0.920379 -6.482e-19)
(1.07734 1.13454 -1.69467e-19)
(1.10622 1.17859 -3.53174e-20)
(1.06988 1.17885 6.93061e-21)
(1.01266 1.14868 4.83934e-20)
(0.945418 1.11694 -1.29283e-20)
(0.870242 1.08167 -4.98698e-19)
(0.782878 1.0423 0)
(0.680551 0.997593 -8.34716e-20)
(0.569645 0.947011 7.5933e-20)
(0.455466 0.897125 0)
(0.372683 0.860235 0)
(0.321634 0.985534 -8.30145e-19)
(0.282545 1.85008 1.05508e-19)
(0.277879 2.93868 -3.67836e-19)
(0.29824 3.29105 7.72228e-19)
(0.271417 3.39069 5.72217e-19)
(0.204698 3.41552 -7.96864e-19)
(0.179447 3.4246 3.97021e-19)
(0.41763 0.451164 2.11802e-19)
(0.893243 0.938019 6.38094e-19)
(1.06813 1.15497 2.012e-19)
(1.09615 1.19954 0)
(1.05948 1.19979 0)
(1.00233 1.16982 -3.55586e-20)
(0.935288 1.13882 1.4341e-19)
(0.860264 1.10435 4.46524e-19)
(0.773299 1.06642 2.74798e-20)
(0.670979 1.02511 1.09156e-18)
(0.557839 0.981443 -1.25e-18)
(0.452413 0.939469 0)
(0.372385 0.943629 0)
(0.340934 1.34654 -5.69748e-19)
(0.342988 2.47274 -6.83057e-19)
(0.385719 3.19909 0)
(0.410673 3.37499 -8.01947e-19)
(0.340824 3.43852 3.552e-20)
(0.269445 3.48281 4.1848e-19)
(0.246162 3.50833 -1.49097e-19)
(0.415225 0.460853 -4.05196e-19)
(0.886364 0.955886 -3.07886e-19)
(1.05774 1.17582 0)
(1.08507 1.22171 0)
(1.04829 1.22236 0)
(0.991396 1.19238 0)
(0.924587 1.1614 -1.61689e-19)
(0.84975 1.12743 4.14834e-19)
(0.76251 1.09052 0)
(0.659862 1.05027 -9.95022e-19)
(0.549321 1.00679 2.24703e-18)
(0.439848 0.971697 9.07996e-20)
(0.385307 1.05578 1.18282e-19)
(0.391248 1.7411 9.33164e-19)
(0.410101 2.89338 -5.06073e-19)
(0.447224 3.32441 0)
(0.429552 3.45056 2.2753e-19)
(0.343015 3.53839 9.40831e-20)
(0.264425 3.60377 1.38698e-19)
(0.189098 3.58337 1.36117e-20)
(0.412385 0.470866 1.93894e-19)
(0.879131 0.975509 -3.20561e-19)
(1.04686 1.19853 0)
(1.0734 1.24457 -4.95679e-20)
(1.03639 1.24494 1.60161e-19)
(0.979734 1.2149 0)
(0.913398 1.18456 0)
(0.839136 1.15122 -7.29283e-19)
(0.752885 1.11564 -6.62405e-20)
(0.651376 1.07885 9.88376e-19)
(0.535459 1.04218 -1.06995e-18)
(0.44852 1.02711 6.15675e-19)
(0.411781 1.24129 0)
(0.433482 2.17673 -4.965e-19)
(0.475124 3.14493 3.22838e-19)
(0.536525 3.42977 2.09921e-19)
(0.529806 3.52782 0)
(0.465197 3.61278 -2.81144e-20)
(0.392948 3.65545 -3.9749e-19)
(0.311122 3.6264 -9.04337e-20)
(0.408744 0.481219 -3.9232e-19)
(0.870368 0.995069 4.60555e-19)
(1.03445 1.22132 3.08564e-19)
(1.06049 1.26864 -7.51224e-20)
(1.02353 1.26931 -2.45906e-19)