/*--------------------------------*- C++ -*----------------------------------*\
  =========                 |
  \\      /  F ield         | OpenFOAM: The Open Source CFD Toolbox
   \\    /   O peration     | Website:  https://openfoam.org
    \\  /    A nd           | Version:  9
     \\/     M anipulation  |
\*---------------------------------------------------------------------------*/
FoamFile
{
    format      ascii;
    class       volScalarField;
    location    "43";
    object      p;
}
// * * * * * * * * * * * * * * * * * * * * * * * * * * * * * * * * * * * * * //

dimensions      [0 2 -2 0 0 0 0];

internalField   nonuniform List<scalar> 
2200
(
0.783883
0.762382
0.746472
0.730798
0.71618
0.70365
0.693278
0.685159
0.679439
0.676445
0.676879
0.680655
0.686948
0.695479
0.706138
0.718886
0.733657
0.749542
0.765563
0.787067
0.71631
0.71305
0.710123
0.706003
0.700538
0.694059
0.687432
0.681458
0.676925
0.674482
0.674923
0.678182
0.683319
0.689742
0.696695
0.703422
0.709063
0.713179
0.716057
0.719402
0.676406
0.676624
0.678681
0.680019
0.680398
0.679532
0.677539
0.67484
0.672264
0.670731
0.671227
0.673622
0.676867
0.680064
0.682388
0.683398
0.683122
0.682072
0.680363
0.68012
0.653962
0.655413
0.657999
0.660438
0.662868
0.664871
0.666004
0.666208
0.665804
0.665474
0.666044
0.667354
0.668504
0.668857
0.668143
0.666457
0.664286
0.662075
0.659479
0.658066
0.639626
0.641598
0.64441
0.647244
0.650097
0.652915
0.655353
0.657188
0.658375
0.659129
0.659788
0.660186
0.659882
0.65872
0.656816
0.654405
0.651827
0.649095
0.646309
0.64438
0.632314
0.63391
0.636112
0.638637
0.641292
0.64394
0.646504
0.648894
0.650861
0.652299
0.653079
0.653024
0.652136
0.650561
0.648619
0.646434
0.644082
0.641725
0.639618
0.638042
0.628977
0.629998
0.631263
0.633115
0.635238
0.637374
0.639526
0.64176
0.643912
0.64567
0.646601
0.646517
0.645664
0.644402
0.642966
0.641381
0.639656
0.638063
0.636937
0.635919
0.62641
0.627082
0.627706
0.628992
0.630587
0.632248
0.633961
0.635826
0.637811
0.63967
0.640794
0.640987
0.640567
0.639876
0.639026
0.638021
0.63692
0.635964
0.635502
0.634827
0.623247
0.623695
0.624089
0.625074
0.626319
0.627676
0.629133
0.630741
0.632504
0.634348
0.635723
0.636373
0.636515
0.63635
0.635975
0.635423
0.634778
0.634197
0.633985
0.633524
0.619281
0.619573
0.619932
0.620808
0.621924
0.623185
0.624581
0.626115
0.627801
0.629657
0.631339
0.632487
0.633126
0.633382
0.63334
0.633093
0.632715
0.632327
0.63217
0.631853
0.614767
0.61497
0.615337
0.616158
0.61724
0.618534
0.620029
0.621712
0.623575
0.625649
0.627721
0.629341
0.630346
0.630861
0.631021
0.630937
0.630717
0.630453
0.630311
0.630085
0.609766
0.609913
0.610289
0.611103
0.612245
0.613668
0.615367
0.61733
0.619556
0.622073
0.624609
0.626612
0.6279
0.628609
0.628946
0.629025
0.628936
0.62879
0.628677
0.628499
0.604327
0.604428
0.604804
0.605637
0.606885
0.608497
0.610447
0.612734
0.615405
0.618468
0.621579
0.624037
0.62566
0.626641
0.627171
0.627422
0.627506
0.627492
0.627416
0.627269
0.598585
0.598642
0.599024
0.599876
0.601205
0.60296
0.605149
0.607815
0.611008
0.614739
0.618562
0.621623
0.623699
0.625046
0.625882
0.626361
0.626634
0.626734
0.626701
0.626576
0.592447
0.592481
0.59289
0.593774
0.595212
0.59714
0.599583
0.60265
0.606488
0.611059
0.615732
0.619488
0.622101
0.623916
0.625165
0.625977
0.626486
0.626723
0.626742
0.626623
0.585729
0.585681
0.586102
0.58708
0.588742
0.59091
0.593665
0.597182
0.601641
0.607102
0.612808
0.617521
0.620951
0.623421
0.625196
0.626383
0.627124
0.627495
0.627566
0.627445
0.578189
0.578171
0.578585
0.57967
0.581556
0.584048
0.58724
0.591298
0.596472
0.602949
0.609955
0.615948
0.620426
0.62367
0.625996
0.627578
0.62857
0.629094
0.62922
0.6291
0.569742
0.569752
0.570168
0.571348
0.573557
0.576479
0.580285
0.585178
0.591425
0.59925
0.607841
0.615277
0.620821
0.624861
0.627768
0.62976
0.631058
0.631733
0.631906
0.631785
0.559991
0.559949
0.560497
0.561963
0.564514
0.568011
0.572707
0.578828
0.586632
0.596306
0.606715
0.615553
0.622187
0.62702
0.630533
0.633059
0.634691
0.635528
0.635761
0.635635
0.54838
0.548286
0.548938
0.55079
0.553951
0.558271
0.564055
0.571623
0.581331
0.593272
0.605878
0.616458
0.624333
0.63028
0.634654
0.637708
0.639697
0.64071
0.641
0.640858
0.534728
0.534593
0.53532
0.537479
0.541277
0.546575
0.553701
0.562981
0.574836
0.589374
0.604701
0.617562
0.627287
0.63452
0.639824
0.643649
0.646129
0.647364
0.64772
0.647547
0.517969
0.51787
0.518828
0.521422
0.526056
0.532652
0.541557
0.553115
0.567723
0.585403
0.603903
0.619395
0.631077
0.639866
0.64638
0.651076
0.654112
0.655585
0.655996
0.655778
0.497001
0.496836
0.498112
0.501536
0.507577
0.516202
0.527757
0.542564
0.560807
0.582297
0.604279
0.622552
0.636304
0.646621
0.654341
0.660009
0.663642
0.665339
0.665788
0.665509
0.469566
0.469573
0.471636
0.476488
0.48485
0.496647
0.51205
0.531154
0.553916
0.579948
0.605903
0.627138
0.642995
0.654946
0.663977
0.670495
0.674626
0.676502
0.67696
0.67663
0.432807
0.433061
0.436599
0.444353
0.456669
0.473369
0.49401
0.518478
0.546568
0.577778
0.608151
0.632646
0.650894
0.664656
0.674988
0.682468
0.687084
0.689079
0.689503
0.689098
0.383445
0.383873
0.390877
0.403839
0.422516
0.446252
0.4738
0.504844
0.539128
0.5761
0.611242
0.639166
0.659857
0.675505
0.687351
0.695824
0.700806
0.702754
0.702997
0.702599
0.317708
0.320562
0.335762
0.357052
0.384595
0.41706
0.452619
0.491094
0.532306
0.575674
0.616202
0.648186
0.67207
0.690243
0.703978
0.713927
0.719565
0.721522
0.721583
0.721395
0.242671
0.252298
0.277645
0.308745
0.346361
0.387855
0.431602
0.477874
0.526489
0.576883
0.623528
0.660395
0.68787
0.708943
0.725183
0.736752
0.743068
0.744813
0.744774
0.744834
0.17557
0.190493
0.222239
0.262174
0.309315
0.359707
0.411474
0.465498
0.52143
0.578578
0.630932
0.672285
0.703312
0.727049
0.745094
0.757993
0.765021
0.767332
0.767727
0.767745
0.12457
0.137952
0.175001
0.220983
0.275395
0.3332
0.392344
0.453588
0.516376
0.580031
0.63819
0.683667
0.71767
0.743649
0.763384
0.777821
0.785183
0.787864
0.788212
0.788283
0.0823762
0.0949995
0.135746
0.185629
0.245447
0.309121
0.374651
0.44241
0.511611
0.581601
0.644778
0.694042
0.730671
0.758471
0.779437
0.794537
0.802568
0.805612
0.806041
0.806151
0.0459842
0.0588165
0.102236
0.15504
0.219169
0.287574
0.358516
0.431906
0.506667
0.581989
0.649998
0.702979
0.741806
0.77104
0.793068
0.808549
0.81698
0.820404
0.82095
0.821061
0.0142126
0.0272246
0.0726449
0.127999
0.195747
0.26811
0.343602
0.421781
0.501578
0.582212
0.655251
0.710843
0.751409
0.781873
0.804189
0.820002
0.828959
0.832568
0.833282
0.833364
-0.0143556
-0.00128967
0.0458154
0.103578
0.174472
0.250179
0.329579
0.412015
0.496502
0.581957
0.658436
0.716978
0.759402
0.790539
0.813487
0.829564
0.838812
0.842695
0.843506
0.843575
-0.0404106
-0.027373
0.0209628
0.0810502
0.154659
0.233311
0.316178
0.402388
0.490861
0.580384
0.660949
0.72258
0.766039
0.798196
0.821601
0.837791
0.847452
0.851338
0.852311
0.852286
-0.064879
-0.0515559
-0.00231296
0.059918
0.135906
0.21716
0.303019
0.392462
0.484579
0.57838
0.663175
0.726844
0.77225
0.805142
0.829007
0.845384
0.85478
0.858891
0.85971
0.859519
-0.0879188
-0.0743224
-0.0243652
0.0397639
0.11783
0.201413
0.289913
0.382298
0.47793
0.575522
0.663732
0.730749
0.778095
0.811691
0.835797
0.852086
0.861461
0.8654
0.866319
0.866183
-0.109618
-0.096022
-0.0453632
0.0203711
0.100222
0.185913
0.276835
0.371933
0.470656
0.571761
0.664161
0.734664
0.78357
0.818123
0.842294
0.858501
0.867673
0.871578
0.872388
0.87231
-0.130372
-0.116696
-0.0654677
0.00160295
0.0829735
0.170562
0.263665
0.361167
0.462657
0.567324
0.66371
0.737229
0.788755
0.824587
0.848935
0.864889
0.873869
0.877494
0.87827
0.878164
-0.150665
-0.136479
-0.0848282
-0.0166372
0.0660218
0.155276
0.250311
0.349983
0.454099
0.562112
0.662445
0.739632
0.793988
0.831193
0.856052
0.871654
0.879971
0.883313
0.883864
0.883762
-0.170609
-0.155628
-0.1036
-0.0344175
0.0493355
0.14003
0.236781
0.338478
0.445103
0.556205
0.660209
0.741307
0.798819
0.838392
0.863928
0.878909
0.886387
0.888831
0.889204
0.88906
-0.190106
-0.17434
-0.121895
-0.0517793
0.0329253
0.12487
0.223154
0.326724
0.435621
0.549411
0.656799
0.742214
0.803559
0.845956
0.872904
0.887316
0.89315
0.894122
0.89406
0.893938
-0.209013
-0.192658
-0.139733
-0.0687288
0.0168189
0.109857
0.209493
0.314702
0.425514
0.541656
0.652403
0.74193
0.807484
0.853889
0.883351
0.897651
0.901346
0.899037
0.898353
0.899171
-0.227293
-0.210514
-0.15708
-0.0852378
0.00106764
0.0950417
0.195808
0.302385
0.414872
0.533194
0.646927
0.740263
0.810696
0.861841
0.895335
0.910968
0.912753
0.906254
0.900915
0.899249
-0.244922
-0.227801
-0.173856
-0.101257
-0.0142872
0.0804617
0.18214
0.289857
0.403842
0.524067
0.640068
0.737052
0.81239
0.869424
0.90862
0.928075
0.932178
0.919683
0.917798
0.92212
-0.261905
-0.244442
-0.190001
-0.116733
-0.0291903
0.0661812
0.168579
0.277239
0.392502
0.514248
0.632068
0.732263
0.812261
0.87552
0.922221
0.94875
0.958296
0.930216
0.888307
0.850806
-0.278181
-0.260442
-0.20554
-0.131729
-0.0437423
0.0520897
0.155014
0.264381
0.380567
0.503455
0.622881
0.72532
0.809229
0.87897
0.934702
0.972328
0.996098
0.983203
1.00006
1.05614
-0.293708
-0.275853
-0.220577
-0.14639
-0.0581141
0.0379836
0.141196
0.250936
0.367597
0.491258
0.61188
0.71559
0.802336
0.876946
0.937671
0.979372
0.996652
0.980018
0.941211
0.954273
-0.30846
-0.290653
-0.235065
-0.160657
-0.0722273
0.0239644
0.12725
0.237061
0.353819
0.477796
0.598875
0.702902
0.789747
0.865097
0.925741
0.965905
0.958829
0.908499
0.846085
0.834311
-0.32243
-0.304837
-0.249013
-0.174538
-0.0860795
0.0100329
0.113185
0.222797
0.339294
0.463021
0.583734
0.686916
0.771343
0.841644
0.896002
0.908784
0.876402
0.802112
0.728778
0.70883
-0.335655
-0.318398
-0.262427
-0.188049
-0.0996987
-0.00383427
0.0989965
0.208176
0.324072
0.446956
0.566521
0.667551
0.746097
0.804496
0.834175
0.823829
0.769846
0.669682
0.583199
0.562378
-0.34859
-0.331742
-0.275712
-0.201567
-0.113443
-0.0179521
0.0844162
0.192968
0.30794
0.429406
0.546926
0.644105
0.715427
0.757972
0.75374
0.720523
0.612873
0.491864
0.385393
0.359454
-0.362134
-0.345663
-0.289558
-0.215714
-0.127894
-0.0328126
0.0690244
0.176817
0.290605
0.410136
0.524701
0.616573
0.680763
0.699605
0.666049
0.580583
0.426027
0.274527
0.146401
0.119781
-0.376811
-0.360572
-0.304301
-0.230739
-0.143233
-0.0485457
0.0527269
0.159656
0.272044
0.389198
0.499895
0.585778
0.639059
0.630828
0.577618
0.429748
0.230457
0.0183014
-0.161343
-0.208815
-0.392727
-0.376557
-0.319986
-0.246654
-0.159443
-0.0651301
0.035542
0.141507
0.25232
0.366658
0.472337
0.552685
0.591606
0.551778
0.464395
0.276689
0.0448896
-0.244492
-0.566665
-0.713037
-0.409965
-0.393716
-0.336749
-0.263559
-0.17657
-0.0826239
0.0174044
0.12231
0.231404
0.342645
0.442508
0.51678
0.538123
0.467554
0.331548
0.125
-0.110625
-0.456348
-1.04621
-1.61978
-0.428597
-0.412137
-0.354635
-0.281494
-0.194641
-0.101026
-0.0016491
0.102155
0.209457
0.317477
0.411448
0.47837
0.481602
0.393311
0.202584
-0.0330867
-0.238021
-0.475781
-1.03768
-2.56749
-0.448643
-0.431896
-0.373775
-0.300605
-0.213808
-0.120526
-0.0218472
0.0807671
0.186139
0.290875
0.378956
0.436456
0.420506
0.334781
0.108165
-0.132326
-0.282523
-0.322205
-0.315707
-0.707055
-0.470028
-0.453158
-0.394304
-0.321162
-0.234475
-0.141622
-0.0438025
0.0574026
0.160531
0.261366
0.343872
0.391244
0.359546
0.286439
0.0580251
-0.147573
-0.260471
-0.269572
-0.217215
-0.258233
-0.492594
-0.475791
-0.416256
-0.343254
-0.25671
-0.164419
-0.0676547
0.0318899
0.132396
0.228807
0.306745
0.344182
0.305641
0.234156
0.0251918
-0.138999
-0.222014
-0.229578
-0.277308
-0.282533
-0.516322
-0.49958
-0.439483
-0.36684
-0.280504
-0.188948
-0.0934434
0.00419645
0.101773
0.193585
0.266848
0.295133
0.258425
0.17437
-0.00240852
-0.129428
-0.20118
-0.174964
-0.196546
-0.198205
-0.541014
-0.524097
-0.463947
-0.391864
-0.305697
-0.215102
-0.121068
-0.0255542
0.0687953
0.156096
0.224773
0.242856
0.217089
0.106873
-0.0369221
-0.123917
-0.16728
-0.21065
-0.186537
-0.19466
-0.566339
-0.549041
-0.489441
-0.41808
-0.332068
-0.242736
-0.150347
-0.0571334
0.0336192
0.116631
0.181282
0.189383
0.174705
0.0454174
-0.074068
-0.139871
-0.123177
-0.182452
-0.161416
-0.16621
-0.591506
-0.573978
-0.515858
-0.445167
-0.359267
-0.27156
-0.180953
-0.0901879
-0.00350151
0.0755322
0.137364
0.137775
0.123711
-0.00745539
-0.102523
-0.155978
-0.139566
-0.160257
-0.164475
-0.163575
-0.616015
-0.598652
-0.542311
-0.472317
-0.386963
-0.30122
-0.212486
-0.124286
-0.0419927
0.0333131
0.0936596
0.089671
0.0674386
-0.0522908
-0.119003
-0.15149
-0.182341
-0.161239
-0.167546
-0.163465
-0.638983
-0.622321
-0.567843
-0.498787
-0.414752
-0.331109
-0.244337
-0.158818
-0.0809404
-0.00978443
0.0498866
0.0444914
0.0116914
-0.091267
-0.137817
-0.128529
-0.193372
-0.153056
-0.164783
-0.158094
-0.659628
-0.644079
-0.591404
-0.523543
-0.442165
-0.360443
-0.275828
-0.193113
-0.119306
-0.0531714
0.00569728
0.00129437
-0.0380286
-0.11222
-0.156953
-0.122556
-0.174415
-0.144161
-0.148963
-0.14671
-0.676535
-0.662567
-0.612321
-0.546175
-0.468128
-0.388161
-0.306005
-0.226268
-0.155967
-0.0959076
-0.0385414
-0.0429719
-0.0805133
-0.118427
-0.151778
-0.142008
-0.145414
-0.144691
-0.142767
-0.1412
-0.688749
-0.676816
-0.629512
-0.565668
-0.491044
-0.413315
-0.333924
-0.257281
-0.189971
-0.136526
-0.0806424
-0.0860052
-0.127247
-0.121719
-0.112353
-0.118255
-0.118468
-0.143966
-0.143079
-0.146698
-0.694979
-0.685367
-0.641989
-0.580948
-0.509513
-0.434677
-0.358356
-0.28481
-0.22011
-0.172738
-0.118451
-0.126732
-0.185545
-0.159648
-0.0654798
-0.0808392
-0.0883985
-0.121356
-0.136415
-0.148394
-0.694945
-0.687427
-0.648105
-0.590394
-0.522447
-0.450977
-0.377926
-0.307383
-0.245259
-0.201847
-0.151078
-0.161699
-0.249197
-0.297993
-0.275356
-0.337156
-0.341903
-0.324201
-0.315808
-0.310415
-0.687668
-0.680396
-0.646105
-0.592799
-0.528802
-0.461002
-0.391305
-0.323227
-0.26266
-0.220461
-0.175683
-0.18535
-0.325646
-0.559526
-0.864026
-1.02086
-1.06064
-1.01832
-0.933747
-0.866054
-0.668833
-0.660919
-0.633706
-0.586785
-0.527771
-0.463932
-0.397441
-0.330953
-0.269659
-0.225096
-0.184931
-0.180153
-0.342343
-0.636524
-0.99704
-1.14317
-1.146
-1.05415
-0.97867
-0.932379
-0.630791
-0.623477
-0.609537
-0.572389
-0.519115
-0.459355
-0.395788
-0.329294
-0.263749
-0.211519
-0.166996
-0.122995
-0.142299
-0.186489
-0.272883
-0.255706
-0.174177
-0.100267
-0.0136015
0.0568587
-0.586018
-0.582456
-0.57934
-0.550712
-0.504855
-0.448851
-0.386723
-0.318629
-0.245705
-0.175147
-0.110373
0.0103531
0.174924
0.450977
0.692654
0.909438
1.08698
1.19459
1.24684
1.27269
-0.557831
-0.558478
-0.551145
-0.529822
-0.489493
-0.435322
-0.371953
-0.301111
-0.218776
-0.124114
-0.0236972
0.133393
0.39669
0.79444
1.18308
1.50362
1.72006
1.84465
1.90028
1.91898
-0.525794
-0.527035
-0.520394
-0.511157
-0.476167
-0.422785
-0.356079
-0.281316
-0.192957
-0.0862599
0.0299956
0.162269
0.434268
0.782267
1.12266
1.41467
1.62936
1.75856
1.81785
1.83536
-0.497057
-0.495643
-0.494794
-0.49228
-0.463736
-0.412082
-0.343221
-0.264176
-0.174295
-0.0668677
0.0476569
0.141136
0.372032
0.664727
0.943254
1.18628
1.38024
1.49915
1.55309
1.56776
-0.485992
-0.483278
-0.485777
-0.480743
-0.456439
-0.402848
-0.332048
-0.25157
-0.164656
-0.0665494
0.0405247
0.104729
0.28146
0.521287
0.742542
0.932132
1.08653
1.18282
1.22508
1.23582
-0.481821
-0.480578
-0.485154
-0.482535
-0.456986
-0.395682
-0.322453
-0.242619
-0.160693
-0.0769528
0.0229267
0.0723837
0.196505
0.387761
0.562401
0.703911
0.815988
0.888913
0.921323
0.929484
-0.466905
-0.467533
-0.474263
-0.472543
-0.44544
-0.380781
-0.308834
-0.232242
-0.156463
-0.0870022
0.0046622
0.0492152
0.127957
0.274461
0.410193
0.514676
0.595174
0.648225
0.67053
0.675947
-0.418546
-0.419711
-0.427927
-0.425236
-0.399679
-0.344289
-0.2824
-0.214685
-0.146796
-0.0902613
-0.00976022
0.0325425
0.0804879
0.19074
0.292722
0.368767
0.426515
0.465055
0.480412
0.48572
-0.327712
-0.330928
-0.334899
-0.33418
-0.315853
-0.279503
-0.236152
-0.185431
-0.128479
-0.0845633
-0.0186059
0.0199238
0.0501897
0.134569
0.208334
0.261679
0.303162
0.332925
0.344195
0.347188
-0.218653
-0.220779
-0.222967
-0.223467
-0.215029
-0.197688
-0.174221
-0.143235
-0.103306
-0.0711279
-0.0217241
0.0108687
0.0314971
0.0978634
0.149125
0.185004
0.214188
0.233125
0.241922
0.244578
-0.119194
-0.120445
-0.122251
-0.12463
-0.124233
-0.120381
-0.112131
-0.097443
-0.0747541
-0.0533888
-0.0202502
0.00463618
0.0190828
0.0718136
0.106603
0.131005
0.149327
0.159889
0.164221
0.164987
-0.0439736
-0.0448599
-0.0465364
-0.0505067
-0.0554883
-0.0595836
-0.0607716
-0.0570522
-0.0472883
-0.0357431
-0.0157134
0.0019983
0.0141579
0.0493118
0.0733707
0.0893166
0.0996906
0.104299
0.10491
0.104239
0.00422074
0.00358925
0.00202378
-0.00288811
-0.0108233
-0.0189025
-0.0249012
-0.0273111
-0.0251682
-0.0212427
-0.0101142
0.00161746
0.0114779
0.032453
0.0471771
0.0564463
0.0613314
0.0624231
0.0613416
0.059977
0.0301787
0.029671
0.0282676
0.0234095
0.0148313
0.00536133
-0.00284272
-0.00854438
-0.01027
-0.0105459
-0.00480617
0.00180409
0.00776397
0.0193101
0.0270645
0.0310231
0.0324457
0.0315413
0.0296294
0.028177
0.0410957
0.040702
0.0395136
0.0353254
0.0276101
0.0186154
0.00999948
0.00279574
-0.000775652
-0.00285894
0.000205933
0.00301919
0.00524154
0.0105869
0.0130628
0.01387
0.0134418
0.011512
0.00930342
0.0078829
0.0430208
0.0427311
0.0417971
0.0386116
0.0325554
0.0252109
0.0175146
0.0103325
0.0060044
0.0027273
0.00450061
0.00488995
0.00453536
0.00687641
0.00713833
0.00648615
0.00483296
0.00264199
0.000724174
-0.000688464
0.0405848
0.0403496
0.0396211
0.0373008
0.0329444
0.0275603
0.0214893
0.015306
0.01096
0.00687769
0.00729055
0.00751237
0.00619949
0.00670689
0.0068395
0.00561927
0.00377562
0.00183766
0.000145573
-0.0012299
0.0366437
0.0364657
0.0359479
0.0343167
0.0312178
0.0272722
0.0226464
0.0176428
0.0138839
0.00956117
0.00944134
0.00968232
0.00912231
0.00923896
0.00863171
0.00729984
0.00542676
0.00386395
0.00273111
0.00154318
0.0323777
0.0322487
0.0318736
0.0307181
0.0285116
0.0255143
0.021997
0.0180029
0.0150831
0.0112848
0.0110975
0.011283
0.0110443
0.0115409
0.0105592
0.00949581
0.00866436
0.00806428
0.00771143
0.00660902
0.0281983
0.0281165
0.0278685
0.0271058
0.0254628
0.0231925
0.0204696
0.0171903
0.0150234
0.0119573
0.0114155
0.0112541
0.0108495
0.0123637
0.012578
0.0123402
0.0123816
0.0122384
0.0123034
0.0113144
0.0239556
0.0238957
0.0236917
0.0232176
0.0221065
0.0204684
0.0184794
0.0159571
0.0142264
0.01146
0.0110202
0.0103751
0.00962543
0.0107553
0.0125157
0.0144155
0.0147919
0.0146551
0.0149942
0.0143559
0.0198032
0.0197465
0.0195858
0.0192702
0.0184873
0.0174683
0.0160215
0.014096
0.0129921
0.0105911
0.00991256
0.00830497
0.00808022
0.0103844
0.0128298
0.0151493
0.0175762
0.0191043
0.0196722
0.0189595
0.0159895
0.0159201
0.015785
0.0156
0.0151129
0.0145313
0.013611
0.0121724
0.011286
0.00929374
0.00888969
0.00666424
0.00587979
0.0100852
0.0147258
0.0182729
0.0214564
0.0233677
0.024065
0.0231652
0.0125816
0.0125112
0.0124145
0.0122799
0.011976
0.0116254
0.0110492
0.010115
0.00938701
0.00788878
0.00802788
0.00653671
0.00626535
0.00993687
0.0151686
0.0199141
0.023145
0.0249519
0.0257117
0.0248698
0.00967304
0.00956743
0.00949736
0.00939858
0.00917134
0.00894039
0.0085182
0.0078032
0.00746045
0.00637003
0.00688812
0.00504885
0.00670665
0.0105458
0.0145086
0.0191161
0.0230189
0.0248023
0.0253788
0.0246735
0.00694283
0.00686632
0.00684077
0.00675369
0.00658792
0.00637654
0.00612036
0.00559151
0.0057186
0.00493363
0.00606077
0.00468083
0.00567367
0.00806798
0.011642
0.0162487
0.0205795
0.0235311
0.0242513
0.022989
0.00433056
0.00422672
0.00416587
0.0040159
0.00394556
0.00407074
0.00384465
0.00322603
0.0039425
0.00301771
0.0037577
0.00408173
0.00571139
0.00612107
0.00853619
0.0112977
0.0145504
0.0170741
0.0184264
0.0170784
0.00195397
0.00187484
0.00183892
0.00187149
0.0019226
0.001621
0.00201999
0.0021672
0.00238768
0.001001
0.000748993
0.00254828
0.00509838
0.00469147
0.00474279
0.00290327
0.00167521
0.000685988
0.00183813
0.0014845
-1.07447
-0.228372
0.041775
0.319957
0.504039
0.662545
0.792328
0.924361
1.06806
1.14839
-0.0886528
0.320771
0.339333
0.528982
0.655399
0.768664
0.866414
0.95321
0.981125
0.938574
0.292438
0.507969
0.545076
0.68239
0.769974
0.851207
0.918087
0.968204
0.97062
0.984335
0.524562
0.669238
0.704975
0.808395
0.865542
0.924535
0.96979
1.0024
1.01162
1.03518
0.704581
0.807337
0.837166
0.906153
0.950569
0.992419
1.02482
1.04923
1.05915
1.09064
0.849263
0.91886
0.94933
0.992888
1.02922
1.05967
1.08418
1.10498
1.11926
1.14748
0.969305
1.0203
1.04599
1.07426
1.1022
1.12615
1.14627
1.16559
1.18058
1.20703
1.07359
1.11077
1.13198
1.15282
1.17382
1.19337
1.21087
1.22903
1.24393
1.26758
1.16789
1.19712
1.21355
1.22896
1.24524
1.2614
1.277
1.29394
1.30753
1.32984
1.25642
1.27695
1.2919
1.30519
1.31884
1.33266
1.34615
1.36072
1.37224
1.39188
1.34215
1.358
1.37187
1.38372
1.39563
1.40724
1.41834
1.43
1.43767
1.45448
1.42758
1.4402
1.45391
1.46558
1.47613
1.48588
1.49468
1.50294
1.50651
1.51778
1.51635
1.52721
1.54065
1.55008
1.55758
1.56484
1.57204
1.57857
1.57962
1.58701
1.61468
1.61922
1.62738
1.63215
1.63554
1.64003
1.64602
1.65372
1.65758
1.66746
1.72785
1.71469
1.70741
1.70172
1.69902
1.70037
1.70676
1.71913
1.73393
1.76359
1.84975
1.79377
1.76276
1.74557
1.73737
1.73734
1.74613
1.76571
1.79761
1.86684
)
;

boundaryField
{
    wall-4
    {
        type            zeroGradient;
    }
    pressure-outlet-7
    {
        type            fixedValue;
        value           uniform 0;
    }
    velocity-inlet-6
    {
        type            zeroGradient;
    }
    velocity-inlet-5
    {
        type            zeroGradient;
    }
    frontAndBackPlanes
    {
        type            empty;
    }
}


// ************************************************************************* //
