/*--------------------------------*- C++ -*----------------------------------*\
  =========                 |
  \\      /  F ield         | OpenFOAM: The Open Source CFD Toolbox
   \\    /   O peration     | Website:  https://openfoam.org
    \\  /    A nd           | Version:  9
     \\/     M anipulation  |
\*---------------------------------------------------------------------------*/
FoamFile
{
    format      ascii;
    class       surfaceScalarField;
    location    "43";
    object      phi;
}
// * * * * * * * * * * * * * * * * * * * * * * * * * * * * * * * * * * * * * //

dimensions      [0 3 -1 0 0 0 0];

internalField   nonuniform List<scalar> 
4262
(
0.107138
0.470851
0.0955639
0.70516
0.0693689
0.858498
0.0473497
1.02078
0.0309873
1.21488
0.0198224
1.44938
0.0124623
1.73322
0.0073063
2.07619
0.00337659
2.48917
-0.000209883
2.98588
-0.00384898
2.98593
-0.00786259
2.48926
-0.0130213
2.07619
-0.0201919
1.73303
-0.0311339
1.44916
-0.0472485
1.21463
-0.0690482
1.02056
-0.0952861
0.858541
-0.107091
0.705391
0.470897
0.112905
0.357946
0.135349
0.682715
0.120491
0.873356
0.0979743
1.0433
0.0747165
1.23814
0.0529617
1.47114
0.0345364
1.75165
0.0202555
2.09047
0.00890281
2.50053
-0.00131571
2.9961
-0.0114592
2.99607
-0.0224862
2.50028
-0.0364061
2.09011
-0.0546454
1.75127
-0.0764089
1.47093
-0.0999863
1.23821
-0.12297
1.04355
-0.136763
0.872333
-0.113482
0.68211
0.357415
0.0920769
0.265869
0.125038
0.649755
0.121197
0.877197
0.104937
1.05956
0.0862978
1.25678
0.0671786
1.49026
0.0483149
1.77051
0.0303898
2.1084
0.014012
2.5169
-0.00174501
3.01185
-0.0173257
3.01166
-0.0333583
2.51632
-0.0509535
2.10771
-0.0696268
1.76995
-0.0882194
1.48952
-0.105731
1.25572
-0.120247
1.05806
-0.125309
0.877395
-0.0923492
0.649149
0.265066
0.0640182
0.201851
0.104906
0.608867
0.106735
0.875367
0.0954106
1.07088
0.0815396
1.27065
0.0668061
1.50499
0.0505972
1.78672
0.0334157
2.12558
0.0156948
2.53462
-0.00306786
3.03062
-0.0215785
3.03017
-0.038755
2.53349
-0.0552685
2.12422
-0.0704868
1.78517
-0.0843016
1.50333
-0.0979436
1.26936
-0.109604
1.06972
-0.106721
0.874513
-0.0647589
0.607187
0.200307
0.0375543
0.164296
0.0809146
0.565507
0.0912613
0.865021
0.0841256
1.07802
0.0716073
1.28316
0.0598605
1.51674
0.046905
1.79968
0.0320024
2.14048
0.015216
2.55141
-0.00379452
3.04963
-0.0225291
3.0489
-0.0387425
2.54971
-0.0528085
2.13829
-0.065124
1.79748
-0.0764495
1.51466
-0.0883755
1.28129
-0.0947007
1.07605
-0.08301
0.862822
-0.0383162
0.562493
0.161991
0.0195132
0.144783
0.0573273
0.527692
0.0727687
0.849579
0.0706954
1.08009
0.0619577
1.2919
0.0511734
1.52752
0.0400748
1.81078
0.0275381
2.15302
0.0124698
2.56648
-0.00519421
3.06729
-0.0224506
3.06616
-0.0366039
2.56386
-0.0480994
2.14979
-0.0580406
1.80742
-0.0678038
1.52442
-0.0755265
1.28901
-0.076525
1.07705
-0.0596596
0.845957
-0.0202783
0.523112
0.141713
0.0106529
0.13413
0.0424778
0.495868
0.0587391
0.833318
0.0591096
1.07972
0.0529574
1.29805
0.0435975
1.53688
0.0334134
1.82096
0.0222471
2.16419
0.00931622
2.57941
-0.00637404
3.08298
-0.0217811
3.08156
-0.0337643
2.57584
-0.0436427
2.15966
-0.0524638
1.81624
-0.0606801
1.53264
-0.0655234
1.29385
-0.0637494
1.07527
-0.0455472
0.827755
-0.0115943
0.489159
0.130118
0.00663501
0.127495
0.0331471
0.469355
0.0494815
0.816984
0.051065
1.07814
0.0461168
1.303
0.0378607
1.54514
0.0283296
1.83049
0.0175649
2.17495
0.00554989
2.59143
-0.00822955
3.09676
-0.0213161
3.09465
-0.0319899
2.58652
-0.0412779
2.16895
-0.0492026
1.82417
-0.0558094
1.53924
-0.0591165
1.29716
-0.0556758
1.07183
-0.0368372
0.808916
-0.00776958
0.460091
0.122349
0.00480236
0.122693
0.0268827
0.447275
0.0430208
0.800846
0.0453475
1.07581
0.0408559
1.30749
0.0333932
1.5526
0.0244432
1.83944
0.0141121
2.18528
0.00262359
2.60291
-0.0100735
3.10946
-0.022078
3.10666
-0.0321074
2.59655
-0.0404146
2.17726
-0.0473782
1.83113
-0.0529782
1.54484
-0.0554327
1.29962
-0.0506396
1.06704
-0.0313526
0.789629
-0.00617544
0.434914
0.116173
0.003829
0.118864
0.0218983
0.429206
0.0372287
0.785515
0.0402592
1.07278
0.0362306
1.31152
0.0291519
1.55968
0.0205302
1.84806
0.0105338
2.19528
-0.000721943
2.61417
-0.0128435
3.12158
-0.0241159
3.11793
-0.0332711
2.6057
-0.0409077
2.1849
-0.0470208
1.83724
-0.0515494
1.54937
-0.0529332
1.301
-0.0468014
1.06091
-0.0274255
0.770253
-0.00552244
0.413011
0.110651
0.00304006
0.115824
0.0175685
0.414677
0.0316303
0.771453
0.0348413
1.06957
0.0310931
1.31527
0.0244849
1.56629
0.0164892
1.85606
0.00697467
2.20479
-0.0039061
2.62505
-0.0156868
3.13336
-0.0264569
3.1287
-0.0349797
2.61422
-0.0415567
2.19147
-0.0467451
1.84243
-0.0505348
1.55316
-0.0510172
1.30148
-0.0436774
1.05357
-0.0243809
0.750956
-0.00515414
0.393784
0.105497
0.00243736
0.113387
0.0140878
0.403027
0.0269436
0.758598
0.0302444
1.06627
0.0263904
1.31913
0.0195593
1.57312
0.0114856
1.86413
0.00240949
2.21387
-0.00777398
2.63523
-0.0192537
3.14484
-0.0295259
3.13897
-0.0370052
2.6217
-0.042505
2.19697
-0.0467167
1.84664
-0.0497678
1.55621
-0.0493113
1.30102
-0.0410041
1.04526
-0.0220301
0.731982
-0.00491378
0.376668
0.100583
0.00171567
0.111671
0.0104193
0.394323
0.021306
0.747711
0.0242146
1.06336
0.0204653
1.32287
0.0137977
1.57979
0.00581314
1.87212
-0.00311422
2.2228
-0.0132298
2.64535
-0.0242317
3.15584
-0.0334167
3.14815
-0.0395799
2.62787
-0.0440621
2.20145
-0.0478187
1.8504
-0.0499362
1.55833
-0.0487975
1.29989
-0.039355
1.03582
-0.0204166
0.713044
-0.00477251
0.361024
0.0958105
0.000849429
0.110821
0.00703815
0.388135
0.0162592
0.73849
0.0186996
1.06092
0.014635
1.32694
0.00775907
1.58666
-0.000246677
1.88012
-0.0091419
2.23169
-0.0187088
2.65492
-0.0289829
3.16612
-0.0376864
3.15686
-0.0432442
2.63342
-0.0467829
2.20499
-0.0495041
1.85312
-0.0505013
1.55933
-0.0485258
1.29791
-0.0378642
1.02516
-0.0190852
0.694265
-0.0046299
0.346569
0.0911806
6.74151e-05
0.110754
0.00378599
0.384416
0.0104808
0.731795
0.0120685
1.05933
0.00801063
1.331
0.00108118
1.59359
-0.00732508
1.88853
-0.0165476
2.24091
-0.0266237
2.66499
-0.0367458
3.17624
-0.0441528
3.16427
-0.0483095
2.63758
-0.0509399
2.20762
-0.0525039
1.85469
-0.0522691
1.55909
-0.0487424
1.29438
-0.0370474
1.01346
-0.0182713
0.675489
-0.00454209
0.33284
0.0866385
-0.000771821
0.111526
0.000391073
0.383253
0.0051603
0.727026
0.00568416
1.05881
0.000836473
1.33584
-0.006706
1.60114
-0.0156196
1.89744
-0.0254312
2.25073
-0.0351181
2.67468
-0.0436455
3.18477
-0.0498081
3.17043
-0.0533545
2.64113
-0.0551017
2.20937
-0.0559048
1.85549
-0.055024
1.55821
-0.050151
1.28951
-0.0370298
1.00034
-0.0180554
0.656515
-0.00464022
0.319424
0.0819983
-0.00172007
0.113246
-0.0029497
0.384483
-0.00161293
0.725689
-0.00285146
1.06005
-0.00831419
1.34131
-0.0162279
1.60905
-0.025623
1.90684
-0.0357589
2.26086
-0.0460172
2.68494
-0.0549493
3.1937
-0.0602825
3.17576
-0.0623301
2.64318
-0.0624095
2.20945
-0.061198
1.85428
-0.0584115
1.55543
-0.0519671
1.28307
-0.037718
0.986092
-0.018357
0.637154
-0.00486856
0.305936
0.0771298
-0.00305577
0.116302
-0.00665984
0.388087
-0.00858253
0.727612
-0.0115036
1.06297
-0.0181092
1.34791
-0.0271494
1.61809
-0.037226
1.91691
-0.0479223
2.27156
-0.0580881
2.6951
-0.0660138
3.20162
-0.0696103
3.17936
-0.0700637
2.64363
-0.0689102
2.2083
-0.0672565
1.85262
-0.0635824
1.55175
-0.0552333
1.27472
-0.0390402
0.969899
-0.0189001
0.617013
-0.00511177
0.292147
0.072018
-0.00448983
0.120792
-0.0112752
0.394872
-0.0167231
0.73306
-0.0226105
1.06886
-0.030359
1.35566
-0.0403238
1.62805
-0.0514172
1.92801
-0.0627906
2.28293
-0.0737058
2.70602
-0.0824117
3.21033
-0.0859423
3.18289
-0.0848081
2.64249
-0.0811095
2.2046
-0.0760802
1.84759
-0.0696689
1.54534
-0.0592928
1.26434
-0.041209
0.951816
-0.0200078
0.595812
-0.00552451
0.277664
0.0664935
-0.00593886
0.12673
-0.0164604
0.405394
-0.0261588
0.742758
-0.0344325
1.07713
-0.0441478
1.36538
-0.0563389
1.64025
-0.0690752
1.94074
-0.0816943
2.29555
-0.0926061
2.71693
-0.0993335
3.21706
-0.0992793
3.18283
-0.0953786
2.63859
-0.0901855
2.1994
-0.0849778
1.84239
-0.0774611
1.53782
-0.0644279
1.25131
-0.043829
0.931217
-0.0213295
0.573313
-0.00593226
0.262267
0.0605612
-0.00844151
0.135172
-0.0240574
0.42101
-0.0395478
0.758248
-0.0516701
1.08925
-0.0628589
1.37657
-0.0760974
1.65348
-0.0903966
1.95504
-0.104352
2.30951
-0.115876
2.72845
-0.122398
3.22358
-0.121775
3.18221
-0.116465
2.63328
-0.108303
2.19124
-0.0984058
1.83249
-0.0870887
1.52651
-0.0711146
1.23533
-0.0479517
0.908054
-0.0236037
0.548965
-0.00657364
0.245237
0.0539876
-0.0108555
0.146027
-0.0311189
0.441273
-0.0519885
0.779118
-0.0683523
1.10562
-0.0830385
1.39125
-0.0995928
1.67004
-0.116165
1.97161
-0.131636
2.32498
-0.143477
2.7403
-0.148152
3.22825
-0.143498
3.17756
-0.13363
2.62342
-0.122791
2.1804
-0.112159
1.82186
-0.0994241
1.51377
-0.0801256
1.21604
-0.053484
0.881412
-0.0264321
0.521913
-0.00722675
0.226032
0.0467608
-0.0155169
0.161544
-0.0429862
0.468742
-0.0703343
0.806466
-0.0918971
1.12718
-0.110114
1.40947
-0.12943
1.68935
-0.148597
1.99078
-0.165716
2.3421
-0.177815
2.75239
-0.181394
3.23183
-0.17507
3.17123
-0.163681
2.61203
-0.150053
2.16678
-0.134145
1.80595
-0.115951
1.49558
-0.0921897
1.19227
-0.0613172
0.85054
-0.0303376
0.490933
-0.00810035
0.203794
0.0386605
-0.0196391
0.181183
-0.0558139
0.504917
-0.0924292
0.843081
-0.120702
1.15545
-0.144496
1.43326
-0.168757
1.71361
-0.190447
2.01247
-0.207962
2.35961
-0.218388
2.76282
-0.21809
3.23153
-0.2066
3.15974
-0.189673
2.5951
-0.171383
2.14849
-0.154196
1.78876
-0.134332
1.47571
-0.106314
1.16426
-0.0702126
0.814439
-0.0342162
0.454937
-0.00880399
0.178382
0.0298565
-0.0328166
0.214
-0.0818921
0.553993
-0.128174
0.889363
-0.163519
1.1908
-0.193449
1.46319
-0.221001
1.74117
-0.243905
2.03538
-0.260882
2.37659
-0.268804
2.77074
-0.263785
3.22652
-0.246776
3.14273
-0.226227
2.57455
-0.205619
2.12788
-0.183072
1.76622
-0.156383
1.44903
-0.122233
1.13011
-0.0799764
0.772182
-0.0383046
0.413265
-0.00934848
0.149426
0.020508
-0.0474498
0.26145
-0.12062
0.627163
-0.182275
0.951017
-0.22536
1.23388
-0.260749
1.49858
-0.289864
1.77028
-0.310967
2.05648
-0.32366
2.38928
-0.324961
2.77204
-0.312649
3.2142
-0.289246
3.11933
-0.262883
2.54819
-0.235865
2.10086
-0.209757
1.74011
-0.180581
1.41985
-0.140345
1.08987
-0.089626
0.721463
-0.040587
0.364226
-0.00922547
0.118064
0.0112825
-0.0337659
0.295216
-0.096111
0.689508
-0.152883
1.00779
-0.199331
1.28033
-0.241817
1.54107
-0.278379
1.80684
-0.312147
2.09025
-0.341473
2.41861
-0.362307
2.79288
-0.368154
3.22005
-0.354214
3.10539
-0.329992
2.52396
-0.302807
2.07367
-0.269205
1.70651
-0.224564
1.37521
-0.165703
1.03101
-0.0969044
0.652664
-0.0386164
0.305938
-0.0084802
0.0879282
0.00280234
-0.0123658
0.307582
-0.0464897
0.723632
-0.0874955
1.0488
-0.126321
1.31916
-0.164327
1.57907
-0.197907
1.84042
-0.228559
2.1209
-0.253574
2.44362
-0.268165
2.80747
-0.266621
3.21851
-0.248921
3.08769
-0.221964
2.49701
-0.188632
2.04034
-0.153215
1.67109
-0.115213
1.33721
-0.0725208
0.988316
-0.0329717
0.613115
-0.00940003
0.282366
-0.00166128
0.0801895
0.00114106
0.000766241
0.306815
-0.0231739
0.747572
-0.05234
1.07796
-0.0824412
1.34926
-0.113519
1.61015
-0.143741
1.87065
-0.171075
2.14823
-0.19292
2.46547
-0.205878
2.82043
-0.205502
3.21813
-0.185838
3.06803
-0.155789
2.46696
-0.123603
2.00816
-0.0881835
1.63567
-0.0496986
1.29872
-0.0138939
0.952511
0.00752921
0.591692
0.0091228
0.280773
0.00301014
0.0863021
0.0041512
0.00125276
0.305563
-0.0117843
0.760609
-0.0335019
1.09968
-0.0584403
1.3742
-0.0841031
1.63581
-0.109137
1.89568
-0.132427
2.17152
-0.150952
2.48399
-0.160799
2.83027
-0.155195
3.21253
-0.135678
3.04851
-0.110434
2.44171
-0.0780694
1.97579
-0.0426298
1.60023
-0.0124464
1.26854
0.00979004
0.930275
0.0192518
0.58223
0.0145776
0.285447
0.00480965
0.09607
0.00896086
0.00436468
0.301198
-0.00423816
0.769212
-0.0223842
1.11782
-0.043406
1.39522
-0.0653828
1.65779
-0.0871522
1.91745
-0.107572
2.19194
-0.124323
2.50074
-0.13421
2.84016
-0.132736
3.21105
-0.116984
3.03276
-0.0901635
2.41489
-0.0588806
1.94451
-0.0289503
1.5703
0.00109576
1.23849
0.0216387
0.909732
0.025451
0.578418
0.0167394
0.294159
0.00526931
0.10754
0.0142302
0.00536324
0.295835
-0.000502641
0.775078
-0.0166258
1.13395
-0.035381
1.41397
-0.0547396
1.67715
-0.0738795
1.93659
-0.0921891
2.21025
-0.107465
2.51602
-0.11569
2.84838
-0.112406
3.20777
-0.0965475
3.0169
-0.0744195
2.39277
-0.048464
1.91855
-0.0186888
1.54052
0.00562081
1.21418
0.0212927
0.89406
0.0238851
0.575826
0.0150194
0.303024
0.00471761
0.117842
0.0189478
0.00400418
0.29183
-5.4624e-05
0.779137
-0.0133754
1.14727
-0.0303587
1.43096
-0.0480727
1.69486
-0.065829
1.95435
-0.08284
2.22726
-0.0971979
2.53038
-0.106332
2.85752
-0.106338
3.20778
-0.0925972
3.00316
-0.0688179
2.36899
-0.0436951
1.89343
-0.0204909
1.51732
0.00302141
1.19067
0.01712
0.879961
0.0185817
0.574364
0.0116308
0.309975
0.00355517
0.125918
0.022503
0.00270433
0.289126
-0.00075784
0.782599
-0.0128822
1.15939
-0.0283304
1.44641
-0.044845
1.71138
-0.0613363
1.97084
-0.0774782
2.2434
-0.0918112
2.54471
-0.101474
2.86718
-0.100326
3.20663
-0.0871707
2.99
-0.0703179
2.35213
-0.0480503
1.87116
-0.0220812
1.49135
-0.00303314
1.17162
0.0087926
0.868135
0.0120208
0.571136
0.00718319
0.314813
0.00225499
0.130846
0.0247579
0.000195822
0.28893
-0.00310031
0.785895
-0.01377
1.17006
-0.0275144
1.46015
-0.0429937
1.72686
-0.0589529
1.9868
-0.0749869
2.25944
-0.0895465
2.55927
-0.0996361
2.87727
-0.10129
3.20828
-0.0921261
2.98084
-0.0727404
2.33275
-0.0503425
1.84876
-0.0307133
1.47172
-0.011924
1.15283
0.000357391
0.855854
0.00306319
0.56843
0.00230505
0.315571
0.000944013
0.132207
0.025702
-0.000426216
0.289357
-0.00505109
0.79052
-0.0149689
1.17998
-0.0278389
1.47302
-0.0426336
1.74165
-0.0580117
2.00217
-0.0737153
2.27514
-0.0884064
2.57396
-0.0995231
2.88839
-0.103451
3.21221
-0.0928873
2.97028
-0.0758397
2.3157
-0.0570861
1.83001
-0.0365951
1.45123
-0.0209698
1.13721
-0.0102096
0.845094
-0.00369707
0.561918
-0.00247752
0.314351
-0.000647094
0.130376
0.0250549
-0.00212421
0.291481
-0.00732611
0.795722
-0.0165996
1.18925
-0.0285226
1.48494
-0.0424786
1.75561
-0.0575049
2.0172
-0.0733412
2.29098
-0.088878
2.5895
-0.101688
2.9012
-0.106499
3.21702
-0.0984991
2.96228
-0.0822333
2.29944
-0.0629249
1.8107
-0.0461216
1.43443
-0.0292052
1.12029
-0.0168123
0.832701
-0.0100014
0.555107
-0.00461304
0.308963
-0.00122312
0.126986
0.0238317
-0.00358046
0.295061
-0.00882864
0.80097
-0.0178398
1.19827
-0.0293975
1.4965
-0.0428557
1.76907
-0.0574961
2.03184
-0.073378
2.30686
-0.0892996
2.60542
-0.102555
2.91445
-0.109225
3.22369
-0.104441
2.95749
-0.0895441
2.28454
-0.0719487
1.79311
-0.0521394
1.41462
-0.0368342
1.10499
-0.0242792
0.820146
-0.0142395
0.545067
-0.00737398
0.302097
-0.00202821
0.121641
0.0218035
-0.00424181
0.299303
-0.0102596
0.806988
-0.0191297
1.20714
-0.030126
1.5075
-0.0430135
1.78195
-0.0574209
2.04625
-0.0734221
2.32286
-0.090001
2.622
-0.105399
2.92985
-0.115365
3.23366
-0.111637
2.95376
-0.0985039
2.2714
-0.0778192
1.77242
-0.0598277
1.39663
-0.0424849
1.08764
-0.0287045
0.806365
-0.0183491
0.534712
-0.0082173
0.291966
-0.00219854
0.115622
0.019605
-0.00436335
0.303666
-0.0108998
0.813524
-0.0198331
1.21607
-0.030647
1.51831
-0.0432388
1.79455
-0.0573405
2.06035
-0.0733365
2.33886
-0.09041
2.63907
-0.106501
2.94594
-0.117435
3.24459
-0.117542
2.95387
-0.105644
2.25951
-0.0880358
1.75482
-0.0658804
1.37447
-0.0481427
1.06991
-0.0330047
0.791227
-0.0193366
0.521044
-0.00902217
0.281651
-0.00216828
0.108768
0.0174367
-0.00444657
0.308113
-0.0115358
0.820614
-0.0204045
1.22494
-0.0308376
1.52874
-0.0430223
1.80673
-0.0569171
2.07425
-0.0729652
2.35491
-0.09058
2.65669
-0.108478
2.96384
-0.123155
3.25927
-0.12575
2.95647
-0.114599
2.24835
-0.0937043
1.73392
-0.0728555
1.35362
-0.0509996
1.04805
-0.033756
0.773984
-0.020494
0.507782
-0.00831423
0.269471
-0.00177946
0.102233
0.0156572
-0.00450163
0.312615
-0.011702
0.827814
-0.0204548
1.23369
-0.0307328
1.53902
-0.0426946
1.81869
-0.056343
2.08789
-0.0723686
2.37093
-0.0903792
2.6747
-0.108918
2.98238
-0.124359
3.27471
-0.129736
2.96184
-0.121416
2.24003
-0.105219
1.71772
-0.0791792
1.32758
-0.0543753
1.02325
-0.0325322
0.752141
-0.0155909
0.49084
-0.00591428
0.259795
-0.00077096
0.0970899
0.0148863
-0.00458621
0.317201
-0.0119052
0.835133
-0.020434
1.24222
-0.0303409
1.54893
-0.0419348
1.83029
-0.0553898
2.10135
-0.0713973
2.38694
-0.0896731
2.69297
-0.109473
3.00218
-0.128392
3.29363
-0.137548
2.971
-0.131687
2.23417
-0.111585
1.69762
-0.0864372
1.30244
-0.0551402
0.99195
-0.028051
0.725051
-0.00905153
0.471841
-0.000473098
0.251216
-0.00192971
0.0985465
0.0129566
-0.0045661
0.321767
-0.0117498
0.842317
-0.0200381
1.25051
-0.0297229
1.55861
-0.04107
1.84163
-0.0542581
2.11454
-0.0701082
2.40279
-0.0885679
2.71143
-0.108927
3.02254
-0.128475
3.31318
-0.139634
2.98216
-0.137629
2.23217
-0.124187
1.68418
-0.0947084
1.27296
-0.0582875
0.955529
-0.0185885
0.685352
0.0168232
0.436429
0.032214
0.235826
0.0241249
0.106636
0.0370815
-0.00448097
0.326248
-0.011607
0.849443
-0.0196346
1.25853
-0.0289152
1.56789
-0.0398428
1.85256
-0.052756
2.12745
-0.0684552
2.41849
-0.0870075
2.72999
-0.108185
3.04371
-0.130273
3.33526
-0.145069
2.99695
-0.147831
2.23493
-0.132094
1.66844
-0.104762
1.24563
-0.0603525
0.911119
-0.013024
0.638024
0.0344294
0.388976
0.0433652
0.22689
0.0189357
0.131065
0.0560172
-0.0042932
0.330541
-0.0111958
0.856345
-0.0189375
1.26628
-0.0279253
1.57688
-0.0385801
1.86322
-0.05117
2.14004
-0.0666211
2.43394
-0.0851802
2.74854
-0.106616
3.06515
-0.129368
3.35802
-0.146419
3.014
-0.152019
2.24053
-0.146082
1.66251
-0.1187
1.21824
-0.0737476
0.866166
1.10653e-05
0.564265
0.100786
0.2882
0.184814
0.142862
0.179759
0.13612
0.235777
-0.0041626
0.334704
-0.0110298
0.863212
-0.0187207
1.27397
-0.027638
1.5858
-0.0383901
1.87397
-0.0514234
2.15307
-0.0677757
2.45029
-0.0878537
2.76862
-0.112029
3.08933
-0.139913
3.3859
-0.163141
3.03723
-0.175773
2.25316
-0.170222
1.65695
-0.147848
1.19587
-0.0985899
0.816909
-0.0457727
0.511448
-0.0845766
0.327004
-0.359837
0.418122
-0.93771
0.713993
0.89844
-1.60037
-0.00397101
0.338675
-0.0106076
0.869849
-0.0180906
1.28145
-0.0269024
1.59461
-0.0376136
1.88468
-0.050743
2.1662
-0.0674505
2.467
-0.0883904
2.78956
-0.114202
3.11514
-0.144828
3.41653
-0.172962
3.06537
-0.190391
2.27059
-0.20341
1.66997
-0.19477
1.18723
-0.175813
0.797951
-0.261683
0.597319
-0.692431
0.757752
-1.43294
1.15863
-2.04276
1.32382
1.21779
-2.36212
-0.00376981
0.342444
-0.0101992
0.876278
-0.0174694
1.28872
-0.0260395
1.60318
-0.0365589
1.8952
-0.0497542
2.1794
-0.0668189
2.48406
-0.088583
2.81133
-0.116343
3.1429
-0.151239
3.45142
-0.185667
3.09979
-0.214149
2.29907
-0.228628
1.68445
-0.226555
1.18516
-0.313686
0.885083
-0.752642
1.03627
-1.5332
1.53831
-2.10445
1.72987
-2.3452
1.56457
1.33266
-2.46006
-0.00356852
0.346013
-0.00962797
0.882338
-0.0166014
1.29569
-0.0250008
1.61158
-0.0354156
1.90561
-0.0486338
2.19262
-0.0659415
2.50137
-0.0884643
2.83385
-0.117763
3.1722
-0.155559
3.48922
-0.196034
3.14027
-0.229061
2.3321
-0.263499
1.71889
-0.349639
1.2713
-0.69215
1.22759
-1.42994
1.77407
-2.02253
2.1309
-2.26338
1.97072
-2.37728
1.67846
1.39766
-2.44228
-0.00330874
0.349322
-0.00903647
0.888065
-0.0157164
1.30237
-0.0238114
1.61968
-0.0340324
1.91583
-0.0472247
2.20581
-0.0647574
2.5189
-0.0879491
2.85704
-0.118986
3.20323
-0.161078
3.53131
-0.208548
3.18774
-0.255988
2.37954
-0.303493
1.7664
-0.483417
1.45122
-1.08916
1.83333
-1.78114
2.46606
-2.10548
2.45524
-2.25492
2.12016
-2.33743
1.76097
1.46344
-2.40321
-0.0032322
0.352554
-0.00882091
0.893654
-0.0154464
1.309
-0.0236278
1.62786
-0.0341479
1.92635
-0.0476328
2.21929
-0.0656476
2.53692
-0.0897562
2.88115
-0.122369
3.23584
-0.167418
3.57636
-0.221527
3.24185
-0.271932
2.42995
-0.365152
1.85962
-0.751207
1.83728
-1.4847
2.56682
-1.96155
2.94291
-2.16213
2.65582
-2.26877
2.22681
-2.34586
1.83806
1.52732
-2.40975
-0.00332767
0.355882
-0.00921406
0.899541
-0.0162315
1.31602
-0.0247892
1.63641
-0.0357388
1.9373
-0.0498574
2.23341
-0.0687532
2.55581
-0.0940697
2.90647
-0.128743
3.27052
-0.178335
3.62595
-0.236624
3.30014
-0.302364
2.49569
-0.492882
2.05013
-1.0437
2.38809
-1.67331
3.19643
-1.95222
3.22181
-2.09987
2.80348
-2.21413
2.34107
-2.30779
1.93172
1.58933
-2.3698
-0.00336661
0.359248
-0.0095058
0.90568
-0.0168905
1.3234
-0.0259832
1.64551
-0.0375364
1.94886
-0.0523387
2.24821
-0.0720966
2.57557
-0.0986801
2.93305
-0.135117
3.30695
-0.187338
3.67817
-0.251886
3.36468
-0.342253
2.58605
-0.622608
2.33049
-1.25923
3.02471
-1.75099
3.6882
-1.95891
3.42973
-2.09993
2.9445
-2.2242
2.46534
-2.33547
2.04299
1.64816
-2.3943
-0.00335481
0.362603
-0.00982978
0.912155
-0.017734
1.33131
-0.0272873
1.65506
-0.0392956
1.96087
-0.0547778
2.2637
-0.075475
2.59627
-0.103296
2.96087
-0.14171
3.34537
-0.197548
3.73401
-0.266304
3.43344
-0.391261
2.71101
-0.773393
2.71262
-1.40513
3.65645
-1.76193
4.045
-1.93596
3.60375
-2.03883
3.04737
-2.12832
2.55484
-2.19657
2.11123
1.64131
-2.18972
-0.00326907
0.365872
-0.00994934
0.918835
-0.0182455
1.3396
-0.0284207
1.66524
-0.041162
1.97361
-0.0573956
2.27993
-0.0789767
2.61785
-0.108072
2.98997
-0.148158
3.38545
-0.205262
3.79112
-0.28552
3.5137
-0.456819
2.88231
-0.904737
3.16054
-1.45936
4.21108
-1.72298
4.30862
-1.87659
3.75737
-1.97073
3.1415
-1.97341
2.55752
-1.90626
2.04408
1.60916
-1.87411
-0.00304481
0.368917
-0.0100499
0.92584
-0.0188875
1.34844
-0.0294604
1.67581
-0.0425126
1.98666
-0.0591565
2.29657
-0.0811911
2.63989
-0.110629
3.0194
-0.151166
3.42599
-0.207996
3.84795
-0.294253
3.59995
-0.497573
3.08563
-0.981928
3.64489
-1.42571
4.65485
-1.59391
4.47682
-1.66238
3.82583
-1.66782
3.14695
-1.52128
2.41098
-1.02191
1.54471
0.587254
-0.00262844
0.371545
-0.00977698
0.932989
-0.018988
1.35765
-0.030356
1.68718
-0.044579
2.00088
-0.0625797
2.31457
-0.0864055
2.66371
-0.118498
3.0515
-0.16281
3.4703
-0.225676
3.91081
-0.330079
3.70436
-0.583944
3.33949
-1.1183
4.17925
-1.47976
5.01631
-1.58026
4.57732
-1.57875
3.82433
-1.47676
3.04495
-1.23793
2.17216
-0.636833
0.943608
-0.049579
-0.00211364
0.373659
-0.0093389
0.940214
-0.0191444
1.36746
-0.0311466
1.69918
-0.0460895
2.01582
-0.0653205
2.33381
-0.0910268
2.68942
-0.125721
3.08619
-0.174423
3.51901
-0.243708
3.9801
-0.365697
3.82635
-0.676554
3.65035
-1.23304
4.73574
-1.49869
5.28197
-1.55904
4.63766
-1.53874
3.80403
-1.33717
2.84339
-0.788848
1.62383
-0.111512
0.266272
-0.161091
-0.00152537
0.375184
-0.00835989
0.947048
-0.0182501
1.37735
-0.0310045
1.71193
-0.0471104
2.03193
-0.06769
2.35439
-0.0951732
2.7169
-0.132608
3.12362
-0.184626
3.57102
-0.262016
4.05749
-0.410642
3.97497
-0.779253
4.01896
-1.31386
5.27035
-1.4933
5.46141
-1.52434
4.6687
-1.43791
3.7176
-1.10747
2.51295
-0.318688
0.835046
0.0267243
-0.0791405
-0.134367
-0.000604035
0.375788
-0.00678706
0.953231
-0.0171586
1.38772
-0.0305
1.72527
-0.0470888
2.04852
-0.0687452
2.37604
-0.0979885
2.74614
-0.137691
3.16333
-0.192717
3.62605
-0.278393
4.14316
-0.450822
4.1474
-0.881353
4.44949
-1.35531
5.7443
-1.47463
5.58073
-1.47916
4.67323
-1.26134
3.49978
-0.696766
1.94837
-0.0643524
0.202632
0.0315923
-0.175085
-0.102775
0.000795681
0.374993
-0.00411135
0.958138
-0.0142792
1.39789
-0.0282827
1.73928
-0.0458077
2.06604
-0.068689
2.39892
-0.0994235
2.77688
-0.141317
3.20522
-0.198994
3.68373
-0.293846
4.23801
-0.495197
4.34875
-0.974751
4.92905
-1.35376
6.12331
-1.41976
5.64673
-1.37731
4.63078
-1.0884
3.21087
-0.332789
1.19276
0.00107588
-0.131233
0.0135471
-0.187556
-0.0892275
0.00307529
0.371917
0.000120935
0.961093
-0.0107834
1.40879
-0.0251859
1.75368
-0.0426413
2.0835
-0.0662901
2.42257
-0.0982535
2.80884
-0.141675
3.24864
-0.202121
3.74417
-0.304596
4.34049
-0.526626
4.57078
-1.03125
5.43367
-1.31201
6.40407
-1.35399
5.68871
-1.22232
4.49911
-0.787536
2.77608
-0.0790763
0.484302
0.047296
-0.257605
0.0263951
-0.166655
-0.0628324
0.00518716
0.36673
0.00379724
0.962483
-0.00525777
1.41785
-0.0190409
1.76746
-0.0370412
2.1015
-0.0615234
2.44705
-0.0942821
2.8416
-0.138952
3.29331
-0.201249
3.80647
-0.310931
4.45017
-0.564103
4.82395
-1.0534
5.92297
-1.24804
6.59871
-1.26199
5.70266
-1.04933
4.28645
-0.470368
2.19712
-0.00744093
0.0213749
0.00454259
-0.269589
0.0121566
-0.174269
-0.0506758
0.00833324
0.358397
0.00956628
0.96125
0.00218621
1.42523
-0.0109144
1.78056
-0.0285333
2.11912
-0.0529168
2.47144
-0.085721
2.87441
-0.13035
3.33794
-0.194057
3.87018
-0.309729
4.56584
-0.577917
5.09214
-1.02555
6.3706
-1.1514
6.72457
-1.14073
5.69199
-0.891289
4.03701
-0.275225
1.58105
-0.0636226
-0.190228
-0.0362084
-0.297003
-0.0109527
-0.199525
-0.0616285
0.0121011
0.346296
0.0175538
0.955797
0.0131992
1.42958
0.00244882
1.79131
-0.0159864
2.13755
-0.039851
2.4953
-0.0719132
2.90647
-0.116017
3.38204
-0.179249
3.93341
-0.296774
4.68337
-0.574503
5.36987
-0.959472
6.75557
-1.03128
6.79637
-0.969535
5.63025
-0.701776
3.76925
-0.11426
0.993539
-0.0419322
-0.262556
-0.0324054
-0.30653
-0.0122295
-0.219701
-0.073858
0.017892
0.328404
0.0289899
0.944699
0.0272808
1.43129
0.0171611
1.80143
0.000779367
2.15394
-0.0204809
2.51656
-0.0505352
2.93652
-0.0924039
3.42391
-0.153331
3.99434
-0.270186
4.80022
-0.527926
5.62761
-0.83869
7.06633
-0.877698
6.83538
-0.785394
5.53795
-0.467694
3.45155
0.014184
0.51166
0.0353012
-0.283673
0.020647
-0.291876
0.00539593
-0.20445
-0.068462
0.0244896
0.303914
0.0431736
0.926015
0.0469819
1.42748
0.0401613
1.80825
0.0274548
2.16664
0.00746497
2.53655
-0.0203772
2.96436
-0.0585446
3.46208
-0.11489
4.05068
-0.222213
4.90755
-0.447077
5.85248
-0.674099
7.29336
-0.718529
6.87981
-0.609278
5.4287
-0.277927
3.1202
0.0285265
0.205207
0.0353089
-0.290455
0.0402554
-0.296822
0.0216995
-0.185894
-0.0467625
0.0336987
0.270216
0.0625214
0.897192
0.0725444
1.41746
0.0698154
1.81098
0.0607743
2.17568
0.044339
2.55299
0.0210337
2.98767
-0.0122721
3.49539
-0.0607243
4.09914
-0.149629
4.99645
-0.317995
6.02084
-0.464197
7.43956
-0.511521
6.92713
-0.438087
5.35526
-0.134568
2.81668
-0.0099428
0.0805819
-0.00745982
-0.292938
0.0234351
-0.327717
0.0398137
-0.202273
-0.00694884
0.043328
0.226888
0.0853676
0.855153
0.105604
1.39722
0.110005
1.80658
0.1059
2.17979
0.0938285
2.56506
0.0767987
3.0047
0.0520034
3.52018
0.0109323
4.14021
-0.0439824
5.05136
-0.152794
6.12965
-0.232146
7.51891
-0.259473
6.95446
-0.299347
5.39514
-0.21427
2.7316
-0.380377
0.246689
-0.357789
-0.315526
-0.208793
-0.476713
-0.0337976
-0.377267
-0.0407465
0.0546021
0.172286
0.114313
0.795442
0.148244
1.36329
0.160036
1.79479
0.161851
2.17797
0.155621
2.57129
0.146424
3.0139
0.132302
3.5343
0.11323
4.15928
0.0862263
5.07837
0.0813775
6.1345
0.0709822
7.5293
-0.0038572
7.0293
-0.171336
5.56261
-0.417153
2.97742
-0.750969
0.580505
-0.736131
-0.330365
-0.539294
-0.67355
-0.245174
-0.671387
-0.28592
0.0582567
0.114029
0.143793
0.709906
0.197626
1.30946
0.223474
1.76894
0.234999
2.16645
0.236385
2.5699
0.235956
3.01432
0.234481
3.53578
0.236061
4.1577
0.246135
5.06829
0.349658
6.03098
0.468074
7.41089
0.462608
7.03477
0.383943
5.64128
0.00796608
3.3534
-0.486921
1.07539
-0.739712
-0.0775732
-0.65244
-0.760822
-0.358266
-0.965562
-0.644186
0.0510036
0.0630252
0.173196
0.587714
0.259559
1.22309
0.300668
1.72783
0.321473
2.14564
0.332609
2.55877
0.341755
3.00518
0.356519
3.52102
0.386177
4.12804
0.445024
5.00945
0.68863
5.78737
1.05986
7.03966
1.3827
6.71193
1.62416
5.39982
1.31632
3.66123
0.682026
1.70969
0.160083
0.44437
-0.122464
-0.478276
-0.182283
-0.905742
-0.82647
0.0366896
0.0263357
0.20386
0.420543
0.321579
1.10538
0.392496
1.65692
0.430197
2.10794
0.454111
2.53485
0.470951
2.98834
0.498421
3.49355
0.552879
4.07358
0.675435
4.88689
1.0449
5.41791
1.70875
6.37581
2.1027
6.31798
2.35523
5.14729
2.22305
3.79342
1.68868
2.24405
1.18892
0.944129
0.634584
0.0760637
0.221865
-0.493024
-0.604604
0.0312063
-0.0048706
0.224966
0.226783
0.405563
0.924779
0.50317
1.55931
0.553241
2.05787
0.590088
2.49801
0.617744
2.96068
0.65858
3.45271
0.737344
3.99482
0.894837
4.7294
1.30848
5.00427
2.08174
5.60254
2.48211
5.9176
2.689
4.94041
2.63612
3.8463
2.16142
2.71875
1.55551
1.55004
0.963568
0.668
0.42837
0.0421747
-0.176234
0.0281874
-0.033058
0.182376
0.0725943
0.457406
0.64975
0.624474
1.39224
0.702798
1.97955
0.749029
2.45177
0.786975
2.92274
0.825737
3.41395
0.896514
3.92404
1.03854
4.58737
1.32395
4.71886
2.02949
4.89701
2.39125
5.55584
2.52383
4.80783
2.4583
3.91183
2.14272
3.03433
1.59247
2.10029
1.0119
1.24857
0.415371
0.638705
0.239137
0.0125718
-0.0456298
0.0982795
-0.0131133
0.403765
0.344264
0.622301
1.17371
0.726708
1.87514
0.758494
2.41999
0.769079
2.91215
0.759632
3.4234
0.753777
3.9299
0.785074
4.55607
0.859672
4.64426
1.15149
4.60519
1.38977
5.31757
1.39125
4.80634
1.3152
3.98787
1.15149
3.19804
0.861473
2.39031
0.537404
1.57264
0.22427
0.951839
0.463407
-1.66733e-05
-0.0456131
0.0429703
-0.0561002
0.246628
0.140607
0.464731
0.955602
0.569476
1.77039
0.606233
2.38323
0.623242
2.89514
0.620174
3.42646
0.60911
3.94096
0.608573
4.55661
0.641228
4.6116
0.813914
4.4325
1.02717
5.10431
1.02892
4.8046
0.957747
4.05904
0.831463
3.32433
0.63151
2.59026
0.383055
1.8211
0.150066
1.18483
0.613473
0.0180038
-0.063617
0.0614107
-0.0995071
0.154768
0.0472494
0.324485
0.785886
0.420726
1.67415
0.459331
2.34463
0.47477
2.8797
0.479905
3.42133
0.476362
3.9445
0.472025
4.56095
0.477887
4.60574
0.581158
4.32923
0.729277
4.95619
0.728292
4.80559
0.657383
4.12995
0.554628
3.42708
0.414413
2.73048
0.243219
1.99229
0.0848627
1.34318
0.698336
0.0357103
-0.0993273
0.0801134
-0.14391
0.102106
0.0252572
0.183383
0.704609
0.257534
1.6
0.303049
2.29911
0.327087
2.85567
0.344914
3.4035
0.355623
3.9338
0.356573
4.56
0.350206
4.61211
0.401973
4.27746
0.499404
4.85876
0.496049
4.80894
0.433678
4.19232
0.353408
3.50735
0.253501
2.83038
0.135042
2.11075
0.03115
1.44708
0.729486
0.0339291
-0.133256
0.0594901
-0.169471
0.0244332
0.0603141
0.0320053
0.697037
0.0833142
1.54869
0.134881
2.24755
0.177545
2.813
0.212153
3.36889
0.240395
3.90555
0.252597
4.5478
0.24776
4.61694
0.2702
4.25503
0.326561
4.80239
0.318786
4.81672
0.269704
4.24141
0.205894
3.57116
0.131964
2.90431
0.0519838
2.19073
-0.00843994
1.5075
0.721046
0.0141119
-0.147368
-0.00258687