/*--------------------------------*- C++ -*----------------------------------*\
  =========                 |
  \\      /  F ield         | OpenFOAM: The Open Source CFD Toolbox
   \\    /   O peration     | Website:  https://openfoam.org
    \\  /    A nd           | Version:  9
     \\/     M anipulation  |
\*---------------------------------------------------------------------------*/
FoamFile
{
    format      ascii;
    class       volVectorField;
    location    "43";
    object      U;
}
// * * * * * * * * * * * * * * * * * * * * * * * * * * * * * * * * * * * * * //

dimensions      [0 1 -1 0 0 0 0];

internalField   nonuniform List<vector> 
2200
(
(0.878857 -0.0304135 0)
(1.0058 -0.0512809 0)
(1.00331 -0.0353909 0)
(1.00029 -0.0244291 0)
(0.999872 -0.0166537 0)
(1.00004 -0.010735 0)
(1.00006 -0.00687194 0)
(1.00005 -0.00424544 0)
(1.00004 -0.00227749 0)
(1.00017 -0.00071492 0)
(1.00005 0.000892614 0)
(1.00003 0.00250662 0)
(1.00005 0.00450598 0)
(1.00011 0.00710524 0)
(1.0001 0.0108451 0)
(0.999909 0.0166755 0)
(1.00027 0.0244106 0)
(1.0035 0.0349984 0)
(1.00595 0.0513611 0)
(0.879005 0.0303288 0)
(0.711985 -0.0327697 0)
(0.996633 -0.0630333 0)
(1.0333 -0.0561921 0)
(1.02488 -0.0464772 0)
(1.01586 -0.0361704 0)
(1.0096 -0.0264321 0)
(1.00586 -0.0181795 0)
(1.00371 -0.0114488 0)
(1.00252 -0.00606831 0)
(1.00197 -0.00152616 0)
(1.00198 0.00268456 0)
(1.00253 0.00714316 0)
(1.00366 0.0123431 0)
(1.00561 0.0189152 0)
(1.00932 0.0271581 0)
(1.01562 0.0368865 0)
(1.0247 0.0472962 0)
(1.03308 0.0576373 0)
(0.996653 0.0631577 0)
(0.711778 0.0329897 0)
(0.535475 -0.0238986 0)
(0.969862 -0.0569497 0)
(1.0564 -0.0547627 0)
(1.05222 -0.0487846 0)
(1.03624 -0.0404756 0)
(1.02444 -0.032286 0)
(1.01585 -0.0240513 0)
(1.01039 -0.0162071 0)
(1.00723 -0.00898637 0)
(1.00574 -0.00241915 0)
(1.00566 0.00389842 0)
(1.00706 0.0103517 0)
(1.0101 0.0173931 0)
(1.01564 0.0251046 0)
(1.0242 0.0332776 0)
(1.03603 0.0412513 0)
(1.05205 0.0493399 0)
(1.05633 0.0536491 0)
(0.969222 0.0575611 0)
(0.534431 0.023933 0)
(0.392204 -0.0136532 0)
(0.911725 -0.046416 0)
(1.0574 -0.0469274 0)
(1.06952 -0.0443787 0)
(1.05488 -0.0382558 0)
(1.03936 -0.0316164 0)
(1.02754 -0.0247706 0)
(1.01905 -0.0175385 0)
(1.01367 -0.010051 0)
(1.01101 -0.00249361 0)
(1.0109 0.0050982 0)
(1.01336 0.0124855 0)
(1.01859 0.0196967 0)
(1.02695 0.0266481 0)
(1.03856 0.032953 0)
(1.05406 0.039419 0)
(1.06844 0.0454762 0)
(1.05572 0.0481031 0)
(0.910119 0.0469163 0)
(0.390166 0.0137517 0)
(0.307484 -0.00452785 0)
(0.846471 -0.0324335 0)
(1.04921 -0.0400384 0)
(1.07928 -0.0383055 0)
(1.06803 -0.0336673 0)
(1.05159 -0.028116 0)
(1.03827 -0.0227694 0)
(1.02804 -0.0167058 0)
(1.02099 -0.00983125 0)
(1.01715 -0.00230768 0)
(1.0169 0.00553911 0)
(1.02035 0.0128652 0)
(1.0272 0.0194735 0)
(1.0372 0.0251409 0)
(1.05042 0.0302617 0)
(1.06681 0.035541 0)
(1.07782 0.0399188 0)
(1.04729 0.0415399 0)
(0.843191 0.03292 0)
(0.304137 0.00470774 0)
(0.263986 9.26089e-05 0)
(0.788668 -0.0201113 0)
(1.03322 -0.0315379 0)
(1.08345 -0.0321124 0)
(1.0772 -0.0288527 0)
(1.06071 -0.0239944 0)
(1.04718 -0.0195478 0)
(1.03629 -0.014502 0)
(1.02844 -0.0084562 0)
(1.02403 -0.00146189 0)
(1.02378 0.00590375 0)
(1.02767 0.0125857 0)
(1.03497 0.0181885 0)
(1.04553 0.0228204 0)
(1.05869 0.0266933 0)
(1.07494 0.0311236 0)
(1.0806 0.0339019 0)
(1.02964 0.0330658 0)
(0.783368 0.0206605 0)
(0.259394 9.10203e-05 0)
(0.23997 0.00106209 0)
(0.737884 -0.0123105 0)
(1.01338 -0.0250783 0)
(1.08381 -0.0269145 0)
(1.08278 -0.0246457 0)
(1.06765 -0.0204776 0)
(1.05414 -0.0165226 0)
(1.04335 -0.012096 0)
(1.03526 -0.0068306 0)
(1.03038 -0.000579756 0)
(1.02983 0.00605958 0)
(1.03385 0.0120394 0)
(1.0414 0.0167678 0)
(1.05171 0.0206341 0)
(1.06506 0.0240914 0)
(1.07987 0.0277038 0)
(1.0804 0.0294041 0)
(1.00818 0.026976 0)
(0.729892 0.0130493 0)
(0.23388 -0.000864296 0)
(0.225566 0.000949847 0)
(0.69483 -0.00809334 0)
(0.992519 -0.0208494 0)
(1.08189 -0.0232308 0)
(1.08669 -0.0214521 0)
(1.07316 -0.0179466 0)
(1.05961 -0.0141511 0)
(1.04904 -0.00992997 0)
(1.04113 -0.00502021 0)
(1.03635 0.000599804 0)
(1.03589 0.00649229 0)
(1.03956 0.0115978 0)
(1.04649 0.0158787 0)
(1.05637 0.0194263 0)
(1.06958 0.0225346 0)
(1.08234 0.0253084 0)
(1.07623 0.0263569 0)
(0.984255 0.0231391 0)
(0.68337 0.0090145 0)
(0.217707 -0.000733077 0)
(0.215855 0.000605037 0)
(0.659214 -0.00574501 0)
(0.972113 -0.0178463 0)
(1.07913 -0.0205732 0)
(1.08978 -0.0190478 0)
(1.07789 -0.0159716 0)
(1.0645 -0.0124061 0)
(1.05404 -0.00827799 0)
(1.04622 -0.00355583 0)
(1.0412 0.00166222 0)
(1.04016 0.00699777 0)
(1.04358 0.0117592 0)
(1.05046 0.0156492 0)
(1.06017 0.0188675 0)
(1.07304 0.0216476 0)
(1.0842 0.0239052 0)
(1.07197 0.024471 0)
(0.960821 0.0205942 0)
(0.643838 0.00689371 0)
(0.205856 -0.000367838 0)
(0.208493 0.000280705 0)
(0.630187 -0.00426787 0)
(0.952277 -0.0151376 0)
(1.07558 -0.0181623 0)
(1.09292 -0.0169808 0)
(1.08245 -0.0141964 0)
(1.06897 -0.0106809 0)
(1.05854 -0.00662925 0)
(1.05082 -0.00199868 0)
(1.04604 0.00305202 0)
(1.04513 0.00796492 0)
(1.04807 0.0123663 0)
(1.05402 0.0159607 0)
(1.06329 0.0189695 0)
(1.07609 0.0213716 0)
(1.08496 0.0230524 0)
(1.06482 0.023073 0)
(0.936342 0.018559 0)
(0.609683 0.00569579 0)
(0.195818 3.45972e-06 0)
(0.202678 8.97279e-05 0)
(0.607158 -0.00316099 0)
(0.935053 -0.0125915 0)
(1.07248 -0.015724 0)
(1.09569 -0.0146898 0)
(1.08676 -0.0121578 0)
(1.07343 -0.00886704 0)
(1.06285 -0.00503725 0)
(1.05491 -0.000524254 0)
(1.04964 0.00437065 0)
(1.04798 0.00907777 0)
(1.0506 0.0132135 0)
(1.05696 0.0165457 0)
(1.06616 0.0190669 0)
(1.07844 0.0211663 0)
(1.0857 0.02246 0)
(1.059 0.0219922 0)
(0.913879 0.0168237 0)
(0.580652 0.00493006 0)
(0.186751 0.000268827 0)
(0.19791 5.2056e-06 0)
(0.588279 -0.00232542 0)
(0.918275 -0.0104433 0)
(1.06883 -0.0137196 0)
(1.09893 -0.0127518 0)
(1.09138 -0.0100766 0)
(1.07777 -0.00668974 0)
(1.06685 -0.0029289 0)
(1.05854 0.00125189 0)
(1.05301 0.00593173 0)
(1.05133 0.0105649 0)
(1.05365 0.0143907 0)
(1.05907 0.017159 0)
(1.06825 0.0193484 0)
(1.0806 0.0210128 0)
(1.08559 0.0219757 0)
(1.04979 0.0210398 0)
(0.889889 0.0153209 0)
(0.5543 0.00445545 0)
(0.178007 0.000431896 0)
(0.19439 4.83384e-06 0)
(0.573865 -0.00154484 0)
(0.904634 -0.00804017 0)
(1.06635 -0.0111255 0)
(1.10221 -0.0101314 0)
(1.09602 -0.00760895 0)
(1.08233 -0.00416601 0)
(1.07101 -0.000579862 0)
(1.06224 0.00363199 0)
(1.05614 0.00818827 0)
(1.0537 0.0125697 0)
(1.05574 0.0157792 0)
(1.06181 0.0180777 0)
(1.07083 0.0198148 0)
(1.08267 0.0214281 0)
(1.08511 0.0219299 0)
(1.04265 0.0204904 0)
(0.868538 0.0142638 0)
(0.531459 0.00418211 0)
(0.169812 0.00052664 0)
(0.192194 3.78389e-05 0)
(0.563445 -0.000752029 0)
(0.892412 -0.00593169 0)
(1.06343 -0.00875311 0)
(1.10579 -0.00770018 0)
(1.10122 -0.00493495 0)
(1.08732 -0.0015722 0)
(1.07552 0.00210885 0)
(1.06634 0.00606905 0)
(1.05987 0.01036 0)
(1.05688 0.0144703 0)
(1.05806 0.017595 0)
(1.06306 0.0195363 0)
(1.07238 0.0208174 0)
(1.08378 0.0218238 0)
(1.08382 0.0220549 0)
(1.03101 0.0200638 0)
(0.84444 0.0133082 0)
(0.509255 0.00398416 0)
(0.161553 0.000569268 0)
(0.191387 8.68609e-05 0)
(0.555991 -0.000133553 0)
(0.882707 -0.00359387 0)
(1.06171 -0.00593035 0)
(1.10926 -0.00473906 0)
(1.10606 -0.00212766 0)
(1.09224 0.00149382 0)
(1.08001 0.00512719 0)
(1.0701 0.00936233 0)
(1.06279 0.0138139 0)
(1.05926 0.0176874 0)
(1.06021 0.0200839 0)
(1.0655 0.0215067 0)
(1.07442 0.0223998 0)
(1.08429 0.0228388 0)
(1.08186 0.0224322 0)
(1.02164 0.0198987 0)
(0.823667 0.0126702 0)
(0.489946 0.00390042 0)
(0.153893 0.000582151 0)
(0.192011 -7.55358e-06 0)
(0.552464 0.000895147 0)
(0.876019 -0.00150722 0)
(1.06024 -0.00329654 0)
(1.11288 -0.00176802 0)
(1.11124 0.00128171 0)
(1.09741 0.00486093 0)
(1.08487 0.00897071 0)
(1.07457 0.0132106 0)
(1.06647 0.017187 0)
(1.06165 0.0202172 0)
(1.06145 0.0224032 0)
(1.06575 0.0234908 0)
(1.07443 0.0239518 0)
(1.08359 0.0241646 0)
(1.07761 0.0234601 0)
(1.00718 0.0201012 0)
(0.799004 0.0123981 0)
(0.469437 0.00397514 0)
(0.145697 0.000621092 0)
(0.194112 0.000258691 0)
(0.553013 0.0015272 0)
(0.871864 0.000971195 0)
(1.0611 0.000242621 0)
(1.11751 0.00218247 0)
(1.11667 0.00514376 0)
(1.10291 0.00915843 0)
(1.09001 0.0133322 0)
(1.07898 0.0177908 0)
(1.06988 0.0220443 0)
(1.06475 0.0250484 0)
(1.06418 0.0265338 0)
(1.06776 0.0270621 0)
(1.0754 0.0268403 0)
(1.08272 0.0259771 0)
(1.07368 0.0244926 0)
(0.995579 0.0205419 0)
(0.77827 0.0125211 0)
(0.451374 0.00415596 0)
(0.137856 0.000673456 0)
(0.198156 0.000659755 0)
(0.556066 0.00236406 0)
(0.872589 0.00364842 0)
(1.06298 0.00357078 0)
(1.12254 0.00611546 0)
(1.1228 0.00977178 0)
(1.10871 0.0139107 0)
(1.09528 0.0184811 0)
(1.08352 0.023106 0)
(1.07333 0.0270986 0)
(1.06593 0.0294389 0)
(1.0631 0.0302362 0)
(1.06561 0.0300973 0)
(1.07326 0.029408 0)
(1.08006 0.0286305 0)
(1.06686 0.0263178 0)
(0.978463 0.0214778 0)
(0.752324 0.012777 0)
(0.430483 0.00435707 0)
(0.128871 0.000721862 0)
(0.204904 0.000857195 0)
(0.563782 0.00364088 0)
(0.876878 0.00625026 0)
(1.06753 0.00797412 0)
(1.12858 0.0112883 0)
(1.12935 0.0151097 0)
(1.11475 0.019871 0)
(1.1001 0.0247141 0)
(1.08672 0.0295919 0)
(1.07471 0.0339734 0)
(1.06669 0.0366621 0)
(1.06432 0.0371689 0)
(1.06643 0.0360419 0)
(1.07286 0.0341858 0)
(1.07694 0.0316023 0)
(1.05958 0.028472 0)
(0.963233 0.0228296 0)
(0.729975 0.0133544 0)
(0.411667 0.00471825 0)
(0.120159 0.000783416 0)
(0.213399 0.00101421 0)
(0.575573 0.00497075 0)
(0.885477 0.00958744 0)
(1.07418 0.0126867 0)
(1.13573 0.0166795 0)
(1.13702 0.0216774 0)
(1.12132 0.0271906 0)
(1.10543 0.0326585 0)
(1.09055 0.0378301 0)
(1.07677 0.0418606 0)
(1.06616 0.0432974 0)
(1.06054 0.0422427 0)
(1.06112 0.0402693 0)
(1.06755 0.0376655 0)
(1.07168 0.0356159 0)
(1.04958 0.0313449 0)
(0.942137 0.0243668 0)
(0.70132 0.014117 0)
(0.388747 0.00511739 0)
(0.109837 0.000817798 0)
(0.226352 0.0014052 0)
(0.595619 0.00704481 0)
(0.901782 0.0143641 0)
(1.08495 0.0195539 0)
(1.14474 0.0245886 0)
(1.14598 0.0297617 0)
(1.12939 0.0360541 0)
(1.11201 0.0421857 0)
(1.0952 0.0478061 0)
(1.07895 0.0518589 0)
(1.06639 0.0531105 0)
(1.06121 0.0518777 0)
(1.06152 0.0487797 0)
(1.06601 0.044964 0)
(1.06521 0.0403014 0)
(1.03742 0.034776 0)
(0.922035 0.0266474 0)
(0.676027 0.0154938 0)
(0.367338 0.00575758 0)
(0.0996408 0.000857496 0)
(0.24252 0.00198893 0)
(0.620804 0.00878018 0)
(0.923476 0.0187729 0)
(1.09931 0.0260977 0)
(1.1557 0.0323669 0)
(1.15674 0.0393468 0)
(1.13843 0.0466757 0)
(1.1194 0.0536559 0)
(1.10063 0.0597358 0)
(1.08222 0.0636652 0)
(1.06664 0.0635284 0)
(1.05683 0.0603346 0)
(1.05334 0.0555269 0)
(1.05688 0.0507334 0)
(1.05734 0.0462027 0)
(1.02348 0.0395226 0)
(0.895805 0.0296277 0)
(0.642778 0.0174118 0)
(0.339656 0.00644812 0)
(0.0871803 0.000870044 0)
(0.26504 0.00284142 0)
(0.655275 0.0125419 0)
(0.952441 0.0253254 0)
(1.11818 0.0353418 0)
(1.1694 0.0433413 0)
(1.16883 0.0515633 0)
(1.14846 0.0600472 0)
(1.12669 0.0680371 0)
(1.10465 0.074657 0)
(1.08243 0.0783647 0)
(1.06395 0.0776737 0)
(1.05399 0.0736997 0)
(1.05198 0.0682146 0)
(1.05372 0.0618197 0)
(1.04664 0.0543917 0)
(1.005 0.0455147 0)
(0.868845 0.0339727 0)
(0.611233 0.0200826 0)
(0.312087 0.00735735 0)
(0.0746263 0.000889078 0)
(0.296733 0.00372664 0)
(0.701584 0.0156722 0)
(0.991283 0.0332917 0)
(1.14305 0.0466266 0)
(1.18604 0.0566757 0)
(1.18305 0.0676256 0)
(1.15898 0.0777047 0)
(1.1339 0.0863974 0)
(1.10838 0.0927418 0)
(1.083 0.0953182 0)
(1.06147 0.0926204 0)
(1.0473 0.0864896 0)
(1.03998 0.0784638 0)
(1.03901 0.0702221 0)
(1.03361 0.0629456 0)
(0.984683 0.0528163 0)
(0.834156 0.0389047 0)
(0.568275 0.0230974 0)
(0.275484 0.00812039 0)
(0.0591952 0.000874586 0)
(0.333351 0.00718704 0)
(0.760139 0.0248157 0)
(1.03909 0.0463993 0)
(1.1736 0.0636886 0)
(1.20733 0.0763383 0)
(1.19927 0.0896745 0)
(1.17076 0.100754 0)
(1.14145 0.109685 0)
(1.11143 0.115439 0)
(1.08104 0.116432 0)
(1.05536 0.11159 0)
(1.03996 0.103189 0)
(1.03441 0.0938744 0)
(1.03366 0.0845048 0)
(1.01792 0.0739217 0)
(0.958053 0.06074 0)
(0.797159 0.0447504 0)
(0.525758 0.0262353 0)
(0.23975 0.00886867 0)
(0.0444485 0.000744875 0)
(0.414141 0.0108597 0)
(0.847181 0.0359157 0)
(1.10342 0.066958 0)
(1.21198 0.0890067 0)
(1.2323 0.103854 6.6939e-34)
(1.21751 0.119731 -3.00009e-34)
(1.1829 0.130846 0)
(1.14878 0.138523 0)
(1.11419 0.142055 0)
(1.07992 0.139887 0)
(1.05116 0.131972 0)
(1.03194 0.120668 0)
(1.02075 0.108853 0)
(1.01382 0.0963219 0)
(0.998686 0.0850139 0)
(0.929127 0.0704781 0)
(0.74987 0.0510052 0)
(0.46763 0.0291327 0)
(0.191305 0.00873397 0)
(0.0265707 0.000703308 0)
(0.485582 0.0260984 5.04307e-20)
(0.94827 0.0595768 -3.814e-20)
(1.17157 0.10068 0)
(1.25131 0.126331 2.92166e-20)
(1.25973 0.142051 -2.36873e-20)
(1.2349 0.159514 3.16533e-34)
(1.19345 0.168745 0)
(1.15374 0.17447 1.6682e-20)
(1.11343 0.175755 -5.46932e-20)
(1.0735 0.171302 1.11354e-20)
(1.03943 0.159789 0)
(1.01782 0.145185 -2.80875e-20)
(1.00799 0.130866 -3.35926e-20)
(1.00296 0.118263 5.87323e-20)
(0.972141 0.103402 -4.63908e-20)
(0.881697 0.0833475 0)
(0.682434 0.059042 -1.6775e-20)
(0.392877 0.0309485 0)
(0.138185 0.00913786 -9.23836e-20)
(0.00893776 0.000771237 1.08906e-19)
(0.521018 0.0538261 -6.59544e-21)
(1.01134 0.102601 1.16471e-19)
(1.22103 0.15095 -7.16072e-21)
(1.28457 0.174104 -7.36862e-20)
(1.28367 0.191364 -5.02006e-20)
(1.24968 0.206776 8.16112e-20)
(1.20209 0.213433 0)
(1.1568 0.216737 0)
(1.11127 0.215226 8.71995e-20)
(1.0662 0.206614 0)
(1.02776 0.19198 1.01809e-19)
(1.00156 0.175704 3.01365e-20)
(0.984835 0.160167 3.64854e-22)
(0.967348 0.143369 -6.42004e-20)
(0.936131 0.126943 0)
(0.836919 0.104587 0)
(0.625166 0.0718142 -2.74648e-19)
(0.342764 0.0375208 6.88792e-19)
(0.115873 0.0108125 -4.08408e-19)
(0.00107737 0.000625654 -4.81292e-19)
(0.528189 0.0763673 -6.97941e-20)
(1.0476 0.159483 2.62831e-20)
(1.25695 0.21111 1.39141e-20)
(1.31103 0.232778 1.289e-19)
(1.30257 0.248511 1.42952e-20)
(1.26092 0.25979 -2.1326e-19)
(1.20745 0.262638 7.23872e-20)
(1.15618 0.262719 0)
(1.10388 0.257931 -1.84747e-19)
(1.05219 0.247103 1.63261e-19)
(1.00846 0.230951 -2.74846e-19)
(0.978394 0.210679 1.28747e-19)
(0.961316 0.193265 -8.33246e-20)
(0.949193 0.176917 1.87666e-19)
(0.905714 0.15695 0)
(0.798403 0.126692 -6.87426e-20)
(0.593515 0.0872696 0)
(0.332944 0.0448969 3.79997e-19)
(0.116138 0.0155939 -9.01119e-19)
(0.00309894 0.000103222 5.64454e-19)
(0.52256 0.108265 2.04193e-19)
(1.06724 0.216411 -8.86616e-20)
(1.2789 0.276638 -1.85129e-20)
(1.32848 0.297647 0)
(1.31471 0.310911 -9.49025e-20)
(1.26757 0.316749 1.16862e-19)
(1.20949 0.31484 -7.74756e-20)
(1.15351 0.311068 0)
(1.09738 0.302336 1.31347e-19)
(1.04288 0.28762 -1.1479e-19)
(0.994526 0.265401 2.38395e-19)
(0.960291 0.245865 0)
(0.936712 0.226684 -1.77159e-19)
(0.910198 0.205911 9.98436e-20)
(0.871982 0.184301 2.52081e-19)
(0.771627 0.15438 -2.21801e-19)
(0.578423 0.109717 3.54158e-19)
(0.334718 0.0605467 -7.8369e-19)
(0.129335 0.0230038 4.9488e-19)
(0.0111322 0.00180812 -6.19105e-19)
(0.510275 0.132543 -7.69084e-20)
(1.0739 0.270258 5.53344e-20)
(1.28974 0.342121 -6.12997e-20)
(1.33798 0.362685 1.19114e-19)
(1.32062 0.373774 -1.10667e-19)
(1.2697 0.374907 3.72518e-20)
(1.20795 0.368607 3.65315e-21)
(1.14765 0.360753 -1.50107e-19)
(1.08639 0.348296 -1.37887e-19)
(1.02425 0.329728 -2.46684e-19)
(0.970685 0.307416 -5.12478e-19)
(0.933793 0.283894 -1.57628e-19)
(0.909397 0.262134 2.41583e-21)
(0.891528 0.242035 -3.4197e-19)
(0.844742 0.219146 -6.2205e-21)
(0.742738 0.180628 3.2274e-19)
(0.562404 0.130927 -9.75456e-20)
(0.337432 0.0766319 -5.66343e-20)
(0.142448 0.032226 0)
(0.0193585 0.00446066 1.31629e-18)
(0.493302 0.153271 0)
(1.06825 0.320258 -7.13843e-21)
(1.29237 0.405778 -1.19192e-20)
(1.34071 0.426898 -1.2737e-20)
(1.32069 0.436518 1.08089e-19)
(1.26711 0.433044 -8.63112e-20)
(1.20256 0.422444 8.47831e-20)
(1.13905 0.410743 2.46159e-19)
(1.07467 0.394224 -7.65784e-20)
(1.01154 0.37166 1.22466e-19)
(0.956886 0.344913 2.75413e-19)
(0.915012 0.318749 3.43429e-19)
(0.883335 0.295908 -2.06548e-19)
(0.852218 0.271688 3.69865e-19)
(0.812478 0.246119 -2.92976e-19)
(0.722388 0.210767 0)
(0.557596 0.155979 -7.40008e-19)
(0.346631 0.0961154 9.96026e-19)
(0.157237 0.0437569 7.43405e-20)
(0.0279246 0.00802213 -1.38974e-18)
(0.478716 0.173534 -5.13872e-21)
(1.05985 0.368372 2.434e-20)
(1.28984 0.466555 8.73232e-20)
(1.33867 0.488518 -1.0771e-19)
(1.31647 0.496865 8.80713e-20)
(1.26095 0.48962 -8.42177e-20)
(1.19442 0.475507 1.68642e-19)
(1.12857 0.459996 -7.44858e-20)
(1.0615 0.439689 -3.09435e-19)
(0.993943 0.414127 1.16469e-23)
(0.932197 0.383742 -2.98962e-19)
(0.887482 0.354433 -3.68827e-19)
(0.858832 0.327293 2.27717e-19)
(0.834801 0.305737 -1.32987e-19)
(0.788014 0.278776 3.17861e-19)
(0.697664 0.235579 0)
(0.543816 0.179683 -4.58404e-19)
(0.34874 0.114202 6.76976e-19)
(0.166767 0.0551516 1.2829e-18)
(0.0341263 0.0115679 -1.50922e-18)
(0.464258 0.191004 -2.12609e-20)
(1.0469 0.412808 4.09085e-21)
(1.28295 0.524145 -6.36211e-20)
(1.33253 0.547655 1.1187e-19)
(1.30862 0.555286 1.18034e-20)
(1.25178 0.544419 -1.65901e-19)
(1.18377 0.526822 -9.71699e-20)
(1.11595 0.507959 -9.41142e-20)
(1.04599 0.484139 -1.73906e-19)
(0.974773 0.454456 2.80252e-19)
(0.912725 0.419314 3.0275e-19)
(0.867127 0.387442 5.85314e-19)
(0.831972 0.362028 0)
(0.798877 0.332392 6.11711e-21)
(0.759316 0.303332 -8.71229e-19)
(0.680411 0.265453 2.03014e-19)
(0.537854 0.204052 9.88939e-19)
(0.352626 0.133925 -2.9172e-19)
(0.174327 0.0665022 6.08187e-19)
(0.0386791 0.0150301 -5.0741e-20)
(0.454595 0.209436 5.89184e-21)
(1.0354 0.455906 2.83991e-20)
(1.27393 0.579149 -3.23348e-20)
(1.32374 0.604018 1.329e-19)
(1.29839 0.610596 -1.86942e-19)
(1.24052 0.596644 1.65487e-19)
(1.17133 0.576396 1.0065e-19)
(1.1019 0.554561 2.82173e-19)
(1.03039 0.527812 3.50428e-19)
(0.958243 0.494883 -3.21916e-19)
(0.894351 0.458051 0)
(0.84347 0.423138 -2.20594e-19)
(0.808133 0.390521 2.53264e-19)
(0.78181 0.363387 3.18762e-19)
(0.737277 0.334213 -1.84247e-19)
(0.656594 0.287184 -4.49805e-19)
(0.521676 0.226322 -1.34384e-19)
(0.347669 0.14985 -1.50445e-21)
(0.175045 0.0757954 0)
(0.0405555 0.0173767 0)
(0.446158 0.225036 -5.51122e-20)
(1.02248 0.495658 0)
(1.26262 0.630578 -1.85619e-20)
(1.31264 0.657421 -5.38875e-21)
(1.28618 0.663419 2.09753e-19)
(1.2276 0.64666 -5.37803e-20)
(1.15758 0.623734 1.02103e-19)
(1.08705 0.599054 -1.9135e-19)
(1.01377 0.569151 2.65456e-19)
(0.938027 0.532598 -1.04653e-19)
(0.867812 0.49117 1.72885e-19)
(0.818335 0.45068 6.98796e-19)
(0.783574 0.419176 1.4036e-20)
(0.74671 0.387738 -3.32284e-19)
(0.709218 0.353819 6.14878e-19)
(0.637514 0.314248 4.23562e-21)
(0.510488 0.246278 1.43772e-19)
(0.341044 0.164711 -6.86155e-19)
(0.170524 0.0829117 7.0505e-19)
(0.0399774 0.0187147 -8.32982e-19)
(0.439422 0.243142 2.60675e-23)
(1.01086 0.534237 0)
(1.25066 0.679642 0)
(1.30028 0.708174 -9.2886e-21)
(1.27286 0.713101 -6.39536e-20)
(1.21372 0.693806 7.8553e-20)
(1.14319 0.66885 -1.92291e-19)
(1.07186 0.641896 0)
(0.997022 0.609862 -3.91043e-19)
(0.919956 0.571412 4.65409e-19)
(0.851718 0.526826 4.90881e-19)
(0.799798 0.483794 -2.56434e-19)
(0.757463 0.44639 -3.09396e-19)
(0.731212 0.414565 7.25008e-19)
(0.687439 0.38243 -2.18333e-19)
(0.614022 0.330016 -2.60827e-19)
(0.491752 0.263671 -1.5624e-19)
(0.331147 0.176078 -7.39526e-19)
(0.164643 0.0872078 1.07414e-19)
(0.0378384 0.019624 8.98112e-19)
(0.435189 0.261575 -2.97739e-20)
(0.999379 0.570165 -3.68124e-20)
(1.23757 0.72513 2.36172e-20)
(1.2868 0.755834 -1.40802e-22)
(1.25865 0.76024 -5.98406e-20)
(1.19919 0.738706 1.31006e-19)
(1.12815 0.711634 0)
(1.0558 0.68248 1.14788e-19)
(0.979463 0.647819 -9.05116e-20)
(0.900253 0.605538 7.75079e-19)
(0.825951 0.55608 -1.12053e-19)
(0.768188 0.509872 1.27134e-19)
(0.734252 0.471573 0)
(0.696004 0.435776 -3.9232e-19)
(0.659968 0.396758 4.74576e-19)
(0.594286 0.353232 0)
(0.477633 0.27744 -3.37064e-19)
(0.317956 0.18558 9.90816e-19)
(0.155853 0.0895289 1.16788e-19)
(0.0344243 0.0196791 -1.10516e-18)
(0.432871 0.27846 -7.86278e-20)
(0.989536 0.604975 1.01078e-19)
(1.22454 0.768508 0)
(1.27294 0.800901 -1.01516e-21)
(1.24412 0.804398 0)
(1.18428 0.780846 -1.65492e-19)
(1.11297 0.752205 0)
(1.04013 0.721265 0)
(0.962816 0.68512 -1.18545e-19)
(0.881419 0.641642 -7.36464e-19)
(0.806693 0.591014 -9.0638e-19)
(0.751295 0.540729 1.48183e-19)
(0.706525 0.496162 5.33779e-19)
(0.679768 0.457854 4.31449e-19)
(0.639089 0.421646 -1.52251e-18)
(0.570477 0.363133 -6.1176e-19)
(0.455621 0.28945 3.58017e-19)
(0.302783 0.190262 0)
(0.146064 0.0900461 1.00414e-18)
(0.0306571 0.0188201 -1.19037e-18)
(0.431296 0.294111 9.65622e-20)
(0.979508 0.637096 -1.19666e-19)
(1.21113 0.808502 0)
(1.25868 0.842922 -1.09145e-20)
(1.22931 0.846109 6.41049e-21)
(1.16937 0.820863 0)
(1.09785 0.790579 5.86665e-20)
(1.02435 0.757959 7.86464e-20)
(0.945642 0.719886 -2.23815e-19)
(0.862238 0.673293 9.78808e-20)
(0.783244 0.617649 0)
(0.72134 0.564443 6.13675e-19)
(0.682588 0.518737 4.78152e-21)
(0.644353 0.476225 2.32674e-19)
(0.610323 0.429914 2.76325e-19)
(0.548991 0.381471 0)
(0.439193 0.296536 -5.86304e-19)
(0.286667 0.193696 1.15116e-18)
(0.13571 0.0889584 -1.21747e-18)
(0.0268618 0.0176011 2.56324e-18)
(0.430129 0.309014 0)
(0.970638 0.668382 0)
(1.19828 0.84657 -5.68477e-20)
(1.24463 0.882566 0)
(1.21472 0.885061 0)
(1.15458 0.858288 -1.40678e-19)
(1.08301 0.826816 6.00783e-20)
(1.00913 0.792829 1.75308e-20)
(0.929304 0.753584 -5.14379e-20)
(0.843402 0.706356 0)
(0.762295 0.650588 -1.37506e-19)
(0.701131 0.593488 -5.00435e-19)
(0.653489 0.540341 -6.01941e-19)
(0.626643 0.493959 -2.41712e-19)
(0.588286 0.451278 2.99563e-19)
(0.524729 0.383818 -7.06463e-19)
(0.415361 0.302243 1.2616e-18)
(0.269658 0.192499 2.97676e-21)
(0.125326 0.0866148 -1.16845e-18)
(0.0235629 0.0161386 -1.72903e-19)
(0.429025 0.323593 0)
(0.961797 0.697582 -9.92364e-20)
(1.18548 0.881657 7.12717e-20)
(1.23061 0.919391 0)
(1.20023 0.921731 0)
(1.14012 0.893737 2.83799e-19)
(1.0685 0.86104 0)
(0.993977 0.82576 0)
(0.912706 0.785118 -4.90265e-19)
(0.825199 0.735671 1.34283e-19)
(0.741285 0.676 -1.21985e-18)
(0.673428 0.61516 0)
(0.629489 0.562318 -6.52102e-19)
(0.588937 0.510302 1.07266e-20)
(0.556885 0.452372 -9.617e-19)
(0.501287 0.395829 3.80269e-19)
(0.399271 0.300731 1.91991e-21)
(0.255503 0.190064 -1.3293e-18)
(0.116909 0.0831944 6.30273e-19)
(0.0203323 0.0144891 1.84996e-19)
(0.42808 0.337819 0)
(0.954036 0.726035 -1.42249e-19)
(1.1734 0.915175 7.53932e-20)
(1.21711 0.954181 8.63519e-20)
(1.18626 0.955914 -1.79572e-20)
(1.12602 0.926764 2.89665e-20)
(1.0544 0.893222 -3.76558e-20)
(0.97953 0.856983 4.76447e-19)
(0.897453 0.815516 5.24446e-19)
(0.807735 0.765827 1.02472e-18)
(0.720163 0.706697 1.0136e-18)
(0.651143 0.644142 1.77733e-19)
(0.597636 0.582796 9.38177e-19)
(0.5688 0.524682 5.78524e-19)
(0.532097 0.46988 6.90436e-19)
(0.475557 0.387856 -4.16572e-19)
(0.375304 0.296545 -4.85799e-19)
(0.242322 0.179098 5.69207e-19)
(0.111955 0.0817498 -3.37766e-19)
(0.0222645 0.0192695 5.98736e-19)
(0.427181 0.351637 2.03109e-19)
(0.946394 0.752509 2.22276e-19)
(1.16146 0.946064 4.46302e-20)
(1.20381 0.986407 1.62637e-20)
(1.17255 0.988031 2.46453e-20)
(1.11241 0.958012 -7.90402e-20)
(1.04084 0.923598 3.65538e-20)
(0.965584 0.886428 -2.05376e-20)
(0.882428 0.844106 -6.09564e-19)
(0.791295 0.793219 -1.11159e-18)
(0.700989 0.731194 7.04553e-20)
(0.625709 0.665748 0)
(0.574638 0.604815 0)
(0.527207 0.541114 -3.01442e-19)
(0.494761 0.46381 -1.12854e-18)
(0.446949 0.390628 8.97331e-19)
(0.363809 0.27514 5.32036e-19)
(0.24813 0.161216 0)
(0.124285 0.0569965 1.07719e-18)
(0.0158069 -0.00584853 -6.40148e-19)
(0.426423 0.364834 -1.0761e-19)
(0.939532 0.778039 9.55024e-20)
(1.15021 0.975601 -1.08955e-19)
(1.19114 1.0169 -8.34782e-20)
(1.15949 1.01793 -7.24615e-21)
(1.09932 0.987023 -2.50512e-20)
(1.02791 0.952068 0)
(0.952498 0.914323 -5.98464e-19)
(0.868596 0.871454 7.50487e-20)
(0.774974 0.820375 0)
(0.681036 0.759361 0)
(0.60353 0.694452 1.12844e-19)
(0.539474 0.625998 1.51345e-19)
(0.503391 0.554131 -3.25193e-19)
(0.463462 0.480735 8.10246e-19)
(0.411594 0.368634 -9.77632e-19)
(0.330905 0.254117 -1.13807e-18)
(0.249082 0.138977 1.00704e-18)
(0.17547 0.0946456 -3.84117e-19)
(0.113216 0.0809072 2.23662e-19)
(0.425541 0.377274 1.36961e-19)
(0.932675 0.80165 0)
(1.13911 1.0027 0)
(1.17875 1.04501 -2.20419e-20)
(1.14679 1.04596 1.78439e-20)
(1.08682 1.01445 -2.092e-20)
(1.01562 0.97891 1.59783e-19)
(0.939947 0.940536 6.1397e-19)
(0.85506 0.897143 1.10576e-18)
(0.7605 0.845599 -8.33197e-20)
(0.665059 0.783903 1.71742e-19)
(0.580108 0.716902 -1.00906e-18)
(0.518305 0.649711 -1.00258e-18)
(0.456998 0.574709 -1.74269e-19)
(0.412171 0.470894 0)
(0.367374 0.372689 -8.53609e-21)
(0.303071 0.189376 6.25589e-19)
(0.269631 0.0378701 -1.05489e-18)
(0.230711 -0.0813384 8.02201e-19)
(0.082798 -0.0967284 6.6612e-19)
(0.424668 0.389233 -3.0332e-19)
(0.926304 0.824323 -1.37546e-19)
(1.1286 1.02875 6.95416e-21)
(1.16693 1.07187 5.16191e-20)
(1.13465 1.07232 0)
(1.07471 1.04017 -9.07856e-20)
(1.0037 1.00441 -2.28303e-19)
(0.92791 0.965865 -8.57886e-22)
(0.842401 0.922349 -5.79608e-19)
(0.745627 0.871026 -8.1709e-20)
(0.645736 0.81037 7.58929e-20)
(0.558463 0.745734 8.86228e-19)
(0.48033 0.674454 9.78634e-19)
(0.429038 0.589962 1.69423e-19)
(0.374335 0.499043 8.66711e-19)
(0.296424 0.342926 0)
(0.18048 0.175828 0)
(0.00951698 0.215567 7.284e-19)
(-0.0770087 0.629435 -3.07024e-20)
(0.00588887 1.53278 -8.92877e-19)
(0.423609 0.40057 1.67929e-19)
(0.919994 0.845486 3.82689e-19)
(1.11819 1.05281 -5.19115e-19)
(1.15527 1.09688 2.54028e-19)
(1.12269 1.09749 -3.7599e-21)
(1.06293 1.06515 -4.66775e-20)
(0.992087 1.02925 0)
(0.916042 0.99059 -5.12519e-19)
(0.829797 0.947268 0)
(0.732291 0.896405 1.1539e-18)
(0.630977 0.836558 -9.18211e-20)
(0.536441 0.772189 1.02957e-19)
(0.461359 0.704672 1.11699e-18)
(0.375403 0.627108 -3.6689e-19)
(0.282697 0.499027 -4.41626e-19)
(0.201005 0.400241 0)
(0.0919667 0.517944 0)
(0.0272948 1.31814 0)
(0.0731717 2.45766 -4.14006e-19)
(0.101187 2.90808 -2.5433e-19)
(0.422428 0.411325 0)
(0.914054 0.865663 0)
(1.10837 1.07605 1.89931e-19)
(1.14423 1.12096 -2.05536e-19)
(1.11131 1.12129 8.458e-20)
(1.05154 1.08866 5.19325e-20)
(0.980864 1.05297 2.91806e-20)
(0.904807 1.01471 -2.27195e-20)
(0.81808 0.971965 8.13699e-20)
(0.718168 0.921946 -1.32425e-18)
(0.611933 0.863603 1.66749e-19)
(0.515383 0.803482 8.82605e-19)
(0.420178 0.737508 -1.11321e-18)
(0.345876 0.646289 -1.21757e-18)
(0.268579 0.56157 4.10355e-19)
(0.194323 0.692005 0)
(0.125777 1.54599 5.71233e-19)
(0.12602 2.68961 6.30593e-19)
(0.134111 3.08668 -7.05243e-19)
(0.125449 3.22159 7.60178e-19)
(0.421067 0.421698 0)
(0.908224 0.884436 3.42291e-19)
(1.09869 1.09735 -4.74946e-20)
(1.13341 1.14319 2.93815e-19)
(1.10018 1.14392 -8.87805e-20)
(1.04059 1.11145 0)
(0.970087 1.07597 0)
(0.893828 1.03803 0)
(0.806487 0.996024 4.61288e-19)
(0.706221 0.947394 6.13811e-20)
(0.599863 0.891834 0)
(0.496168 0.833579 -8.78202e-19)
(0.410745 0.773061 0)
(0.295959 0.697711 8.7172e-19)
(0.207326 0.766713 -5.86199e-19)
(0.15808 1.4597 -4.72178e-19)
(0.160153 2.67777 -1.11068e-18)
(0.18152 3.12667 -5.86507e-19)
(0.172295 3.26798 -8.00876e-19)
(0.158064 3.30835 6.14497e-19)
(0.419681 0.431215 -1.20114e-19)
(0.902685 0.9022 1.53705e-20)
(1.08959 1.11801 -5.31413e-20)
(1.12325 1.16476 -2.26052e-19)
(1.08967 1.16539 0)
(1.03007 1.13289 0)
(0.959721 1.09792 0)
(0.883532 1.06079 3.56356e-20)
(0.795867 1.01986 -5.82824e-19)
(0.693537 0.972783 0)
(0.582255 0.919064 0)
(0.479589 0.865872 0)
(0.367088 0.807396 0)
(0.306207 0.788873 6.35934e-19)
(0.273388 1.17113 1.56403e-18)
(0.253002 2.37655 4.64297e-19)
(0.265558 3.08306 9.38918e-19)
(0.259939 3.28448 -7.20416e-19)
(0.21082 3.35051 2.67193e-19)
(0.178017 3.36314 0)
(0.418158 0.440444 1.23883e-19)
(0.897095 0.91919 -7.63196e-19)
(1.08038 1.13738 -2.03946e-19)
(1.11305 1.18506 -4.43829e-20)
(1.07918 1.18631 2.04598e-20)
(1.01979 1.15423 -5.55826e-20)
(0.949649 1.11972 -4.95109e-21)
(0.873301 1.08313 -4.04252e-19)
(0.785188 1.04333 0)
(0.683022 0.998411 -7.71668e-20)
(0.573078 0.948953 7.0198e-20)
(0.463106 0.89892 0)
(0.375744 0.856659 0)
(0.319894 0.973901 -7.95356e-19)
(0.277186 1.85389 9.80173e-20)
(0.27298 2.94157 -3.48709e-19)
(0.29455 3.28889 7.28379e-19)
(0.267328 3.38777 5.30918e-19)
(0.201258 3.41234 -7.24221e-19)
(0.176301 3.42169 3.59834e-19)
(0.416307 0.449841 2.44534e-19)
(0.89114 0.936615 7.45866e-19)
(1.07095 1.15792 2.44349e-19)
(1.10269 1.20655 0)
(1.06855 1.20768 0)
(1.00922 1.17556 4.38584e-20)
(0.939327 1.14162 8.30652e-20)
(0.863258 1.10598 3.60825e-19)
(0.775219 1.06747 2.31475e-20)
(0.671645 1.02457 9.91653e-19)
(0.557602 0.977095 -1.16254e-18)
(0.4472 0.929143 0)
(0.369283 0.926841 0)
(0.336833 1.33854 -5.42164e-19)
(0.338327 2.48206 -6.51824e-19)
(0.381179 3.19852 0)
(0.405808 3.37168 -7.37644e-19)
(0.335957 3.43468 4.79834e-20)
(0.265757 3.47922 3.51501e-19)
(0.242944 3.50458 -1.17193e-19)
(0.414061 0.459655 -4.65994e-19)
(0.884508 0.954896 -3.58619e-19)
(1.06043 1.17866 0)
(1.09126 1.22808 0)
(1.05696 1.22987 0)
(0.998042 1.19811 0)
(0.928567 1.16452 -9.64374e-20)
(0.852591 1.12928 3.21032e-19)
(0.76449 1.09189 0)
(0.661866 1.05141 -9.03204e-19)
(0.551055 1.00884 2.08633e-18)
(0.442417 0.97454 8.49077e-20)
(0.389482 1.05747 1.1213e-19)
(0.388299 1.74812 8.84799e-19)
(0.404679 2.89823 -4.75674e-19)
(0.441965 3.3219 0)
(0.424873 3.44621 2.06393e-19)
(0.339026 3.53429 9.26572e-20)
(0.262267 3.59858 1.50246e-19)
(0.186968 3.57806 -1.00415e-20)
(0.411285 0.469864 2.22099e-19)
(0.877016 0.974065 -3.68223e-19)
(1.04927 1.2014 0)
(1.07929 1.25162 -6.46093e-20)
(1.04482 1.25299 2.19714e-19)
(0.986123 1.22091 0)
(0.917146 1.18766 0)
(0.841848 1.15328 -5.58821e-19)
(0.754416 1.11709 -5.83574e-20)
(0.651284 1.07863 8.87166e-19)
(0.53471 1.03758 -9.91494e-19)
(0.444655 1.01724 5.75838e-19)
(0.407717 1.23034 0)
(0.426487 2.18162 -4.69392e-19)
(0.469219 3.14503 3.07448e-19)
(0.531743 3.42608 1.92729e-19)
(0.524469 3.52312 0)
(0.460904 3.60567 -3.80334e-20)
(0.390002 3.64733 -4.1518e-19)
(0.308855 3.61856 -9.6654e-20)
(0.407928 0.480392 -4.44594e-19)
(0.868706 0.994412 5.27784e-19)
(1.03677 1.22421 3.62852e-19)
(1.06599 1.2749 -8.97058e-20)