/*--------------------------------*- C++ -*----------------------------------*\
  =========                 |
  \\      /  F ield         | OpenFOAM: The Open Source CFD Toolbox
   \\    /   O peration     | Website:  https://openfoam.org
    \\  /    A nd           | Version:  9
     \\/     M anipulation  |
\*---------------------------------------------------------------------------*/
FoamFile
{
    format      ascii;
    class       volScalarField;
    location    "5";
    object      p;
}
// * * * * * * * * * * * * * * * * * * * * * * * * * * * * * * * * * * * * * //

dimensions      [0 2 -2 0 0 0 0];

internalField   nonuniform List<scalar> 
2200
(
0.565217
0.544575
0.52931
0.514816
0.501617
0.490364
0.481112
0.473868
0.46851
0.466129
0.466174
0.468963
0.474553
0.481948
0.491313
0.502644
0.515898
0.530428
0.545713
0.566357
0.494868
0.491709
0.490807
0.48896
0.48535
0.480605
0.475483
0.47068
0.466818
0.464506
0.464635
0.467284
0.471385
0.476344
0.481578
0.48641
0.490077
0.491972
0.492908
0.496075
0.455663
0.457054
0.46145
0.463282
0.464388
0.464543
0.463431
0.46157
0.459601
0.458036
0.458289
0.460143
0.462356
0.464379
0.465611
0.465594
0.464573
0.462786
0.458413
0.457037
0.443069
0.444264
0.44676
0.44833
0.450125
0.451335
0.45161
0.451446
0.45109
0.450818
0.450986
0.451688
0.45234
0.452613
0.452479
0.451581
0.449854
0.448334
0.445882
0.444702
0.439674
0.440676
0.442664
0.444284
0.445836
0.447036
0.448216
0.448976
0.449297
0.449454
0.449865
0.450126
0.450201
0.449816
0.448862
0.447631
0.446178
0.4446
0.442664
0.441663
0.439358
0.439999
0.441074
0.44216
0.443298
0.44443
0.445502
0.446288
0.446831
0.447265
0.447722
0.447953
0.447807
0.447391
0.446605
0.445605
0.444569
0.443525
0.442456
0.441888
0.436859
0.436982
0.437365
0.437783
0.438439
0.439144
0.439862
0.440541
0.441153
0.441678
0.442069
0.442385
0.442415
0.442214
0.441827
0.441303
0.440743
0.440375
0.440004
0.439873
0.431786
0.431742
0.431786
0.431879
0.43212
0.432488
0.433011
0.433637
0.434324
0.435015
0.435561
0.435951
0.436115
0.436015
0.435799
0.435617
0.435489
0.435454
0.435447
0.43548
0.426756
0.426748
0.426798
0.426906
0.427093
0.427359
0.427726
0.428214
0.428818
0.429559
0.430314
0.430871
0.431222
0.431382
0.431417
0.431413
0.431405
0.431412
0.431427
0.431439
0.422027
0.422052
0.422106
0.422215
0.422435
0.422747
0.42315
0.423682
0.424368
0.425231
0.426235
0.426941
0.427356
0.427643
0.427816
0.427903
0.427931
0.427936
0.427932
0.427915
0.416844
0.416874
0.416948
0.417063
0.417253
0.417562
0.418012
0.418638
0.419471
0.420516
0.421704
0.422662
0.423317
0.423743
0.424008
0.424163
0.424245
0.424285
0.424301
0.424291
0.411198
0.411217
0.411298
0.411441
0.411655
0.411986
0.41249
0.413222
0.414232
0.415542
0.417003
0.418256
0.419147
0.419738
0.420125
0.420369
0.420518
0.420604
0.420648
0.420652
0.405277
0.405291
0.405371
0.40553
0.405792
0.406199
0.406813
0.407707
0.408957
0.410615
0.412469
0.414074
0.415233
0.416014
0.416535
0.41687
0.417077
0.417196
0.417256
0.417262
0.399025
0.399045
0.399142
0.39933
0.399647
0.40015
0.400914
0.402032
0.403605
0.405707
0.408078
0.410115
0.411584
0.412595
0.413271
0.413706
0.413975
0.41413
0.414206
0.414213
0.392298
0.392323
0.392444
0.392679
0.393076
0.393707
0.394671
0.396086
0.39808
0.400749
0.403761
0.406338
0.408204
0.409495
0.410358
0.410914
0.411258
0.411457
0.411555
0.411565
0.384957
0.384988
0.385143
0.385442
0.385949
0.386755
0.387985
0.389789
0.392329
0.395725
0.399547
0.402805
0.405164
0.406799
0.407891
0.408595
0.409031
0.409284
0.409409
0.409422
0.376833
0.376874
0.377073
0.377461
0.378115
0.379153
0.380734
0.383048
0.386298
0.390625
0.395471
0.399585
0.402559
0.404618
0.405993
0.40688
0.407428
0.407746
0.407903
0.40792
0.367699
0.367756
0.368019
0.368526
0.369379
0.370726
0.372771
0.375756
0.379926
0.385445
0.391581
0.396762
0.400498
0.403081
0.404805
0.405916
0.406603
0.407001
0.407197
0.407218
0.35724
0.357316
0.35766
0.358328
0.359447
0.361214
0.363884
0.367759
0.373132
0.380173
0.387922
0.394426
0.399105
0.402339
0.404496
0.405885
0.406743
0.40724
0.407484
0.407508
0.344979
0.345096
0.345575
0.346479
0.347987
0.350332
0.353853
0.358918
0.365858
0.374832
0.384581
0.392707
0.398543
0.402575
0.405267
0.407002
0.408076
0.4087
0.409007
0.409039
0.330426
0.330568
0.3312
0.332423
0.334458
0.337629
0.342345
0.34903
0.358025
0.369436
0.381631
0.391719
0.398965
0.403988
0.407355
0.409532
0.410878
0.411654
0.412031
0.412063
0.312293
0.312593
0.31359
0.31537
0.318277
0.322673
0.329085
0.337967
0.349624
0.364059
0.379192
0.391618
0.400554
0.406788
0.410999
0.413745
0.415461
0.416469
0.416972
0.417034
0.289971
0.290298
0.291685
0.294312
0.298531
0.304831
0.313729
0.325623
0.340703
0.358818
0.377401
0.392542
0.403472
0.411183
0.416479
0.419993
0.422217
0.42352
0.42415
0.424192
0.260019
0.260986
0.263625
0.267913
0.274401
0.283647
0.296082
0.311982
0.331335
0.353807
0.376323
0.394535
0.407756
0.417224
0.423874
0.428422
0.43141
0.433267
0.434265
0.434386
0.220705
0.222241
0.226699
0.23422
0.244852
0.258784
0.276265
0.297377
0.321883
0.349328
0.376183
0.397747
0.413509
0.425012
0.433339
0.439287
0.44342
0.446102
0.447596
0.447642
0.168638
0.169869
0.179174
0.192914
0.210035
0.23054
0.254709
0.282195
0.312631
0.345511
0.376913
0.40195
0.420402
0.434147
0.444413
0.452056
0.45777
0.461859
0.464139
0.463886
0.0941769
0.10224
0.122908
0.146487
0.172061
0.200717
0.23242
0.26679
0.30356
0.3423
0.378697
0.407748
0.429559
0.446321
0.459449
0.469878
0.47827
0.48557
0.490334
0.491007
0.00416185
0.0310591
0.0652358
0.0991945
0.134274
0.171722
0.210977
0.252194
0.295245
0.33986
0.381516
0.414977
0.440504
0.460596
0.476809
0.490158
0.50119
0.509857
0.518722
0.522841
-0.0531745
-0.0285197
0.0135824
0.0556234
0.0996308
0.145072
0.191422
0.239078
0.287828
0.337565
0.383608
0.420528
0.4487
0.470844
0.4886
0.503054
0.515001
0.523655
0.533187
0.536797
-0.093269
-0.0701792
-0.0250159
0.0212805
0.070835
0.121874
0.173972
0.227004
0.280522
0.334466
0.383931
0.423353
0.453221
0.476436
0.494774
0.509417
0.521297
0.530608
0.538966
0.541644
-0.123887
-0.100047
-0.0527651
-0.00412256
0.0484286
0.102866
0.159059
0.216115
0.273357
0.330601
0.382685
0.423967
0.455034
0.478944
0.497629
0.512385
0.524175
0.533531
0.541257
0.544529
-0.148418
-0.123065
-0.0740876
-0.0234576
0.0310047
0.087802
0.146829
0.20673
0.266689
0.326346
0.380379
0.42315
0.45526
0.479835
0.4989
0.513845
0.525638
0.535058
0.542625
0.545933
-0.167917
-0.142476
-0.0918419
-0.0395438
0.0167
0.0755871
0.136765
0.1987
0.26052
0.321767
0.377164
0.421215
0.4544
0.47975
0.499306
0.514525
0.526403
0.535826
0.543504
0.546545
-0.18432
-0.159229
-0.107097
-0.0535264
0.00440755
0.0651939
0.128142
0.19159
0.254598
0.31671
0.372949
0.418182
0.452622
0.478994
0.49925
0.514893
0.526981
0.536462
0.544159
0.547166
-0.198806
-0.173638
-0.120363
-0.0656409
-0.0062441
0.0561529
0.12055
0.185103
0.248729
0.311024
0.36758
0.413956
0.44999
0.477805
0.499122
0.515445
0.527929
0.537579
0.545297
0.54832
-0.212036
-0.186038
-0.131953
-0.0760869
-0.0154246
0.0483242
0.113868
0.17915
0.242855
0.304624
0.360887
0.40835
0.446466
0.476343
0.49925
0.516629
0.529754
0.539728
0.547482
0.550574
-0.22404
-0.197014
-0.142184
-0.0851939
-0.0233569
0.0415928
0.108047
0.173732
0.236987
0.29745
0.352635
0.400992
0.441814
0.474648
0.499922
0.518936
0.533098
0.543629
0.551488
0.554682
-0.234965
-0.206947
-0.151351
-0.0932583
-0.0302664
0.0358101
0.103027
0.168864
0.231183
0.289506
0.342656
0.391517
0.435747
0.47264
0.501383
0.522845
0.538444
0.54978
0.557959
0.561325
-0.245079
-0.216083
-0.159707
-0.100492
-0.0363465
0.0308222
0.0987304
0.164557
0.225519
0.280796
0.330658
0.379172
0.427446
0.469996
0.503827
0.528856
0.546606
0.559122
0.567781
0.571088
-0.254609
-0.224621
-0.167441
-0.107054
-0.0417452
0.0265166
0.0951097
0.160842
0.220124
0.271456
0.31662
0.363665
0.416495
0.466557
0.507573
0.537571
0.55827
0.57249
0.582157
0.585965
-0.263694
-0.232714
-0.174684
-0.11307
-0.0465679
0.0228212
0.0921373
0.157761
0.21515
0.261653
0.300334
0.343951
0.401324
0.46162
0.512522
0.549422
0.574325
0.59059
0.600759
0.604853
-0.272427
-0.240465
-0.181533
-0.11865
-0.0509166
0.0196555
0.089767
0.155325
0.210714
0.25159
0.281822
0.319562
0.381206
0.454732
0.518439
0.565185
0.595816
0.615009
0.626558
0.630988
-0.280892
-0.247962
-0.188079
-0.123899
-0.054894
0.0169328
0.0879513
0.153559
0.206982
0.241698
0.261472
0.290401
0.355163
0.444314
0.525614
0.585125
0.623549
0.646532
0.658451
0.662287
-0.289158
-0.255278
-0.194405
-0.128901
-0.0585836
0.0145801
0.0866508
0.152488
0.204051
0.232159
0.238914
0.254684
0.320266
0.429045
0.53356
0.611771
0.661696
0.687431
0.698779
0.699023
-0.29729
-0.26246
-0.200564
-0.133715
-0.0620513
0.0125214
0.085792
0.152085
0.201981
0.223354
0.215174
0.213361
0.274652
0.407412
0.541801
0.643722
0.708763
0.739733
0.74575
0.743566
-0.305349
-0.269551
-0.206588
-0.138381
-0.0653576
0.0106707
0.0852804
0.152324
0.20093
0.215665
0.190433
0.16601
0.215215
0.375324
0.547355
0.676635
0.760434
0.798513
0.788542
0.715487
-0.313295
-0.276588
-0.212531
-0.142964
-0.0685855
0.00893745
0.0850436
0.153187
0.200952
0.208921
0.163899
0.108019
0.139909
0.32927
0.550644
0.720329
0.827054
0.889991
0.943951
1.01051
-0.321105
-0.283651
-0.218496
-0.147608
-0.0719066
0.00713853
0.0849005
0.154495
0.202063
0.203551
0.13573
0.0364862
0.0341484
0.2563
0.543954
0.748753
0.84926
0.88492
0.880807
0.870541
-0.328674
-0.290729
-0.224491
-0.152343
-0.0753614
0.00520796
0.0847312
0.156078
0.204281
0.200265
0.10655
-0.0502976
-0.1151
0.137444
0.498208
0.728502
0.808888
0.775614
0.692601
0.668216
-0.336013
-0.297766
-0.230536
-0.157205
-0.0790085
0.00306052
0.0844271
0.157838
0.207579
0.199711
0.0787811
-0.152726
-0.323131
-0.0603267
0.39337
0.626893
0.637898
0.564361
0.456457
0.442945
-0.343217
-0.304737
-0.23664
-0.162234
-0.0829256
0.000626714
0.0839213
0.159681
0.211906
0.202678
0.0562985
-0.285765
-0.618105
-0.360015
0.152099
0.362245
0.383964
0.283548
0.179353
0.167743
-0.350607
-0.311862
-0.243002
-0.167626
-0.0872737
-0.00219186
0.08311
0.161487
0.217141
0.210189
0.0354199
-0.432051
-0.965768
-0.743519
-0.236082
-0.0324219
-0.0112766
-0.0894106
-0.18617
-0.180293
-0.358747
-0.319608
-0.249982
-0.173658
-0.0921856
-0.00548205
0.0819273
0.163253
0.223088
0.220952
0.0252876
-0.54721
-1.25708
-1.1241
-0.675372
-0.444324
-0.442859
-0.507788
-0.59297
-0.568524
-0.367952
-0.328286
-0.257786
-0.180442
-0.0976883
-0.00927215
0.0803787
0.164997
0.2298
0.232112
0.0352745
-0.603018
-1.37957
-1.34625
-0.952472
-0.781018
-0.82334
-0.963458
-1.10431
-1.08268
-0.378315
-0.338053
-0.266536
-0.188058
-0.103863
-0.0136392
0.0783874
0.166559
0.237152
0.24749
0.0645212
-0.571721
-1.30112
-1.33069
-1.07082
-1.05368
-1.15092
-1.39783
-1.73374
-1.80402
-0.390037
-0.349121
-0.276421
-0.196658
-0.110884
-0.018758
0.0757309
0.167554
0.24435
0.267484
0.106439
-0.456886
-1.07705
-1.15315
-1.09142
-1.23324
-1.39527
-1.73368
-2.4244
-3.0499
-0.403478
-0.361708
-0.287601
-0.206392
-0.11895
-0.0248621
0.0720859
0.167414
0.250141
0.28626
0.15797
-0.293489
-0.789725
-0.926822
-1.05119
-1.34664
-1.60231
-1.89627
-2.65863
-4.82772
-0.418933
-0.376072
-0.300318
-0.217513
-0.128333
-0.0322417
0.0671175
0.165749
0.254074
0.302995
0.215194
-0.114219
-0.498205
-0.696155
-0.962595
-1.36459
-1.65806
-1.78563
-1.87593
-2.41714
-0.43661
-0.392602
-0.315023
-0.23053
-0.13956
-0.0414831
0.0602069
0.161983
0.255682
0.317798
0.27436
0.0638548
-0.212955
-0.465324
-0.799764
-1.26214
-1.61986
-1.75025
-1.73002
-1.77717
-0.456771
-0.4116
-0.332088
-0.245824
-0.153016
-0.0529489
0.051002
0.155723
0.254326
0.32923
0.32849
0.219471
0.0430838
-0.231925
-0.598756
-1.07707
-1.51904
-1.77429
-1.79027
-1.78902
-0.479829
-0.433352
-0.351783
-0.263668
-0.168937
-0.0668582
0.0392356
0.146592
0.249497
0.336273
0.372199
0.338759
0.233898
-0.029859
-0.375638
-0.828571
-1.30594
-1.62257
-1.67068
-1.60114
-0.506184
-0.458
-0.374268
-0.284211
-0.187452
-0.0833774
0.0247319
0.134512
0.241345
0.338465
0.403349
0.421629
0.367342
0.126383
-0.174815
-0.546335
-0.9617
-1.23414
-1.29531
-1.20748
-0.53629
-0.485709
-0.399652
-0.307497
-0.208589
-0.102468
0.00771923
0.119943
0.230581
0.336307
0.422443
0.474718
0.457484
0.273192
0.0230171
-0.226289
-0.475146
-0.612356
-0.622376
-0.587464
-0.570341
-0.516373
-0.427983
-0.333518
-0.232189
-0.123821
-0.0114207
0.103321
0.217594
0.331106
0.432279
0.506021
0.52491
0.432871
0.272126
0.137509
0.0514576
0.00857946
0.00721575
0.0291823
-0.607745
-0.550059
-0.459055
-0.361787
-0.257804
-0.146988
-0.0322765
0.0851665
0.203375
0.323767
0.437
0.527007
0.578371
0.572277
0.520034
0.474841
0.466548
0.471812
0.48437
0.497151
-0.646318
-0.586322
-0.492372
-0.391564
-0.28482
-0.171396
-0.0540745
0.0665169
0.189335
0.315164
0.439597
0.54313
0.616205
0.660746
0.680918
0.693335
0.716639
0.745303
0.768053
0.776948
-0.68316
-0.624957
-0.526248
-0.421754
-0.3125
-0.196273
-0.0760409
0.048096
0.175108
0.306078
0.439615
0.553156
0.640293
0.706579
0.759153
0.800875
0.840825
0.875133
0.899489
0.909414
-0.718907
-0.66203
-0.5586
-0.451339
-0.339783
-0.220747
-0.0976149
0.0298226
0.160194
0.297388
0.436555
0.557085
0.653431
0.729716
0.793575
0.844711
0.888724
0.924646
0.9497
0.961223
-0.75187
-0.695932
-0.587479
-0.479264
-0.365248
-0.243389
-0.117726
0.0126845
0.146338
0.28879
0.431491
0.556118
0.656998
0.738163
0.806008
0.855501
0.899919
0.935405
0.961949
0.973838
-0.77912
-0.723806
-0.61167
-0.504216
-0.387012
-0.262526
-0.134852
-0.00200455
0.134769
0.279829
0.424546
0.550627
0.652127
0.734011
0.80056
0.852965
0.895794
0.929952
0.957435
0.968987
-0.7968
-0.74184
-0.630718
-0.52221
-0.402532
-0.276717
-0.147885
-0.0139875
0.124554
0.270555
0.415112
0.540286
0.640619
0.721439
0.786791
0.838727
0.881321
0.914724
0.94254
0.953837
-0.80203
-0.748552
-0.64046
-0.529152
-0.409913
-0.284219
-0.155989
-0.0228502
0.115301
0.260357
0.402002
0.524828
0.622891
0.701541
0.765282
0.816384
0.858054
0.890829
0.918657
0.929861
-0.78957
-0.739107
-0.633342
-0.523457
-0.406896
-0.283549
-0.15861
-0.0278968
0.10728
0.249206
0.38451
0.503543
0.59793
0.673881
0.735137
0.785255
0.825888
0.858372
0.886007
0.897445
-0.753773
-0.707869
-0.60644
-0.502043
-0.390573
-0.273658
-0.15412
-0.0294168
0.0995206
0.234766
0.365177
0.476699
0.565213
0.636859
0.694985
0.742891
0.782348
0.814096
0.841331
0.853159
-0.687502
-0.648222
-0.556021
-0.460666
-0.358913
-0.251842
-0.141453
-0.0262542
0.0933932
0.219069
0.340165
0.442234
0.522874
0.588141
0.64141
0.685841
0.723013
0.753814
0.780311
0.792984
-0.58644
-0.555228
-0.476902
-0.395764
-0.308552
-0.215784
-0.119174
-0.0171808
0.0897368
0.202301
0.31043
0.400487
0.470788
0.527017
0.57255
0.610293
0.641772
0.668137
0.690889
0.703174
-0.434849
-0.415966
-0.363631
-0.305784
-0.238934
-0.166122
-0.0877751
-0.00213688
0.0894965
0.187174
0.281652
0.359822
0.419806
0.466605
0.503343
0.532529
0.555723
0.57396
0.588615
0.596863
-0.25803
-0.250116
-0.226967
-0.195958
-0.155512
-0.107365
-0.0497182
0.0174946
0.0925527
0.175199
0.256593
0.323955
0.375024
0.413889
0.44322
0.465155
0.481051
0.492083
0.499187
0.502735
-0.120818
-0.117328
-0.108981
-0.0939895
-0.0749134
-0.0464725
-0.00775876
0.0410144
0.0991448
0.16634
0.234191
0.290392
0.332276
0.363041
0.384978
0.400058
0.409826
0.415842
0.419032
0.42035
-0.0318451
-0.0302374
-0.0261546
-0.018888
-0.0106505
0.00696605
0.031591
0.0651241
0.108356
0.161066
0.215847
0.261452
0.294876
0.318548
0.334609
0.345037
0.351419
0.355381
0.35738
0.358248
0.0216987
0.0207942
0.0216467
0.0258764
0.0308785
0.0437724
0.0605687
0.0843229
0.116444
0.157128
0.200512
0.236859
0.263247
0.281625
0.293953
0.30198
0.306896
0.310038
0.311368
0.311911
0.0508549
0.0495237
0.0495866
0.051896
0.0552843
0.0650803
0.077667
0.0959082
0.120665
0.152405
0.18672
0.215622
0.236623
0.251295
0.261201
0.267677
0.271521
0.273816
0.27453
0.274728
0.0684714
0.0678007
0.0680534
0.0694404
0.0717382
0.0785743
0.0879561
0.102145
0.12158
0.146698
0.174044
0.19715
0.213971
0.225722
0.233596
0.238649
0.241561
0.24321
0.243755
0.243893
0.0804876
0.0802361
0.0806194
0.0817508
0.0835823
0.0882459
0.0950987
0.105796
0.120832
0.140643
0.162436
0.180889
0.194273
0.203537
0.209657
0.213525
0.21576
0.217024
0.217502
0.217642
0.0880058
0.0879144
0.0882507
0.0893537
0.0909335
0.0943072
0.0994413
0.107471
0.118977
0.13444
0.151675
0.166303
0.176861
0.184114
0.18888
0.191885
0.193645
0.194638
0.195006
0.195127
0.0919009
0.0918766
0.0921592
0.0929519
0.0942978
0.0968764
0.100868
0.107034
0.115907
0.127951
0.141508
0.153043
0.161355
0.167059
0.170809
0.173176
0.174574
0.175363
0.175574
0.175675
0.0930162
0.0930199
0.093243
0.0938397
0.0949163
0.0968905
0.100008
0.104798
0.111707
0.121123
0.131783
0.140872
0.147422
0.151917
0.15487
0.156724
0.157812
0.158415
0.158656
0.158727
0.0921005
0.0921171
0.0922977
0.0927611
0.0936104
0.0951252
0.0975457
0.101263
0.10665
0.114024
0.122411
0.129572
0.13473
0.138265
0.140584
0.142035
0.142886
0.143358
0.143555
0.143611
0.0896205
0.0896399
0.0897848
0.0901481
0.090817
0.0919888
0.0938689
0.0967535
0.10095
0.106721
0.113312
0.118946
0.123
0.125776
0.127594
0.12873
0.129398
0.129767
0.129922
0.129965
0.0859085
0.085926
0.0860406
0.086325
0.0868501
0.0877615
0.0892263
0.0914707
0.0947419
0.099254
0.104426
0.108851
0.112034
0.114212
0.115638
0.116528
0.117051
0.117339
0.117459
0.117493
0.08123
0.0812444
0.0813341
0.0815557
0.081966
0.0826755
0.0838175
0.0855664
0.0881179
0.0916443
0.0956974
0.0991691
0.101666
0.103374
0.104492
0.105189
0.105597
0.105822
0.105914
0.10594
0.0758035
0.0758152
0.0758854
0.0760581
0.076378
0.0769304
0.0778204
0.0791832
0.0811731
0.0839276
0.0871007
0.0898212
0.0917774
0.0931151
0.0939896
0.0945341
0.0948522
0.0950269
0.0950988
0.095118
0.0697956
0.0698049
0.0698586
0.0699923
0.0702409
0.0706701
0.0713621
0.0724223
0.0739722
0.0761214
0.0786018
0.0807293
0.0822581
0.0833024
0.0839843
0.0844082
0.0846555
0.0847914
0.0848471
0.0848617
0.0633233
0.0633306
0.063374
0.0634782
0.0636716
0.064005
0.0645425
0.0653663
0.0665711
0.0682434
0.0701763
0.0718351
0.0730265
0.07384
0.074371
0.0747009
0.0748929
0.0749983
0.0750408
0.0750521
0.0565123
0.0565174
0.0565491
0.05663
0.0567796
0.0570376
0.0574537
0.0580915
0.0590254
0.0603226
0.0618226
0.0631092
0.0640326
0.0646627
0.0650736
0.0653286
0.0654767
0.0655576
0.06559
0.065598
0.0494155
0.0494194
0.0494442
0.0495045
0.049618
0.0498151
0.050134
0.0506237
0.0513408
0.0523379
0.0534933
0.0544858
0.0551984
0.0556848
0.0560019
0.0561985
0.0563122
0.0563737
0.0563971
0.0564036
0.0421129
0.042115
0.0421349
0.0421827
0.0422705
0.0424212
0.0426644
0.0430376
0.0435842
0.0443436
0.0452228
0.0459794
0.0465222
0.0468921
0.0471325
0.0472808
0.0473658
0.0474115
0.0474293
0.0474335
0.0346644
0.0346667
0.0346781
0.0347105
0.0347733
0.0348836
0.0350636
0.0353405
0.0357469
0.0363134
0.0369705
0.0375343
0.0379384
0.038213
0.0383914
0.0385015
0.0385651
0.0385997
0.038613
0.0386156
0.027069
0.0270692
0.0270772
0.0271008
0.0271461
0.0272255
0.0273542
0.027552
0.0278414
0.0282443
0.0287121
0.0291256
0.0294186
0.0296176
0.0297466
0.0298258
0.0298708
0.0298943
0.0299018
0.0299041
0.0193989
0.0193998
0.019406
0.0194242
0.0194568
0.0195118
0.019599
0.0197326
0.0199295
0.0202051
0.020525
0.02079
0.0209821
0.0211123
0.0211954
0.0212461
0.021275
0.0212908
0.0212966
0.0212986
0.0116827
0.0116833
0.0116839
0.0116901
0.0117048
0.0117327
0.0117802
0.0118544
0.0119641
0.0121153
0.0123009
0.0124508
0.0125593
0.0126366
0.012689
0.0127218
0.0127409
0.0127514
0.0127553
0.0127564
0.00389824
0.00389529
0.00389272
0.00389209
0.00389395
0.00390041
0.00391354
0.00393512
0.00396776
0.00401655
0.00407845
0.00413193
0.00417112
0.00420215
0.00422712
0.00424312
0.00425128
0.00425402
0.00425192
0.00424935
-2.02253
-0.903566
-0.579762
-0.181929
0.113179
0.365043
0.578234
0.780131
0.984422
1.07003
-0.762853
-0.192899
-0.0957253
0.163753
0.362521
0.534334
0.685724
0.814817
0.868993
0.805615
-0.181314
0.114389
0.215029
0.381186
0.519674
0.640336
0.741658
0.813587
0.829132
0.832361
0.164916
0.351235
0.424836
0.54589
0.641907
0.725346
0.791198
0.835838
0.852009
0.872172
0.409029
0.536206
0.587519
0.677874
0.748462
0.805457
0.851303
0.881348
0.893627
0.922731
0.590212
0.686002
0.735738
0.797237
0.847266
0.886061
0.915492
0.936735
0.949671
0.973741
0.746815
0.817616
0.852117
0.890192
0.92261
0.948643
0.967566
0.986161
0.999328
1.02505
0.871871
0.915259
0.93718
0.96183
0.983969
1.00337
1.01996
1.03823
1.05462
1.07853
0.969939
1.00035
1.01416
1.02988
1.04773
1.06622
1.08387
1.1037
1.11817
1.14127
1.05589
1.07952
1.09436
1.10897
1.12575
1.14253
1.15805
1.17452
1.18588
1.20431
1.14834
1.16715
1.18319
1.19531
1.20729
1.21966
1.23149
1.24257
1.25061
1.26726
1.24104
1.25293
1.26643
1.27787
1.28795
1.29699
1.30577
1.31444
1.31986
1.33261
1.32972
1.33852
1.35155
1.362
1.37045
1.37794
1.38495
1.39219
1.39406
1.40257
1.42558
1.43084
1.44031
1.44626
1.45013
1.45505
1.46087
1.46766
1.4708
1.48017
1.53876
1.52667
1.51991
1.51457
1.51189
1.51317
1.51963
1.53182
1.54632
1.57426
1.66252
1.60673
1.575
1.55629
1.548
1.54807
1.55721
1.57723
1.60886
1.67899
)
;

boundaryField
{
    wall-4
    {
        type            zeroGradient;
    }
    pressure-outlet-7
    {
        type            fixedValue;
        value           uniform 0;
    }
    velocity-inlet-6
    {
        type            zeroGradient;
    }
    velocity-inlet-5
    {
        type            zeroGradient;
    }
    frontAndBackPlanes
    {
        type            empty;
    }
}


// ************************************************************************* //
