/*--------------------------------*- C++ -*----------------------------------*\
  =========                 |
  \\      /  F ield         | OpenFOAM: The Open Source CFD Toolbox
   \\    /   O peration     | Website:  https://openfoam.org
    \\  /    A nd           | Version:  9
     \\/     M anipulation  |
\*---------------------------------------------------------------------------*/
FoamFile
{
    format      ascii;
    class       volVectorField;
    location    "5";
    object      U;
}
// * * * * * * * * * * * * * * * * * * * * * * * * * * * * * * * * * * * * * //

dimensions      [0 1 -1 0 0 0 0];

internalField   nonuniform List<vector> 
2200
(
(0.874945 -0.0315317 0)
(1.0007 -0.0541073 0)
(1.00686 -0.03875 0)
(1.00287 -0.0264136 0)
(1.0007 -0.0176817 0)
(0.999627 -0.0111813 0)
(0.999089 -0.00682266 0)
(0.998787 -0.0039604 0)
(0.998634 -0.00180897 0)
(0.999251 -0.000830357 0)
(0.99918 0.00101627 0)
(0.998616 0.00189102 0)
(0.998799 0.00405426 0)
(0.999105 0.00688874 0)
(0.999639 0.0112379 0)
(1.0007 0.0177267 0)
(1.00286 0.0264512 0)
(1.00682 0.0387771 0)
(1.00067 0.0541336 0)
(0.874933 0.0315299 0)
(0.699872 -0.0292259 0)
(0.995877 -0.0539975 0)
(1.03261 -0.0482397 0)
(1.02408 -0.0411263 0)
(1.01448 -0.0326544 0)
(1.00773 -0.0247391 0)
(1.00339 -0.0177458 0)
(1.00108 -0.0118661 0)
(1.00012 -0.00674825 0)
(1.00035 -0.0017249 0)
(1.0003 0.00227874 0)
(0.999954 0.0073024 0)
(1.00094 0.0123236 0)
(1.00327 0.0181043 0)
(1.00762 0.0250159 0)
(1.0144 0.0328656 0)
(1.02401 0.0412845 0)
(1.0326 0.0483533 0)
(0.995789 0.0540617 0)
(0.699795 0.029254 0)
(0.582723 -0.0137742 0)
(0.982955 -0.0375588 0)
(1.05104 -0.0299921 0)
(1.04888 -0.0311416 0)
(1.03611 -0.0286009 0)
(1.02461 -0.0246138 0)
(1.01613 -0.0197186 0)
(1.01041 -0.0141233 0)
(1.00703 -0.0084125 0)
(1.0055 -0.00243704 0)
(1.00546 0.00313728 0)
(1.00693 0.00906432 0)
(1.0103 0.014677 0)
(1.01601 0.0201763 0)
(1.02449 0.0249857 0)
(1.03598 0.0288872 0)
(1.04871 0.031353 0)
(1.05082 0.0301464 0)
(0.982632 0.0376408 0)
(0.582334 0.0137868 0)
(0.506438 -0.00640756 0)
(0.962973 -0.021518 0)
(1.05284 -0.0174321 0)
(1.05461 -0.0196103 0)
(1.04467 -0.0182346 0)
(1.03591 -0.01667 0)
(1.02894 -0.014341 0)
(1.02344 -0.0110306 0)
(1.01949 -0.0068899 0)
(1.01709 -0.00190528 0)
(1.01699 0.00340567 0)
(1.01924 0.00829157 0)
(1.02306 0.0122302 0)
(1.02847 0.0153219 0)
(1.03535 0.0174145 0)
(1.04409 0.0188122 0)
(1.05404 0.0200132 0)
(1.05226 0.0177108 0)
(0.962504 0.0216489 0)
(0.505996 0.00647269 0)
(0.470288 -0.00124812 0)
(0.938374 -0.00901944 0)
(1.04315 -0.0102645 0)
(1.04896 -0.0139445 0)
(1.04191 -0.0144458 0)
(1.03465 -0.0143439 0)
(1.02833 -0.0127909 0)
(1.02321 -0.0100513 0)
(1.0194 -0.00627889 0)
(1.0171 -0.00155783 0)
(1.01695 0.00334856 0)
(1.01903 0.00793455 0)
(1.02265 0.011498 0)
(1.02767 0.0139685 0)
(1.03396 0.0152486 0)
(1.04119 0.0150134 0)
(1.04821 0.0143719 0)
(1.04237 0.0106594 0)
(0.937373 0.00932677 0)
(0.469196 0.00134099 0)
(0.464988 0.000794658 0)
(0.925517 -0.000937841 0)
(1.02789 -0.00274513 0)
(1.03607 -0.00619607 0)
(1.03326 -0.00799279 0)
(1.02928 -0.00873817 0)
(1.02554 -0.00815881 0)
(1.02216 -0.00659498 0)
(1.01945 -0.00401527 0)
(1.01768 -0.000684945 0)
(1.01753 0.00308998 0)
(1.01901 0.00622447 0)
(1.02145 0.00840126 0)
(1.02446 0.00967722 0)
(1.02792 0.0100481 0)
(1.0318 0.00919276 0)
(1.03467 0.0070228 0)
(1.02638 0.00333832 0)
(0.923611 0.00121953 0)
(0.463175 -0.000770827 0)
(0.467211 0.000439492 0)
(0.924316 0.000324977 0)
(1.0238 -0.000384555 0)
(1.0333 -0.00241382 0)
(1.03234 -0.0038128 0)
(1.03003 -0.00492776 0)
(1.02717 -0.00523726 0)
(1.02416 -0.00456597 0)
(1.02153 -0.0028685 0)
(1.01979 -0.000292302 0)
(1.0196 0.00286747 0)
(1.02082 0.00554646 0)
(1.02309 0.00699782 0)
(1.02585 0.00725404 0)
(1.0284 0.00648371 0)
(1.03041 0.00495567 0)
(1.03112 0.00323071 0)
(1.02143 0.000881217 0)
(0.921522 -0.000119268 0)
(0.465066 -0.000421531 0)
(0.468759 -1.70484e-05 0)
(0.924621 2.6932e-05 0)
(1.02308 -0.000436552 0)
(1.03293 -0.00128874 0)
(1.03282 -0.00193965 0)
(1.03174 -0.00253253 0)
(1.0302 -0.00277903 0)
(1.02836 -0.00239344 0)
(1.02646 -0.00129112 0)
(1.0249 0.000642716 0)
(1.02451 0.00281631 0)
(1.02504 0.00433184 0)
(1.02611 0.00494637 0)
(1.02748 0.00486613 0)
(1.02894 0.00421172 0)
(1.03005 0.00319219 0)
(1.03011 0.00216982 0)
(1.02015 0.000967198 0)
(0.921333 0.000204557 0)
(0.466065 8.10245e-05 0)
(0.468395 -7.21186e-06 0)
(0.924258 -5.91775e-05 0)
(1.02174 -0.0002811 0)
(1.03146 -0.000648639 0)
(1.03157 -0.000992791 0)
(1.03078 -0.00121572 0)
(1.02976 -0.00115044 0)
(1.02857 -0.000738897 0)
(1.02723 0.000147269 0)
(1.02598 0.00147852 0)
(1.02534 0.00300131 0)
(1.02535 0.0038271 0)
(1.02609 0.00416081 0)
(1.02691 0.00396714 0)
(1.02766 0.0034142 0)
(1.02822 0.00261796 0)
(1.02792 0.00181346 0)
(1.01792 0.00102671 0)
(0.92023 0.000398217 0)
(0.465197 0.00011127 0)
(0.468437 7.27225e-05 0)
(0.923879 0.000161733 0)
(1.02094 0.000167809 0)
(1.03051 7.25253e-05 0)
(1.03061 -6.95089e-06 0)
(1.03004 -6.4899e-06 0)
(1.02926 0.00019816 0)
(1.02829 0.000623996 0)
(1.02713 0.00135686 0)
(1.02598 0.0023487 0)
(1.02528 0.00328384 0)
(1.02506 0.00379917 0)
(1.02516 0.00370403 0)
(1.02542 0.00337857 0)
(1.0257 0.00281169 0)
(1.02592 0.00212743 0)
(1.02552 0.00144907 0)
(1.01555 0.000831317 0)
(0.918125 0.000304851 0)
(0.464027 4.03924e-05 0)
(0.468958 0.000108741 0)
(0.924105 0.000245152 0)
(1.02104 0.000334634 0)
(1.03064 0.000458002 0)
(1.03086 0.000636422 0)
(1.03047 0.000910059 0)
(1.02983 0.0012837 0)
(1.02896 0.00178891 0)
(1.02786 0.0024461 0)
(1.02666 0.00323153 0)
(1.02566 0.00371613 0)
(1.02507 0.00394269 0)
(1.02479 0.00368069 0)
(1.02474 0.0031703 0)
(1.02474 0.00255401 0)
(1.02474 0.00191201 0)
(1.02421 0.00130626 0)
(1.0142 0.000771003 0)
(0.916924 0.0003063 0)
(0.46353 6.10646e-05 0)
(0.469879 0.000129184 0)
(0.924787 0.000354332 0)
(1.02157 0.000582226 0)
(1.03131 0.000881655 0)
(1.03166 0.00126962 0)
(1.03128 0.00171225 0)
(1.03067 0.00224828 0)
(1.02981 0.00287224 0)
(1.02867 0.00355491 0)
(1.02728 0.00422473 0)
(1.02598 0.00456081 0)
(1.02503 0.00439993 0)
(1.02443 0.00399791 0)
(1.02407 0.00335087 0)
(1.02386 0.00266169 0)
(1.02371 0.00199627 0)
(1.02307 0.00139178 0)
(1.01302 0.000862381 0)
(0.915773 0.000395077 0)
(0.462819 0.00010378 0)
(0.470862 0.00014983 0)
(0.925978 0.000477225 0)
(1.02266 0.000899501 0)
(1.03236 0.00137441 0)
(1.03265 0.0019165 0)
(1.03224 0.00253405 0)
(1.03159 0.00324371 0)
(1.03064 0.00402105 0)
(1.02934 0.00480049 0)
(1.02767 0.00544747 0)
(1.02595 0.00566328 0)
(1.02461 0.00530803 0)
(1.02369 0.00466473 0)
(1.02307 0.00385969 0)
(1.02267 0.00304735 0)
(1.0224 0.00228758 0)
(1.0217 0.00160857 0)
(1.01159 0.00101351 0)
(0.914343 0.000483785 0)
(0.461822 0.0001315 0)
(0.472162 0.0001952 0)
(0.927537 0.000628821 0)
(1.0241 0.00120951 0)
(1.03373 0.0018551 0)
(1.03396 0.00259165 0)
(1.03349 0.00342813 0)
(1.03274 0.00436091 0)
(1.03162 0.00534616 0)
(1.03007 0.00628381 0)
(1.02801 0.00697731 0)
(1.02579 0.00709415 0)
(1.02397 0.00655795 0)
(1.02269 0.00566887 0)
(1.02181 0.00465942 0)
(1.02123 0.00366533 0)
(1.02085 0.00274985 0)
(1.02008 0.00193895 0)
(1.0099 0.00122863 0)
(0.91262 0.000593368 0)
(0.460596 0.000163332 0)
(0.473867 0.000250842 0)
(0.9296 0.00081185 0)
(1.02603 0.0015708 0)
(1.03558 0.00241847 0)
(1.03574 0.00339157 0)
(1.03516 0.00449209 0)
(1.03424 0.00570249 0)
(1.03287 0.0069563 0)
(1.03094 0.00811363 0)
(1.02837 0.00890728 0)
(1.02552 0.00894264 0)
(1.02313 0.0081895 0)
(1.02143 0.00703229 0)
(1.02026 0.00575904 0)
(1.01949 0.00452082 0)
(1.01898 0.00339053 0)
(1.01813 0.00239437 0)
(1.00787 0.00152259 0)
(0.910519 0.000740529 0)
(0.459082 0.000205987 0)
(0.476069 0.000323115 0)
(0.932283 0.00104594 0)
(1.02856 0.00202701 0)
(1.03802 0.00312461 0)
(1.03808 0.00438909 0)
(1.03734 0.00581433 0)
(1.03618 0.00737234 0)
(1.03445 0.00896876 0)
(1.03201 0.0104149 0)
(1.02875 0.0113584 0)
(1.02511 0.0113182 0)
(1.02204 0.0103045 0)
(1.01984 0.00881536 0)
(1.01832 0.00720324 0)
(1.01732 0.00564773 0)
(1.01667 0.00423482 0)
(1.01571 0.00299282 0)
(1.00535 0.00190659 0)
(0.907901 0.000930436 0)
(0.457181 0.000259817 0)
(0.478907 0.000417911 0)
(0.935732 0.00135139 0)
(1.03181 0.00261985 0)
(1.04116 0.00403904 0)
(1.04108 0.00567112 0)
(1.04014 0.0075042 0)
(1.03865 0.00949855 0)
(1.03644 0.0115273 0)
(1.03333 0.0133406 0)
(1.02917 0.0144803 0)
(1.02453 0.0143538 0)
(1.02062 0.0130149 0)
(1.0178 0.0111055 0)
(1.01587 0.00906023 0)
(1.01459 0.00709738 0)
(1.01376 0.00531983 0)
(1.01269 0.00375976 0)
(1.0022 0.00239559 0)
(0.904617 0.00116948 0)
(0.454791 0.000326455 0)
(0.482596 0.000547833 0)
(0.94022 0.00175286 0)
(1.03606 0.00338616 0)
(1.04526 0.00520585 0)
(1.04499 0.00731225 0)
(1.04375 0.00966787 0)
(1.04182 0.0122236 0)
(1.03897 0.0148035 0)
(1.03497 0.0170787 0)
(1.02966 0.0184596 0)
(1.02376 0.0182176 0)
(1.01879 0.0164621 0)
(1.01523 0.0140162 0)
(1.01278 0.0114183 0)
(1.01116 0.00893548 0)
(1.01011 0.00669277 0)
(1.00889 0.00472751 0)
(0.998224 0.00301224 0)
(0.900481 0.00146978 0)
(0.451788 0.000410082 0)
(0.48742 0.000714825 0)
(0.945972 0.0023017 0)
(1.04144 0.00441894 0)
(1.05045 0.00679349 0)
(1.04994 0.00950034 0)
(1.04831 0.0125227 0)
(1.0458 0.0157796 0)
(1.0421 0.0190427 0)
(1.03694 0.0218772 0)
(1.03016 0.0235284 0)
(1.02268 0.0231117 0)
(1.01642 0.0208188 0)
(1.01193 0.017695 0)
(1.00885 0.0144024 0)
(1.00681 0.0112675 0)
(1.0055 0.00844044 0)
(1.00412 0.00596441 0)
(0.993245 0.00379747 0)
(0.89529 0.00185098 0)
(0.448015 0.0005128 0)
(0.493732 0.000968488 0)
(0.95362 0.00297192 0)
(1.04869 0.00572628 0)
(1.0574 0.008739 0)
(1.05651 0.0122804 0)
(1.05432 0.0161848 0)
(1.05097 0.0203787 0)
(1.04612 0.0245198 0)
(1.03942 0.0280378 0)
(1.03074 0.029983 0)
(1.02131 0.0293029 0)
(1.01345 0.026308 0)
(1.00782 0.0223177 0)
(1.00395 0.0181383 0)
(1.00138 0.0141665 0)
(0.99971 0.0105897 0)
(0.998072 0.00746206 0)
(0.986916 0.00474423 0)
(0.888721 0.00230241 0)
(0.443291 0.000643943 0)
(0.502333 0.0012716 0)
(0.963371 0.00417614 0)
(1.05765 0.007716 0)
(1.06606 0.0118008 0)
(1.06468 0.016294 0)
(1.06175 0.0212889 0)
(1.05729 0.0265735 0)
(1.05089 0.0317179 0)
(1.04222 0.0359683 0)
(1.03116 0.0381441 0)
(1.01931 0.0370401 0)
(1.0095 0.0331486 0)
(1.00249 0.0280985 0)
(0.997659 0.0228507 0)
(0.99446 0.0178803 0)
(0.992411 0.0134094 0)
(0.990539 0.00949747 0)
(0.979086 0.00606077 0)
(0.880571 0.00296666 0)
(0.437357 0.00080219 0)
(0.513568 0.00183798 0)
(0.977002 0.00505138 0)
(1.07032 0.00994848 0)
(1.07802 0.0150701 0)
(1.07577 0.021202 0)
(1.07162 0.0277842 0)
(1.06549 0.0346375 0)
(1.05695 0.041087 0)
(1.04567 0.0461803 0)
(1.03163 0.0485208 0)
(1.01691 0.0467885 0)
(1.00481 0.0417326 0)
(0.99612 0.0353438 0)
(0.990072 0.0287276 0)
(0.985998 0.0224328 0)
(0.983319 0.016733 0)
(0.980953 0.0117292 0)
(0.968942 0.00738211 0)
(0.869916 0.00351355 0)
(0.429853 0.00101937 0)
(0.529791 0.00256223 0)
(0.993776 0.00856213 0)
(1.08591 0.0144668 0)
(1.09302 0.0217085 0)
(1.08956 0.0292766 0)
(1.08366 0.0375179 0)
(1.0752 0.0458795 0)
(1.06376 0.0534931 0)
(1.04914 0.0591799 0)
(1.03149 0.0613357 0)
(1.01329 0.0586273 0)
(0.998424 0.0521375 0)
(0.987727 0.0442064 0)
(0.980222 0.0360824 0)
(0.975122 0.0283862 0)
(0.971775 0.0214433 0)
(0.969019 0.0153415 0)
(0.956655 0.00997634 0)
(0.857696 0.00501393 0)
(0.420752 0.00128789 0)
(0.553316 0.00386868 0)
(1.02063 0.00968291 0)
(1.10827 0.0191597 0)
(1.1133 0.0289401 0)
(1.10752 0.0395472 0)
(1.09879 0.0504835 0)
(1.08695 0.0609173 0)
(1.07166 0.0698373 0)
(1.05291 0.0759456 0)
(1.031 0.0775643 0)
(1.00898 0.0734547 0)
(0.991138 0.0651624 0)
(0.978185 0.0553874 0)
(0.968936 0.0453995 0)
(0.962474 0.0358059 0)
(0.958038 0.026915 0)
(0.9543 0.0189152 0)
(0.940408 0.0117315 0)
(0.838704 0.00544021 0)
(0.407732 0.00170732 0)
(0.583508 0.00749992 0)
(1.05003 0.0199996 0)
(1.13744 0.0309093 0)
(1.13968 0.0437209 0)
(1.13 0.0567592 0)
(1.11699 0.0697298 0)
(1.10037 0.0815073 0)
(1.08007 0.0909512 0)
(1.05627 0.0966267 0)
(1.02941 0.0969118 0)
(1.00296 0.0908381 0)
(0.98163 0.0804257 0)
(0.965996 0.0686451 0)
(0.954563 0.0568049 0)
(0.946274 0.0455432 0)
(0.940322 0.0351815 0)
(0.935366 0.0258295 0)
(0.92123 0.0174691 0)
(0.822295 0.00904747 0)
(0.395634 0.00235722 0)
(0.663033 0.0126457 0)
(1.10627 0.0282201 0)
(1.17532 0.0478901 0)
(1.17193 0.066762 0)
(1.15614 0.0833896 3.17397e-34)
(1.13697 0.0976626 -1.49701e-34)
(1.11403 0.109929 0)
(1.08768 0.11862 0)
(1.05819 0.122652 0)
(1.02608 0.120583 0)
(0.995197 0.111779 0)
(0.97046 0.0988278 0)
(0.952189 0.0849257 0)
(0.938572 0.0711881 0)
(0.928421 0.0580431 0)
(0.920856 0.0457315 0)
(0.914119 0.0339575 0)
(0.895365 0.0225829 0)
(0.78348 0.0113219 0)
(0.366906 0.00317585 0)
(0.71542 0.0313065 1.45613e-20)
(1.17062 0.0561668 -1.15649e-20)
(1.22132 0.0822048 0)
(1.20639 0.106301 1.25732e-20)
(1.18339 0.121057 -1.01571e-20)
(1.15682 0.135513 1.57936e-34)
(1.12709 0.146687 0)
(1.09436 0.153509 9.27347e-21)
(1.0588 0.155221 -3.10292e-20)
(1.02087 0.150396 6.47734e-21)
(0.984915 0.138764 0)
(0.955934 0.123454 -1.76615e-20)
(0.933893 0.107669 -2.1613e-20)
(0.916712 0.0922917 3.79559e-20)
(0.903017 0.0776703 -3.01589e-20)
(0.891801 0.0640927 0)
(0.881317 0.0521962 -1.1233e-20)
(0.859035 0.0380264 0)
(0.745422 0.028094 -6.19184e-20)
(0.346891 0.0117078 7.3446e-20)
(0.73144 0.0636893 -4.6269e-21)
(1.20697 0.110095 1.59796e-20)
(1.26265 0.138937 5.11269e-21)
(1.2397 0.155673 -2.0228e-20)
(1.20835 0.168648 -2.0782e-20)
(1.17402 0.181622 3.41581e-20)
(1.13742 0.190467 0)
(1.09809 0.195086 0)
(1.05617 0.194444 4.87664e-20)
(1.01195 0.187117 0)
(0.97008 0.173235 6.20856e-20)
(0.935894 0.156498 1.89463e-20)
(0.909257 0.140202 7.04582e-22)
(0.887762 0.125146 -4.13821e-20)
(0.869902 0.111641 0)
(0.854692 0.0996276 0)
(0.840822 0.0885773 -1.87031e-19)
(0.818794 0.081573 4.73854e-19)
(0.723553 0.0622268 -2.78812e-19)
(0.340679 0.0321582 -3.3637e-19)
(0.729078 0.109616 2.38594e-20)
(1.23554 0.183188 -3.41493e-21)
(1.29339 0.210859 2.15707e-21)
(1.26568 0.21804 3.44578e-20)
(1.22723 0.226753 1.31293e-20)
(1.18649 0.234772 -8.63233e-20)
(1.14365 0.239357 3.13598e-20)
(1.09828 0.240425 0)
(1.05071 0.236426 -1.01678e-19)
(1.0011 0.226058 9.55755e-20)
(0.954345 0.209828 -1.67782e-19)
(0.916162 0.191863 7.953e-20)
(0.8864 0.175426 -5.39251e-20)
(0.862418 0.16105 1.20713e-19)
(0.842657 0.148799 0)
(0.826124 0.138503 -4.53073e-20)
(0.811595 0.128847 0)
(0.789874 0.123364 2.62707e-19)
(0.703373 0.100864 -6.22293e-19)
(0.34016 0.0518772 3.93441e-19)
(0.715886 0.146507 -1.41759e-19)
(1.24567 0.251585 5.22904e-20)
(1.30917 0.282913 4.71566e-21)
(1.27962 0.285214 0)
(1.23735 0.289852 -2.95448e-20)
(1.19288 0.29189 3.79211e-20)
(1.14547 0.291543 -3.36096e-20)
(1.09549 0.288158 0)
(1.04342 0.280099 7.19028e-20)
(0.989521 0.266207 -6.65622e-20)
(0.939063 0.24733 1.42407e-19)
(0.89816 0.227931 0)
(0.866609 0.21105 -1.12764e-19)
(0.841557 0.196813 6.3624e-20)
(0.821309 0.184987 1.64303e-19)
(0.804736 0.175355 -1.44046e-19)
(0.790549 0.167038 2.37122e-19)
(0.770027 0.159337 -5.2884e-19)
(0.685833 0.137191 3.36252e-19)
(0.337246 0.0685881 -4.24273e-19)
(0.702502 0.181534 9.6602e-20)
(1.24567 0.316887 -7.10417e-20)
(1.3133 0.350972 1.0729e-20)
(1.28274 0.35111 -1.69898e-21)
(1.23914 0.352162 -1.32458e-20)
(1.19285 0.349168 1.05706e-20)
(1.14259 0.344461 2.92554e-21)
(1.08944 0.336573 -7.25603e-20)
(1.03401 0.324275 -7.31004e-20)
(0.97679 0.306555 -1.39228e-19)
(0.923574 0.284679 -3.04021e-19)
(0.880842 0.263477 -9.55518e-20)
(0.848253 0.245715 3.32957e-21)
(0.822704 0.231096 -2.15436e-19)
(0.80232 0.21914 -5.78989e-21)
(0.785835 0.209471 2.07183e-19)
(0.771896 0.201615 -6.32539e-20)
(0.752483 0.192611 -3.78247e-20)
(0.670361 0.16899 0)
(0.332538 0.0835767 8.8404e-19)
(0.692455 0.215318 0)
(1.24087 0.379299 2.23636e-20)
(1.31028 0.41563 1.14206e-20)
(1.27905 0.413829 -1.07447e-20)
(1.23508 0.411258 7.51764e-21)
(1.1875 0.40449 -2.75344e-20)
(1.13536 0.396148 3.5345e-20)
(1.08003 0.384172 1.20577e-19)
(1.0221 0.367796 -4.06965e-20)
(0.962417 0.346158 6.8572e-20)
(0.907241 0.321039 1.62261e-19)
(0.863342 0.297737 2.08575e-19)
(0.83016 0.278781 -1.25814e-19)
(0.804374 0.263464 2.30715e-19)
(0.783968 0.251093 -1.83397e-19)
(0.767595 0.241107 0)
(0.753809 0.233259 -4.7976e-19)
(0.735202 0.223471 6.4587e-19)
(0.655426 0.197449 4.88275e-20)
(0.32741 0.0980291 -9.22545e-19)
(0.685268 0.247359 -1.00517e-20)
(1.23368 0.437647 -1.63534e-19)
(1.30335 0.477178 -8.15131e-20)
(1.27178 0.47348 5.12583e-20)
(1.22745 0.467374 1.66872e-20)
(1.17856 0.457539 -2.36283e-20)
(1.12494 0.4459 6.63194e-20)
(1.06789 0.4302 -3.23723e-20)
(1.00806 0.409951 -1.59643e-19)
(0.946556 0.384402 2.34229e-21)
(0.890069 0.355907 -1.70647e-19)
(0.845536 0.330312 -2.16758e-19)
(0.812112 0.309967 1.38812e-19)
(0.78631 0.29375 -8.21601e-20)
(0.766029 0.280774 1.96296e-19)
(0.749875 0.270313 0)
(0.736313 0.26219 -2.93284e-19)
(0.71839 0.251894 4.33275e-19)
(0.641141 0.223045 8.39145e-19)
(0.322054 0.111697 -9.87874e-19)
(0.679679 0.278155 -3.32481e-19)
(1.22487 0.49207 1.62092e-19)
(1.29425 0.535158 8.33563e-20)
(1.26224 0.530213 -5.29266e-20)
(1.21747 0.520851 1.08248e-20)
(1.16732 0.508397 -4.33421e-20)
(1.11236 0.493625 -4.152e-20)
(1.05381 0.474423 -4.6221e-20)
(0.992422 0.450432 -8.98032e-20)
(0.929531 0.420986 1.49623e-19)
(0.872228 0.389021 1.69705e-19)
(0.827499 0.361004 3.4173e-19)
(0.794114 0.339151 0)
(0.768467 0.32191 3.90761e-21)
(0.748416 0.308196 -5.34228e-19)
(0.73255 0.297155 1.22389e-19)
(0.719267 0.288582 6.22005e-19)
(0.701956 0.277792 -1.80943e-19)
(0.627236 0.24638 3.97657e-19)
(0.316692 0.12414 -3.04846e-20)
(0.674982 0.30673 1.12447e-20)
(1.21486 0.543598 1.54205e-19)
(1.28373 0.589383 6.42404e-20)
(1.25092 0.584089 -1.09119e-19)
(1.20575 0.571783 2.24571e-20)
(1.15444 0.557145 3.99503e-20)
(1.09826 0.539431 4.24129e-20)
(1.03833 0.516868 1.32979e-19)
(0.975562 0.489171 1.78567e-19)
(0.911568 0.455773 -1.70958e-19)
(0.853831 0.420232 0)
(0.809284 0.389714 -1.28155e-19)
(0.776169 0.366312 1.47135e-19)
(0.75079 0.347996 1.92366e-19)
(0.731023 0.333467 -1.09882e-19)
(0.715473 0.32178 -2.76858e-19)
(0.702522 0.312682 -8.35137e-20)
(0.685833 0.30133 -3.07451e-22)
(0.613618 0.267634 0)
(0.311407 0.135547 0)
(0.670848 0.333598 -1.67397e-19)
(1.20429 0.592739 0)
(1.27213 0.640288 7.66854e-20)
(1.2383 0.63516 -4.1578e-20)
(1.19273 0.620153 -8.10118e-21)
(1.14027 0.603639 4.71498e-21)
(1.08293 0.583168 4.36186e-20)
(1.02168 0.557381 -8.7658e-20)
(0.957648 0.526016 1.30754e-19)
(0.892774 0.488625 -5.45515e-20)
(0.83498 0.449445 9.26482e-20)
(0.791018 0.416411 3.9162e-19)
(0.758378 0.391485 1.22289e-20)
(0.733275 0.37208 -1.94582e-19)
(0.713761 0.356674 3.71872e-19)
(0.698502 0.344238 4.73547e-21)
(0.685796 0.334479 8.93523e-20)
(0.669627 0.322472 -4.34303e-19)
(0.599888 0.286798 4.47942e-19)
(0.30612 0.146003 -5.3439e-19)
(0.66724 0.359523 -4.1117e-23)
(1.19357 0.639428 0)
(1.25983 0.688331 0)
(1.22489 0.683508 2.79307e-20)
(1.17882 0.666101 9.86401e-21)
(1.12518 0.647958 1.56751e-20)
(1.06671 0.624964 -7.194e-20)
(1.00414 0.596129 0)
(0.938892 0.561103 -1.94865e-19)
(0.87327 0.519574 2.43e-19)
(0.815712 0.47659 2.53057e-19)
(0.772725 0.441062 -1.45621e-19)
(0.740768 0.414808 -1.78582e-19)
(0.716003 0.394475 4.19913e-19)
(0.696652 0.378185 -1.3103e-19)
(0.681599 0.364954 -1.59136e-19)
(0.669355 0.354597 -9.68613e-20)
(0.654009 0.341918 -4.68466e-19)
(0.586718 0.304338 6.39073e-20)
(0.300952 0.155616 5.7488e-19)
(0.664239 0.384712 -6.72802e-20)
(1.1829 0.683681 -9.15363e-20)
(1.24723 0.73383 2.33239e-20)
(1.21112 0.72933 1.17182e-21)
(1.1644 0.70987 -1.72756e-20)
(1.10954 0.690256 1.19156e-20)
(1.04988 0.664878 0)
(0.985914 0.633048 5.42715e-20)
(0.919418 0.594269 -4.27938e-20)
(0.853172 0.548439 3.87825e-19)
(0.796293 0.501583 -7.29303e-20)
(0.754969 0.463729 6.6815e-20)
(0.724043 0.436393 0)
(0.699225 0.415235 -2.27993e-19)
(0.679687 0.398066 2.82083e-19)
(0.664476 0.383888 0)
(0.651966 0.37246 -2.12714e-19)
(0.636761 0.358721 6.21804e-19)
(0.572226 0.31944 7.59312e-20)
(0.295242 0.164218 -7.13093e-19)
(0.661839 0.409171 -1.44541e-19)
(1.1725 0.725729 1.84299e-19)
(1.23464 0.777061 0)
(1.19725 0.772842 7.1865e-20)
(1.14976 0.751613 0)
(1.09363 0.730617 -3.08907e-20)
(1.03269 0.702993 0)
(0.967204 0.668296 0)
(0.899343 0.625778 -5.82116e-20)
(0.832392 0.575456 -3.69352e-19)
(0.776274 0.524371 -4.59276e-19)
(0.736888 0.484182 7.85014e-20)
(0.707309 0.456528 2.85026e-19)
(0.682978 0.435378 2.51521e-19)
(0.662778 0.417457 -8.98663e-19)
(0.647331 0.401663 -3.78853e-19)
(0.635808 0.389513 2.19053e-19)
(0.621546 0.374921 0)
(0.559008 0.334102 6.59199e-19)
(0.289219 0.171977 -7.67985e-19)
(0.659953 0.432944 1.60097e-19)
(1.16249 0.765742 -2.02341e-19)
(1.22227 0.818197 0)
(1.18351 0.814203 -1.00828e-20)
(1.13513 0.791467 -2.39827e-20)
(1.07771 0.7692 0)
(1.01536 0.739528 2.4778e-20)
(0.94821 0.702082 3.9482e-20)
(0.878864 0.655695 -1.07137e-19)
(0.811346 0.600449 4.73447e-20)
(0.756919 0.544801 0)
(0.721404 0.502521 2.92954e-19)
(0.69443 0.475047 -1.24967e-20)
(0.668425 0.4543 1.34671e-19)
(0.646189 0.435735 1.67869e-19)
(0.629015 0.418669 0)
(0.615881 0.404032 -3.78811e-19)
(0.602362 0.387375 7.43203e-19)
(0.543509 0.344299 -8.1024e-19)
(0.282227 0.178578 1.66962e-18)
(0.658508 0.456083 0)
(1.15294 0.803928 0)
(1.21024 0.857415 -8.97108e-20)
(1.17001 0.853573 0)
(1.12066 0.829554 0)
(1.06189 0.806116 -2.25368e-20)
(0.997989 0.774555 2.58647e-20)
(0.929016 0.734426 1.04417e-20)
(0.857893 0.684042 -2.44262e-20)
(0.789295 0.623504 0)
(0.735651 0.562713 -6.32552e-20)
(0.702683 0.518153 -2.41598e-19)
(0.678611 0.492958 -3.05542e-19)
(0.654364 0.474757 -1.27921e-19)
(0.628976 0.456859 1.8298e-19)
(0.609586 0.436979 -4.3887e-19)
(0.5965 0.420572 8.29607e-19)
(0.582261 0.402745 2.04406e-20)
(0.525954 0.357818 -7.87494e-19)
(0.271777 0.183688 -1.1762e-19)
(0.657433 0.478625 0)
(1.14387 0.840366 -1.40831e-19)
(1.19862 0.894828 1.1149e-19)
(1.15687 0.891079 0)
(1.1065 0.865976 0)
(1.04632 0.841465 4.48733e-20)
(0.980775 0.808184 0)
(0.909837 0.765524 0)
(0.836755 0.711171 -2.37728e-19)
(0.76734 0.644985 5.93812e-20)
(0.716904 0.578374 -5.09064e-19)
(0.692608 0.530947 0)
(0.674437 0.508142 -2.85839e-19)
(0.644229 0.495715 2.1514e-20)
(0.613333 0.47782 -5.63671e-19)
(0.589935 0.455801 2.40118e-19)
(0.572714 0.433819 1.05501e-20)
(0.559861 0.409052 -9.14007e-19)
(0.505302 0.360797 4.39011e-19)
(0.259333 0.183205 1.25715e-19)
(0.656676 0.500572 0)
(1.13529 0.87517 -1.77318e-19)
(1.18748 0.930545 1.06459e-19)
(1.14417 0.92684 1.61915e-19)
(1.09274 0.900824 7.90797e-21)
(1.03111 0.875339 1.18191e-20)
(0.963821 0.840486 -1.1907e-20)
(0.890755 0.795455 2.36333e-19)
(0.815333 0.737089 2.5429e-19)
(0.744179 0.664467 4.51373e-19)
(0.693956 0.59034 4.22991e-19)
(0.673141 0.539779 7.02797e-20)
(0.662805 0.523543 4.28423e-19)
(0.637205 0.516959 2.94397e-19)
(0.598622 0.505216 4.10577e-19)
(0.567284 0.475996 -2.75884e-19)
(0.54828 0.445277 -3.44672e-19)
(0.531716 0.419795 4.06659e-19)
(0.480453 0.36971 -2.56713e-19)
(0.242676 0.183918 4.27709e-19)
(0.656178 0.521935 2.54772e-19)
(1.12719 0.908412 2.75325e-19)
(1.17685 0.964651 5.15432e-20)
(1.13198 0.96095 4.91422e-21)
(1.07947 0.934166 -5.63391e-20)
(1.01635 0.907797 -9.87498e-21)
(0.947226 0.87154 1.22469e-20)
(0.871835 0.824368 -1.19885e-21)
(0.79373 0.762103 -2.99714e-19)
(0.720725 0.6828 -4.85183e-19)
(0.673866 0.600825 2.81337e-20)
(0.665655 0.545993 0)
(0.665201 0.53419 0)
(0.636167 0.543561 -1.39646e-19)
(0.585351 0.532026 -6.56317e-19)
(0.541092 0.503059 6.04532e-19)
(0.513978 0.471315 3.97582e-19)
(0.499993 0.430727 0)
(0.452945 0.366019 8.39401e-19)
(0.22261 0.17265 -4.91441e-19)
(0.655947 0.542613 -1.30734e-19)
(1.11958 0.940185 1.13316e-19)
(1.16676 0.997216 -1.30055e-19)
(1.1203 0.993485 -1.13626e-19)
(1.06672 0.966032 -2.80801e-20)
(1.00209 0.938897 2.22264e-21)
(0.931062 0.901421 0)
(0.85322 0.852294 -3.07614e-19)
(0.772302 0.786203 3.25484e-20)
(0.697092 0.699531 0)
(0.651545 0.606443 0)
(0.652916 0.544807 3.56641e-20)
(0.669944 0.541438 7.43643e-20)
(0.639933 0.569517 -1.33291e-19)
(0.570542 0.58541 4.83545e-19)
(0.497723 0.559415 -6.79009e-19)
(0.451293 0.496307 -8.7474e-19)
(0.44375 0.429418 8.12123e-19)
(0.411399 0.358301 -3.26206e-19)
(0.246619 0.187779 1.81159e-19)
(0.655752 0.562408 1.57396e-19)
(1.11238 0.970494 0)
(1.15718 1.02828 0)
(1.10917 1.02448 -3.01468e-20)
(1.05455 0.996478 2.43605e-20)
(0.988417 0.968719 -2.64015e-21)
(0.915458 0.930216 8.39944e-20)
(0.835012 0.879317 3.42755e-19)
(0.750753 0.809631 5.65975e-19)
(0.671738 0.715454 -2.95593e-20)
(0.625764 0.610102 5.18781e-20)
(0.644376 0.538626 -1.97429e-19)
(0.681261 0.547882 -1.98266e-19)
(0.661274 0.615642 -6.19732e-20)
(0.566479 0.646189 0)
(0.465667 0.607602 -3.45756e-20)
(0.39888 0.518841 4.77627e-19)
(0.373788 0.400964 -9.08432e-19)
(0.367447 0.236311 6.63022e-19)
(0.15176 0.0370507 5.62138e-19)
(0.655744 0.58179 -3.43979e-19)
(1.10559 0.999558 -1.42797e-19)
(1.14805 1.05806 9.22334e-22)
(1.09848 1.05425 5.43816e-20)
(1.04282 1.02587 0)
(0.975153 0.997718 -1.50579e-20)
(0.90016 0.958445 -1.21467e-19)
(0.816814 0.906073 1.59763e-20)
(0.72875 0.833119 -3.01285e-19)
(0.646187 0.731154 -2.71171e-20)
(0.602577 0.610363 2.51891e-20)
(0.638337 0.526825 1.6688e-19)
(0.703964 0.547294 2.00129e-19)
(0.699968 0.638437 4.85611e-20)
(0.588246 0.690974 5.09085e-19)
(0.437873 0.671474 0)
(0.306109 0.582054 0)
(0.145262 0.517707 6.69023e-19)
(0.0180323 0.674423 -2.61575e-20)
(-0.00597557 1.33736 -8.47465e-19)
(0.655732 0.600665 1.87538e-19)
(1.09916 1.02744 3.95585e-19)
(1.13935 1.08673 -5.17678e-19)
(1.08824 1.08303 2.49615e-19)
(1.03154 1.05452 -9.20635e-21)
(0.962287 1.02626 -2.60135e-21)
(0.885102 0.986596 0)
(0.798533 0.933223 -3.06131e-19)
(0.705937 0.857265 0)
(0.617392 0.746703 4.80734e-19)
(0.56908 0.605348 -1.12953e-20)
(0.621947 0.504845 1.24902e-20)
(0.745827 0.509671 -5.6156e-20)
(0.767096 0.646954 -1.66274e-19)
(0.624282 0.764829 -3.18494e-19)
(0.383748 0.808445 0)
(0.179954 0.813081 0)
(0.097823 1.16516 0)
(0.112411 2.2653 -3.82681e-19)
(0.147874 2.82532 -2.32119e-19)
(0.655836 0.619489 0)
(1.09312 1.05413 0)
(1.13108 1.11427 1.84825e-19)
(1.07849 1.11077 -2.00983e-19)
(1.02077 1.0823 8.23343e-20)
(0.949903 1.05422 1.0366e-20)
(0.870459 1.01453 1.92973e-20)
(0.780489 0.960681 -1.5024e-20)
(0.682624 0.882246 4.02449e-20)
(0.586646 0.763442 -5.45919e-19)
(0.53559 0.602441 2.46133e-20)
(0.614731 0.434663 -1.41854e-19)
(0.811512 0.433233 7.6572e-20)
(0.851353 0.688256 -1.70416e-19)
(0.681382 0.925139 1.56305e-19)
(0.432537 1.018 0)
(0.274662 1.33678 4.56623e-19)
(0.23058 2.49447 5.31787e-19)
(0.240196 3.00701 -5.91769e-19)
(0.220009 3.17965 6.47283e-19)
(0.655894 0.637233 0)
(1.08743 1.07959 3.306e-19)
(1.12323 1.14069 -4.3598e-20)
(1.06922 1.13748 2.60561e-19)
(1.01052 1.10925 -8.64269e-20)
(0.938084 1.08159 0)
(0.85637 1.04227 0)
(0.762807 0.988526 0)
(0.658974 0.908374 3.0109e-19)
(0.553899 0.78083 3.17321e-20)
(0.492755 0.579015 0)
(0.594415 0.339643 1.28231e-19)
(0.842819 0.433576 0)
(0.947217 0.805664 6.92242e-20)
(0.763301 1.14383 -5.55463e-20)
(0.480459 1.42104 -2.08952e-19)
(0.316637 2.35891 -7.90146e-19)
(0.321223 3.05299 -4.20206e-19)
(0.31799 3.25474 -4.72265e-19)
(0.279314 3.31322 4.47108e-19)
(0.655986 0.654193 -1.22855e-19)
(1.08208 1.10384 8.04223e-21)
(1.11581 1.16603 -4.7212e-20)
(1.06045 1.16322 -1.99151e-19)
(1.00084 1.13541 0)
(0.926846 1.10844 0)
(0.842824 1.06985 0)
(0.745491 1.01681 2.50899e-20)
(0.635007 0.935812 -3.70678e-19)
(0.516917 0.799186 0)
(0.440771 0.546336 0)
(0.535327 0.308249 0)
(0.830279 0.487552 0)
(1.03082 0.994926 -4.54222e-19)
(0.867758 1.43539 2.18425e-19)
(0.622247 2.0726 2.68219e-19)
(0.484374 2.99237 5.16505e-19)
(0.495344 3.30866 -2.69747e-19)
(0.379567 3.40593 1.32042e-19)
(0.30787 3.40648 0)
(0.656056 0.670641 1.24414e-19)
(1.07687 1.12757 -7.15021e-19)
(1.10859 1.19099 -1.78598e-19)
(1.05196 1.18866 -3.83752e-20)
(0.991531 1.16142 1.42339e-20)
(0.915969 1.13529 -9.87416e-21)
(0.829664 1.09776 -6.38892e-21)
(0.728523 1.04603 -3.54915e-19)
(0.610578 0.965402 0)
(0.475912 0.820963 -1.96766e-20)
(0.371022 0.538975 1.78877e-20)
(0.429246 0.355867 0)
(0.70364 0.690764 0)
(1.02361 1.34121 5.49951e-19)
(0.939074 1.98819 -5.013e-19)
(0.615922 2.90278 1.12012e-20)
(0.53813 3.37511 -1.53617e-19)
(0.464277 3.49763 -6.78413e-20)
(0.336994 3.50491 3.96585e-19)
(0.295817 3.51294 -1.7798e-19)
(0.655981 0.688068 2.39873e-19)
(1.07146 1.15236 6.86659e-19)
(1.10115 1.21704 2.13272e-19)
(1.04332 1.21519 0)
(0.982064 1.18851 0)
(0.90491 1.16332 6.61504e-21)
(0.816435 1.12709 1.10546e-19)
(0.71137 1.07727 3.18152e-19)
(0.585298 0.9987 1.93278e-20)
(0.431508 0.849932 5.60835e-19)
(0.279033 0.58926 -6.82588e-20)
(0.252147 0.524977 0)
(0.43962 1.10026 0)
(0.896215 1.89772 1.00634e-18)
(0.884283 2.76023 4.1983e-19)
(0.637687 3.37607 0)
(0.622768 3.56933 8.21106e-19)
(0.522943 3.61188 3.2523e-19)
(0.404883 3.63348 -1.00289e-18)
(0.361646 3.65331 5.18809e-19)
(0.655655 0.706977 -4.52576e-19)
(1.06562 1.17905 -3.27539e-19)
(1.0932 1.24494 0)
(1.03415 1.24349 0)
(0.972102 1.21733 0)
(0.893475 1.1931 0)
(0.802958 1.15841 -1.25791e-19)
(0.694063 1.11109 3.54281e-19)
(0.559797 1.03661 0)
(0.385564 0.894666 -5.27643e-19)
(0.18433 0.688309 2.02234e-19)
(0.0349624 0.784031 -4.81445e-20)
(0.181129 1.54771 -2.40237e-19)
(0.687001 2.52206 -1.7978e-18)
(0.731716 3.28979 9.1819e-19)
(0.592031 3.60773 0)
(0.592318 3.70602 -3.9963e-19)
(0.457772 3.74855 1.60982e-19)
(0.331764 3.7922 6.00134e-19)
(0.242909 3.77024 -4.91354e-19)
(0.654919 0.727419 2.13018e-19)
(1.05928 1.20783 -3.27005e-19)
(1.08468 1.2749 0)
(1.02447 1.27373 -4.68766e-20)
(0.96167 1.24796 1.44971e-19)
(0.881632 1.22474 0)
(0.789281 1.19174 0)
(0.67678 1.14764 -6.58149e-19)
(0.534338 1.07989 -4.65252e-20)
(0.340281 0.958981 6.46869e-19)
(0.0804478 0.832145 -1.47405e-19)
(-0.152454 1.08155 -5.89814e-19)
(-0.0202478 1.95727 0)
(0.502478 3.00603 1.05985e-18)
(0.603159 3.56204 -4.2868e-19)
(0.600025 3.74495 -5.28312e-19)
(0.630325 3.78827 0)
(0.552741 3.85499 -3.85553e-19)
(0.446398 3.92119 -1.22806e-18)
(0.365818 3.89049 -2.92028e-19)
(0.653764 0.749495 -4.07248e-19)