/*--------------------------------*- C++ -*----------------------------------*\
  =========                 |
  \\      /  F ield         | OpenFOAM: The Open Source CFD Toolbox
   \\    /   O peration     | Website:  https://openfoam.org
    \\  /    A nd           | Version:  9
     \\/     M anipulation  |
\*---------------------------------------------------------------------------*/
FoamFile
{
    format      ascii;
    class       volScalarField;
    location    "2";
    object      p;
}
// * * * * * * * * * * * * * * * * * * * * * * * * * * * * * * * * * * * * * //

dimensions      [0 2 -2 0 0 0 0];

internalField   nonuniform List<scalar> 
8800
(
1.18727
1.14043
1.10656
1.08095
1.06253
1.04923
1.0395
1.0324
1.02754
1.02521
1.02619
1.03008
1.03622
1.04465
1.05604
1.07171
1.09347
1.12332
1.16172
1.21888
1.02596
1.03329
1.04076
1.04353
1.04182
1.03689
1.0307
1.02465
1.01969
1.01647
1.01586
1.01816
1.02249
1.0282
1.03459
1.04046
1.04405
1.04354
1.03874
1.02931
1.01655
1.02027
1.02277
1.02418
1.02391
1.02203
1.01912
1.01583
1.01296
1.01144
1.01217
1.01472
1.01812
1.02142
1.024
1.02518
1.02461
1.02262
1.01977
1.01753
1.01513
1.01565
1.01638
1.017
1.01712
1.01659
1.0155
1.0139
1.01234
1.0115
1.01205
1.01373
1.01555
1.01708
1.01796
1.01825
1.01786
1.01715
1.01653
1.01629
1.00636
1.00647
1.00656
1.00659
1.00645
1.00606
1.00539
1.00449
1.00358
1.00312
1.00356
1.0046
1.00586
1.00685
1.00751
1.00783
1.00793
1.00789
1.00781
1.00774
0.998878
0.998921
0.998948
0.998952
0.998896
0.998729
0.998418
0.997984
0.99756
0.997414
0.997819
0.998617
0.99937
0.999954
1.00032
1.0005
1.00055
1.00052
1.00046
1.00042
0.990996
0.991048
0.991088
0.991109
0.991097
0.991037
0.990919
0.99076
0.99064
0.990716
0.991129
0.991705
0.992251
0.992675
0.992943
0.993088
0.993151
0.993162
0.993147
0.993125
0.983367
0.983399
0.983431
0.983461
0.983486
0.983502
0.983513
0.983536
0.983622
0.983876
0.984345
0.984877
0.985321
0.985649
0.985863
0.985988
0.986049
0.98607
0.986067
0.986054
0.975793
0.975804
0.97583
0.975867
0.975917
0.975987
0.976088
0.976244
0.976495
0.976911
0.97747
0.97801
0.978439
0.978747
0.978948
0.979069
0.979133
0.979161
0.979166
0.979157
0.968154
0.968166
0.968192
0.968237
0.968313
0.968431
0.968612
0.968884
0.969287
0.969871
0.97056
0.971171
0.971639
0.971965
0.972179
0.972309
0.972382
0.972416
0.972426
0.972419
0.960416
0.960424
0.960455
0.960516
0.960621
0.96079
0.961051
0.961442
0.962006
0.962784
0.963652
0.964387
0.964928
0.965304
0.965549
0.9657
0.965787
0.96583
0.965845
0.965839
0.952529
0.952536
0.952576
0.952655
0.952794
0.953021
0.953373
0.953899
0.954648
0.955662
0.956762
0.957672
0.958334
0.958788
0.959085
0.959268
0.959373
0.959427
0.959448
0.959442
0.944436
0.944443
0.944493
0.944596
0.944777
0.945075
0.945539
0.946228
0.947205
0.948513
0.949914
0.951056
0.951881
0.952447
0.952816
0.953044
0.953176
0.953245
0.953272
0.953265
0.936067
0.936076
0.936141
0.936274
0.93651
0.936897
0.9375
0.938394
0.939658
0.941339
0.943125
0.944572
0.945613
0.946322
0.946785
0.947072
0.947239
0.947325
0.94736
0.947352
0.927339
0.927351
0.927435
0.927607
0.927913
0.928415
0.929197
0.930354
0.931983
0.934141
0.93642
0.938257
0.939574
0.940471
0.941055
0.941417
0.941627
0.941738
0.941783
0.941773
0.91814
0.918155
0.918265
0.91849
0.918888
0.919541
0.920553
0.922049
0.92415
0.926917
0.929826
0.93216
0.93383
0.934965
0.935704
0.936162
0.936427
0.936565
0.936621
0.936608
0.908324
0.908345
0.908489
0.908783
0.909303
0.910155
0.911471
0.913409
0.916117
0.919665
0.923375
0.926339
0.928452
0.929887
0.930819
0.931396
0.931732
0.931908
0.931978
0.931962
0.897697
0.897726
0.897918
0.898306
0.898989
0.900104
0.901823
0.904341
0.907837
0.912389
0.917114
0.920872
0.923543
0.925353
0.926529
0.927257
0.927679
0.927899
0.927987
0.927966
0.885994
0.886037
0.886294
0.886811
0.887718
0.889191
0.891447
0.894731
0.899254
0.90509
0.911098
0.915851
0.919222
0.921504
0.922984
0.9239
0.92443
0.924707
0.924817
0.924789
0.872847
0.872911
0.873263
0.873961
0.87518
0.877146
0.880133
0.884439
0.890305
0.897781
0.9054
0.911389
0.915625
0.918493
0.920355
0.921508
0.922175
0.922523
0.922661
0.922626
0.857731
0.857833
0.858324
0.85929
0.860956
0.863619
0.867618
0.873304
0.880928
0.89049
0.900106
0.907616
0.912923
0.916521
0.918862
0.920314
0.921158
0.921598
0.921773
0.921728
0.839867
0.840035
0.840748
0.84212
0.844461
0.848143
0.85358
0.861151
0.87108
0.883265
0.895323
0.904678
0.911295
0.915805
0.918757
0.920599
0.921673
0.922234
0.922457
0.922401
0.818034
0.818331
0.819417
0.821464
0.824876
0.830118
0.837651
0.847829
0.860763
0.876194
0.891166
0.902711
0.910915
0.916565
0.920312
0.922678
0.924073
0.92481
0.925107
0.925039
0.79019
0.790753
0.792546
0.795819
0.801083
0.808842
0.819508
0.833283
0.850072
0.869407
0.887745
0.901808
0.911895
0.918978
0.923795
0.926924
0.928819
0.929843
0.930267
0.930193
0.752576
0.753773
0.757192
0.763056
0.771791
0.783743
0.799077
0.817712
0.83927
0.863104
0.885152
0.901988
0.914233
0.923082
0.929361
0.933665
0.936444
0.938046
0.938748
0.938683
0.697287
0.700925
0.70917
0.720994
0.736272
0.754963
0.776902
0.801719
0.828836
0.85754
0.883415
0.903103
0.91767
0.928577
0.936757
0.942835
0.947224
0.950201
0.951778
0.951828
0.605889
0.627191
0.648005
0.67108
0.696393
0.724111
0.754083
0.785868
0.818891
0.852542
0.882191
0.90475
0.921821
0.93514
0.945787
0.954473
0.961695
0.967731
0.972799
0.97587
0.513377
0.554866
0.588269
0.622512
0.657913
0.694569
0.732323
0.770809
0.809502
0.84789
0.881192
0.906568
0.92611
0.941838
0.954909
0.966066
0.975799
0.984315
0.992979
0.999315
0.453459
0.497897
0.538583
0.580808
0.624183
0.668419
0.713077
0.757573
0.80119
0.843287
0.878898
0.905655
0.926227
0.94283
0.956616
0.968262
0.978214
0.986772
0.99489
0.999867
0.409415
0.456802
0.501028
0.547695
0.596365
0.646301
0.69658
0.746142
0.793815
0.83859
0.875216
0.901987
0.922255
0.93849
0.951905
0.963179
0.972766
0.980967
0.988678
0.993292
0.374213
0.423474
0.470629
0.520933
0.573789
0.628286
0.683173
0.736932
0.78783
0.834226
0.870557
0.896032
0.914889
0.929898
0.942344
0.952872
0.961881
0.969649
0.976856
0.981101
0.344521
0.395657
0.445228
0.49853
0.554954
0.613372
0.672271
0.729663
0.78318
0.830365
0.865244
0.888222
0.904645
0.917676
0.928636
0.938095
0.94634
0.953579
0.960279
0.964202
0.318441
0.371374
0.423162
0.479209
0.538843
0.600829
0.663396
0.724117
0.779919
0.827311
0.859729
0.879011
0.891928
0.902161
0.911076
0.919102
0.926395
0.932998
0.939148
0.942824
0.294501
0.349463
0.403259
0.461905
0.524585
0.589981
0.656078
0.720057
0.778068
0.825368
0.854492
0.868845
0.877054
0.883511
0.889692
0.89587
0.901944
0.907815
0.913305
0.916788
0.272165
0.328641
0.384629
0.445844
0.511506
0.580244
0.649884
0.71721
0.777605
0.824855
0.850072
0.858224
0.860291
0.861756
0.864323
0.868058
0.872561
0.877439
0.8824
0.885589
0.250195
0.308599
0.366686
0.430434
0.499043
0.571138
0.6444
0.715299
0.778456
0.826042
0.847057
0.847736
0.841961
0.836889
0.834673
0.835212
0.837697
0.841369
0.845653
0.84858
0.228629
0.288766
0.348988
0.415237
0.486799
0.562249
0.639243
0.71399
0.780476
0.829125
0.846105
0.838112
0.822476
0.808868
0.800366
0.796703
0.796601
0.798765
0.802251
0.804899
0.20679
0.268863
0.331181
0.399923
0.474423
0.55326
0.634072
0.712973
0.783428
0.834214
0.847847
0.830253
0.802408
0.777693
0.760881
0.751744
0.748319
0.74863
0.751178
0.753561
0.184774
0.248726
0.31312
0.384322
0.461691
0.543888
0.628586
0.711887
0.78697
0.841232
0.852899
0.825242
0.782544
0.743368
0.715574
0.699311
0.691743
0.689825
0.691337
0.693503
0.162119
0.228179
0.294671
0.368291
0.448477
0.533971
0.622537
0.710403
0.790722
0.849944
0.861723
0.824357
0.763969
0.705861
0.663415
0.638004
0.625453
0.621257
0.621864
0.624024
0.139019
0.207291
0.275838
0.351809
0.434724
0.523394
0.615765
0.708243
0.794247
0.859892
0.874521
0.828981
0.748114
0.664991
0.60253
0.565417
0.548018
0.542315
0.542449
0.544963
0.115641
0.186057
0.256635
0.334907
0.420419
0.512121
0.608148
0.705165
0.797112
0.870463
0.891121
0.840531
0.737026
0.620226
0.528473
0.477664
0.45705
0.451892
0.453566
0.457526
0.0921968
0.164657
0.237186
0.317649
0.405633
0.500192
0.599622
0.701013
0.798928
0.880909
0.910912
0.860153
0.733513
0.570634
0.435192
0.364542
0.345551
0.349295
0.358176
0.36603
0.0688144
0.143194
0.217621
0.300174
0.39048
0.487666
0.590254
0.695721
0.799409
0.890466
0.932717
0.888336
0.74137
0.515967
0.305843
0.201583
0.199873
0.234687
0.266392
0.283977
0.0452388
0.121771
0.198073
0.282614
0.375058
0.474626
0.580073
0.68926
0.798349
0.898418
0.954959
0.924318
0.765206
0.456406
0.106004
-0.0745672
-0.0140153
0.119131
0.213775
0.249625
0.02199
0.100547
0.178732
0.265152
0.359497
0.461216
0.569195
0.681694
0.795614
0.90419
0.975843
0.965587
0.809241
0.392137
-0.250657
-0.659425
-0.402836
0.0205633
0.255846
0.299102
-0.00121961
0.0796341
0.159748
0.247823
0.343856
0.447507
0.557741
0.673048
0.791181
0.907426
0.993909
1.00871
0.875741
0.347982
-0.970337
-1.93376
-1.13568
-0.151552
0.380717
0.550938
-0.0243265
0.0592432
0.141176
0.230518
0.327909
0.433219
0.545357
0.662988
0.784707
0.90768
1.00794
1.0498
0.961311
0.402333
-1.3108
-2.7166
-1.86481
-0.705515
-0.124686
0.0272288
-0.0470937
0.0399755
0.123294
0.213458
0.311937
0.418689
0.532177
0.651796
0.776337
0.904499
1.01566
1.07998
1.03522
0.595945
-0.740884
-1.76834
-1.40387
-0.902807
-0.529237
-0.26995
-0.0702433
0.023118
0.106798
0.197289
0.296653
0.404437
0.518609
0.639849
0.766699
0.898334
1.01613
1.0936
1.07716
0.791651
-0.0125782
-0.634409
-0.629069
-0.473397
-0.373181
-0.286133
-0.1733
0.00912285
0.0910424
0.181056
0.280958
0.389503
0.504934
0.627335
0.755311
0.888546
1.00905
1.09367
1.10192
0.903175
0.411101
-0.00448929
-0.222624
-0.266582
-0.261293
-0.242235
-0.0246415
-0.00818338
0.0666419
0.156368
0.257402
0.367055
0.483384
0.607004
0.735362
0.867796
0.985032
1.05869
1.05558
0.908549
0.588526
0.25435
0.010209
-0.143014
-0.249045
-0.271893
-0.0969273
-0.0295947
0.0463477
0.137266
0.2394
0.349227
0.466694
0.590034
0.717264
0.848022
0.960161
1.02282
1.01053
0.876511
0.601667
0.276294
0.0100325
-0.187506
-0.347691
-0.368643
-0.138066
-0.05992
0.0219885
0.115276
0.217971
0.328882
0.447099
0.571253
0.699759
0.830002
0.936153
0.985865
0.955116
0.815072
0.560848
0.233112
-0.0641657
-0.320607
-0.558307
-0.565072
-0.179395
-0.0921793
-0.00460627
0.0915885
0.196024
0.309183
0.429004
0.553095
0.679072
0.803739
0.900998
0.938165
0.894037
0.743234
0.488225
0.143913
-0.209203
-0.545953
-0.93473
-0.950428
-0.218774
-0.124619
-0.0325459
0.0668398
0.173539
0.287573
0.406824
0.530468
0.656297
0.779591
0.871876
0.900469
0.84854
0.695155
0.44306
0.0880351
-0.353585
-0.787638
-1.37165
-1.73866
-0.255879
-0.157585
-0.0620156
0.0399372
0.148768
0.264481
0.385583
0.510228
0.635301
0.754537
0.839572
0.861523
0.806279
0.657354
0.403546
0.0662965
-0.42374
-1.00455
-1.42379
-1.98564
-0.291607
-0.191083
-0.092494
0.012305
0.123592
0.240645
0.362078
0.485911
0.609201
0.72553
0.806657
0.825663
0.772784
0.638377
0.400585
0.0909786
-0.335518
-0.886363
-1.27075
-1.32857
-0.324933
-0.224851
-0.124909
-0.0184531
0.094459
0.21266
0.335226
0.459587
0.582617
0.696972
0.774908
0.792967
0.747167
0.633358
0.448156
0.184761
-0.144108
-0.572543
-0.939365
-0.931586
-0.358335
-0.258602
-0.158303
-0.050283
0.0643494
0.183974
0.307474
0.432076
0.554615
0.667537
0.744212
0.764835
0.731481
0.64888
0.524849
0.357064
0.149519
-0.056992
-0.175465
-0.156303
-0.393788
-0.293743
-0.192806
-0.0836842
0.0321336
0.152992
0.27769
0.403255
0.526063
0.638896
0.716209
0.743124
0.727059
0.680042
0.616238
0.548538
0.489815
0.462785
0.478396
0.503771
-0.431267
-0.330798
-0.229384
-0.119119
-0.00182251
0.120794
0.247039
0.373861
0.497362
0.611399
0.691308
0.727988
0.731473
0.716679
0.698631
0.689432
0.697655
0.726742
0.768245
0.788233
-0.471125
-0.369629
-0.267169
-0.155497
-0.0365409
0.0879489
0.215858
0.344187
0.469041
0.585401
0.670432
0.718834
0.74155
0.75263
0.764202
0.78296
0.810851
0.845322
0.879461
0.895188
-0.51407
-0.410631
-0.306406
-0.192855
-0.0719171
0.0546457
0.184414
0.314568
0.441601
0.561139
0.654152
0.713609
0.75321
0.783913
0.813401
0.844767
0.877765
0.91004
0.938139
0.951895
-0.559216
-0.453304
-0.34647
-0.230655
-0.107417
0.0213257
0.153189
0.285537
0.41541
0.539219
0.641045
0.712418
0.765091
0.809309
0.849405
0.887095
0.922064
0.953402
0.979643
0.991946
-0.605285
-0.496225
-0.386555
-0.268135
-0.142453
-0.0114095
0.122768
0.257613
0.390744
0.519623
0.629066
0.710971
0.774579
0.828109
0.874708
0.915834
0.951788
0.982731
1.00809
1.01979
-0.649454
-0.537548
-0.425197
-0.304211
-0.176109
-0.0427394
0.093775
0.231263
0.367769
0.502097
0.618886
0.709716
0.78113
0.840641
0.891209
0.934279
0.970795
1.00146
1.02608
1.03764
-0.689389
-0.57546
-0.46072
-0.337504
-0.207218
-0.0717214
0.0669547
0.206914
0.346693
0.485986
0.60932
0.70704
0.78402
0.847426
0.900241
0.944364
0.98104
1.01145
1.03541
1.04682
-0.723585
-0.608186
-0.491543
-0.366378
-0.234404
-0.0972611
0.0430767
0.184947
0.327355
0.470615
0.599182
0.701774
0.782636
0.84839
0.902471
0.947007
0.983662
1.01381
1.03692
1.0486
-0.749153
-0.633019
-0.515133
-0.388995
-0.256011
-0.118046
0.0228944
0.165772
0.309728
0.455537
0.58756
0.693049
0.776221
0.843303
0.897964
0.942614
0.979098
1.00891
1.03144
1.04324
-0.762876
-0.647173
-0.52915
-0.40295
-0.270227
-0.132849
0.0074768
0.149835
0.293663
0.440132
0.573461
0.68006
0.764083
0.831628
0.886403
0.93099
0.9673
0.996903
1.0191
1.03096
-0.761436
-0.646582
-0.529866
-0.405276
-0.274718
-0.139892
-0.00222034
0.137451
0.278993
0.423709
0.555913
0.661743
0.745254
0.812411
0.866888
0.911247
0.947366
0.976791
0.998698
1.01062
-0.737335
-0.627014
-0.513101
-0.392476
-0.266646
-0.137163
-0.00507098
0.129085
0.265533
0.405621
0.533955
0.636849
0.718297
0.784049
0.837655
0.881539
0.917472
0.946824
0.968718
0.98071
-0.682319
-0.580202
-0.473052
-0.360135
-0.243027
-0.122836
-4.68262e-05
0.125167
0.253198
0.385281
0.506596
0.603985
0.681299
0.744071
0.795711
0.838407
0.873773
0.902978
0.925064
0.937417
-0.588999
-0.497195
-0.40338
-0.304084
-0.201404
-0.0955198
0.0135295
0.125863
0.241832
0.362278
0.473092
0.561808
0.632077
0.689194
0.736455
0.775914
0.808921
0.836617
0.85931
0.871932
-0.439487
-0.372215
-0.29954
-0.222552
-0.141129
-0.0550592
0.0357967
0.131413
0.231746
0.336911
0.433566
0.5101
0.569655
0.617157
0.655766
0.687483
0.713261
0.733546
0.74943
0.757997
-0.215908
-0.193073
-0.159259
-0.116477
-0.0646903
-0.00413236
0.0647556
0.141484
0.225391
0.315699
0.399542
0.465518
0.515838
0.55453
0.584365
0.607487
0.62586
0.640722
0.651836
0.657026
-0.0495143
-0.0446365
-0.0340166
-0.0158084
0.0115476
0.0490572
0.0970242
0.155149
0.22264
0.298246
0.369928
0.426288
0.468427
0.499739
0.522668
0.538921
0.549653
0.556019
0.559296
0.560595
0.0348383
0.0366239
0.0420154
0.0522402
0.0686682
0.0928253
0.126064
0.169148
0.222015
0.283654
0.343343
0.390299
0.424815
0.449606
0.466849
0.478369
0.485714
0.490068
0.492247
0.49294
0.0848291
0.0861414
0.0895259
0.0960324
0.106944
0.123655
0.147539
0.179748
0.220826
0.270296
0.319135
0.357645
0.385638
0.405383
0.418864
0.42771
0.433205
0.436356
0.437933
0.438491
0.117515
0.118521
0.120954
0.125508
0.133144
0.145051
0.162535
0.186803
0.218647
0.257972
0.297426
0.328648
0.351214
0.366955
0.377547
0.3844
0.388622
0.391047
0.392276
0.392722
0.138563
0.139319
0.141104
0.144423
0.150003
0.158775
0.171825
0.190274
0.214979
0.246062
0.277663
0.302782
0.320885
0.333439
0.341836
0.34724
0.350556
0.352457
0.353423
0.353776
0.151476
0.152056
0.153399
0.15588
0.160047
0.166627
0.176508
0.190647
0.209841
0.234334
0.259504
0.279595
0.294067
0.304075
0.310744
0.315024
0.317647
0.31915
0.319917
0.320197
0.158458
0.158901
0.159921
0.161801
0.164963
0.169971
0.177529
0.188426
0.20337
0.222637
0.242602
0.258607
0.270143
0.278112
0.283417
0.286816
0.288895
0.290089
0.290696
0.290916
0.161001
0.161343
0.162125
0.163566
0.165987
0.169831
0.175654
0.184095
0.19575
0.210897
0.226695
0.239405
0.248576
0.254911
0.259123
0.261825
0.26348
0.264428
0.264909
0.265082
0.160182
0.160446
0.161049
0.16216
0.164029
0.167
0.171509
0.178073
0.187178
0.199077
0.211554
0.221623
0.228901
0.233932
0.237279
0.23942
0.240727
0.241476
0.241858
0.241995
0.156792
0.156998
0.157466
0.158327
0.159776
0.162081
0.165587
0.170702
0.177825
0.187175
0.197017
0.204983
0.210747
0.214732
0.217381
0.219078
0.220117
0.220711
0.221011
0.221118
0.151421
0.15158
0.151944
0.152613
0.15374
0.155534
0.158268
0.162265
0.167843
0.175188
0.182944
0.189234
0.19379
0.196944
0.199043
0.200387
0.201206
0.201676
0.201916
0.202001
0.144515
0.144639
0.144923
0.145445
0.146324
0.147723
0.149857
0.152982
0.157352
0.16312
0.169227
0.17419
0.17779
0.180282
0.181941
0.183006
0.183657
0.184029
0.184216
0.184282
0.136415
0.136512
0.136733
0.13714
0.137826
0.13892
0.140589
0.143035
0.146461
0.150992
0.155796
0.159707
0.162548
0.164515
0.165823
0.166659
0.167168
0.167459
0.167606
0.167659
0.127386
0.127462
0.127634
0.127952
0.128489
0.129344
0.130649
0.132562
0.135248
0.138802
0.142578
0.145655
0.14789
0.149438
0.150468
0.151128
0.151533
0.151764
0.151881
0.151921
0.11763
0.11769
0.117825
0.118074
0.118492
0.11916
0.120182
0.121682
0.123786
0.126572
0.129537
0.131954
0.133708
0.134925
0.135737
0.136258
0.136576
0.136758
0.136849
0.136881
0.10731
0.107356
0.107461
0.107655
0.107984
0.108506
0.109303
0.110473
0.112118
0.114299
0.116622
0.118518
0.119898
0.120857
0.121493
0.121897
0.122144
0.122284
0.122353
0.122378
0.0965474
0.0965835
0.0966655
0.0968166
0.0970715
0.0974785
0.0981009
0.0990137
0.100297
0.102001
0.103815
0.105297
0.106376
0.107122
0.107618
0.107938
0.108133
0.108244
0.108301
0.108321
0.0854406
0.0854686
0.0855328
0.0856496
0.0858465
0.0861624
0.0866466
0.0873575
0.0883557
0.0896804
0.0910897
0.0922392
0.0930735
0.0936519
0.0940382
0.0942855
0.0944375
0.0945247
0.0945675
0.0945821
0.0740681
0.074089
0.0741375
0.0742288
0.0743826
0.0746255
0.0749969
0.0755439
0.0763125
0.0773331
0.0784207
0.0793095
0.0799562
0.0804057
0.0807059
0.0808965
0.0810107
0.0810755
0.0811082
0.0811194
0.0624865
0.0625039
0.0625428
0.0626119
0.0627287
0.0629146
0.0631983
0.063615
0.0642005
0.0649777
0.0658055
0.0664803
0.0669711
0.0673095
0.0675329
0.0676771
0.0677653
0.0678139
0.0678388
0.0678488
0.0507526
0.050764
0.0507918
0.0508429
0.0509315
0.0510722
0.0512857
0.0515976
0.0520352
0.0526146
0.0532304
0.0537311
0.054092
0.0543402
0.0545039
0.0546065
0.054668
0.0547026
0.0547179
0.0547238
0.0388992
0.0389083
0.0389292
0.0389682
0.0390333
0.0391358
0.039288
0.0395108
0.0398229
0.040236
0.0406763
0.0410368
0.0412997
0.0414814
0.0415961
0.0416625
0.0416993
0.0417251
0.0417378
0.0417434
0.0269649
0.0269772
0.0269986
0.0270311
0.0270732
0.0271384
0.0272391
0.027385
0.0275901
0.0278611
0.0281487
0.028382
0.0285513
0.0286625
0.0287367
0.028784
0.0288083
0.0288127
0.0288132
0.0288129
0.0149803
0.0149932
0.0150054
0.0150203
0.0150402
0.0150816
0.0151308
0.0152129
0.0153261
0.0154714
0.0156264
0.0157534
0.0158409
0.015902
0.0159421
0.0159697
0.0159857
0.0159844
0.0159864
0.0159891
0.00300113
0.00299227
0.00298229
0.00300309
0.00301725
0.00300415
0.0029981
0.00300334
0.0030193
0.00304611
0.00307579
0.00309942
0.00312115
0.00315059
0.00318388
0.00321877
0.00325034
0.00326753
0.00326803
0.0032561
-0.822808
-0.61066
-0.429945
-0.309805
-0.226947
-0.160156
-0.0798785
0.0858883
0.341671
0.339362
-0.492691
-0.365616
-0.262493
-0.170305
-0.0881658
-0.00249363
0.100077
0.224068
0.303971
0.29934
-0.252087
-0.171824
-0.0951333
-0.0211316
0.0516909
0.125833
0.19939
0.258783
0.29074
0.303786
-0.063058
-0.00696763
0.0500678
0.106556
0.161956
0.213731
0.257881
0.291888
0.314508
0.334434
0.0853152
0.125534
0.167026
0.208046
0.247007
0.28197
0.312008
0.336271
0.357174
0.378138
0.203553
0.232405
0.262046
0.291828
0.32005
0.34565
0.368334
0.388599
0.407546
0.42808
0.300537
0.321298
0.344159
0.366797
0.388402
0.408739
0.427679
0.445155
0.461652
0.479928
0.384635
0.401009
0.41908
0.437381
0.455658
0.473115
0.48887
0.503253
0.516104
0.528087
0.463176
0.476851
0.493259
0.51017
0.526395
0.540973
0.553533
0.56287
0.568002
0.570244
0.530036
0.544419
0.561462
0.578423
0.594204
0.608172
0.618549
0.623957
0.625345
0.624977
0.594278
0.618128
0.64521
0.670751
0.692332
0.708733
0.718849
0.721533
0.715623
0.713426
0.688097
0.730754
0.764029
0.786573
0.802725
0.815167
0.825176
0.830934
0.83008
0.836111
0.832309
0.858802
0.878805
0.898099
0.915984
0.930835
0.942443
0.953486
0.967282
0.984608
1.03467
1.05017
1.06476
1.07761
1.0869
1.0953
1.10417
1.11449
1.12296
1.1379
1.24753
1.2502
1.23752
1.22275
1.21621
1.22167
1.24007
1.26931
1.29965
1.32975
1.55275
1.41608
1.33925
1.29715
1.28032
1.28442
1.31101
1.36653
1.47007
1.68485
1.07987
1.08114
1.07969
1.07197
1.06153
1.05124
1.04232
1.03505
1.02943
1.02587
1.02519
1.02769
1.03253
1.03913
1.04734
1.05709
1.06771
1.07732
1.08193
1.08017
1.01565
1.01941
1.02321
1.02493
1.02489
1.023
1.01948
1.01525
1.01132
1.0086
1.00806
1.01011
1.01375
1.01803
1.02213
1.02499
1.02594
1.0252
1.02253
1.01811
1.01815
1.01929
1.02121
1.02271
1.02331
1.02295
1.02155
1.01935
1.01706
1.01529
1.015
1.01644
1.01878
1.02131
1.02331
1.0242
1.02416
1.02312
1.02131
1.0196
1.01036
1.01039
1.01051
1.01067
1.01073
1.01056
1.00992
1.00888
1.00764
1.00666
1.00656
1.00755
1.00902
1.0104
1.01137
1.01184
1.01192
1.01182
1.0117
1.01166
1.00269
1.00274
1.00282
1.00287
1.00285
1.00269
1.00233
1.00176
1.00107
1.00053
1.00057
1.00133
1.00231
1.00318
1.00382
1.00418
1.00432
1.00431
1.00423
1.00414
0.994926
0.994959
0.994985
0.995002
0.994988
0.994916
0.99476
0.994512
0.994224
0.994054
0.994247
0.994815
0.995487
0.996053
0.996447
0.996673
0.996777
0.996801
0.996783
0.996753
0.987157
0.987182
0.987222
0.987256
0.987277
0.987276
0.987243
0.987184
0.987137
0.987195
0.987499
0.988021
0.988554
0.98898
0.989277
0.989458
0.989551
0.989587
0.98959
0.989576
0.979581
0.979591
0.979617
0.979648
0.979682
0.979723
0.979773
0.979844
0.979969
0.98021
0.980642
0.981184
0.981671
0.982042
0.982296
0.982455
0.982544
0.982586
0.982597
0.982591
0.971986
0.971991
0.972007
0.972038
0.972089
0.972165
0.972281
0.972455
0.972719
0.973124
0.973698
0.974316
0.974822
0.9752
0.975456
0.975617
0.97571
0.975757
0.975775
0.975774
0.964298
0.964299
0.96432
0.964361
0.96443
0.964544
0.964722
0.964992
0.965393
0.965968
0.966715
0.967459
0.968043
0.968462
0.968745
0.968924
0.96903
0.969087
0.969111
0.969114
0.956495
0.956493
0.956516
0.956567
0.956659
0.956815
0.957061
0.957435
0.957983
0.958751
0.959714
0.960639
0.961343
0.961841
0.962175
0.962387
0.962514
0.962583
0.962615
0.962621
0.948512
0.948509
0.948537
0.948602
0.948723
0.948927
0.949254
0.949751
0.950475
0.951478
0.952715
0.953878
0.954751
0.955366
0.955778
0.956039
0.956196
0.956282
0.956322
0.95633
0.940291
0.940286
0.940321
0.940405
0.940562
0.94083
0.941256
0.941904
0.942846
0.944142
0.945725
0.947201
0.9483
0.949069
0.949583
0.94991
0.950107
0.950216
0.950268
0.950279
0.931755
0.931748
0.931794
0.931902
0.932106
0.932453
0.933006
0.933847
0.935064
0.936733
0.93876
0.940637
0.942028
0.943
0.943648
0.944059
0.944307
0.944445
0.94451
0.944526
0.922807
0.922798
0.922857
0.922998
0.923263
0.923714
0.924432
0.92552
0.927092
0.929239
0.931833
0.934223
0.935987
0.937216
0.938035
0.938556
0.93887
0.939044
0.939127
0.939146
0.91332
0.91331
0.913387
0.913572
0.913917
0.914504
0.915437
0.916848
0.918877
0.921637
0.924955
0.927997
0.930236
0.931793
0.932828
0.933485
0.933881
0.9341
0.934205
0.934229
0.903126
0.903114
0.903217
0.903459
0.903913
0.90468
0.905898
0.907732
0.910358
0.913908
0.91815
0.922018
0.924852
0.926819
0.928125
0.928955
0.929455
0.929732
0.929864
0.929894
0.892
0.891985
0.892123
0.892445
0.893045
0.894057
0.895655
0.898048
0.901454
0.906026
0.911445
0.916354
0.919939
0.922422
0.924068
0.925113
0.92574
0.926088
0.926253
0.92629
0.87963
0.879613
0.879801
0.880235
0.881037
0.882383
0.884496
0.88764
0.892073
0.897963
0.904875
0.911088
0.915606
0.918733
0.920806
0.92212
0.92291
0.923347
0.923555
0.923601
0.865576
0.86556
0.865822
0.866417
0.867509
0.869326
0.872152
0.876312
0.882107
0.889701
0.898493
0.906325
0.911999
0.915921
0.918525
0.920179
0.921174
0.921725
0.921987
0.922045
0.849207
0.849195
0.849572
0.850412
0.851931
0.85443
0.85827
0.863834
0.871446
0.881234
0.89237
0.902183
0.90927
0.914181
0.917452
0.919537
0.920797
0.921496
0.921828
0.921901
0.829554
0.829563
0.830132
0.831363
0.83355
0.837086
0.842412
0.849952
0.860004
0.872592
0.886598
0.898793
0.907589
0.913716
0.917832
0.92048
0.922089
0.922987
0.923416
0.923513
0.80505
0.805118
0.806049
0.807969
0.81128
0.816487
0.824079
0.834448
0.847761
0.863867
0.8813
0.896274
0.907085
0.914702
0.919905
0.923314
0.925424
0.926622
0.927203
0.927344
0.772832
0.773112
0.774869
0.778185
0.783602
0.791683
0.802835
0.817254
0.834857
0.855243
0.876615
0.894707
0.907823
0.917233
0.923847
0.92834
0.93123
0.93294
0.933816
0.934067
0.72698
0.728102
0.732342
0.738999
0.748702
0.761865
0.778554
0.798598
0.821603
0.846964
0.872636
0.894048
0.909669
0.921153
0.929561
0.935612
0.939818
0.942588
0.944238
0.944891
0.657955
0.66143
0.673133
0.68767
0.705789
0.727353
0.751971
0.779209
0.80853
0.839282
0.869337
0.894038
0.912197
0.925912
0.936428
0.944545
0.950803
0.955627
0.959489
0.961077
0.568234
0.579524
0.604275
0.631752
0.661263
0.69264
0.725758
0.760359
0.795987
0.832079
0.866496
0.894614
0.915618
0.932028
0.945254
0.956123
0.965183
0.972814
0.979118
0.981469
0.486541
0.507682
0.543258
0.581144
0.62034
0.660597
0.701696
0.743279
0.784812
0.82569
0.863716
0.894339
0.917221
0.935325
0.950187
0.962648
0.973148
0.981972
0.989195
0.993085
0.436007
0.45825
0.497568
0.540751
0.586202
0.633081
0.680652
0.728164
0.774747
0.819498
0.859933
0.89166
0.915023
0.933383
0.948379
0.960852
0.971264
0.97992
0.986929
0.990868
0.395907
0.419806
0.462251
0.509118
0.558894
0.610615
0.66328
0.715686
0.76645
0.814133
0.855761
0.887197
0.909732
0.927222
0.941465
0.953328
0.963267
0.971555
0.978314
0.982338
0.363417
0.388316
0.433103
0.48298
0.536349
0.592133
0.649086
0.705634
0.759863
0.80967
0.85139
0.88125
0.9018
0.917514
0.930346
0.941166
0.95036
0.958135
0.964574
0.968608
0.335108
0.361271
0.408262
0.46078
0.517277
0.576615
0.637379
0.697627
0.754893
0.80627
0.847173
0.874256
0.891696
0.904727
0.915507
0.92485
0.933043
0.940144
0.946191
0.950143
0.309773
0.337102
0.386187
0.441195
0.500585
0.563254
0.627568
0.691314
0.751438
0.804098
0.843516
0.866696
0.879827
0.889151
0.897129
0.90451
0.911385
0.917656
0.923202
0.926985
0.286296
0.314826
0.365829
0.423251
0.485462
0.55131
0.619116
0.686331
0.749361
0.803324
0.840859
0.859079
0.866565
0.870973
0.875219
0.879999
0.885176
0.890399
0.895322
0.898903
0.26389
0.29356
0.346496
0.406263
0.471229
0.540252
0.611537
0.682331
0.748494
0.804052
0.839658
0.851996
0.852344
0.850333
0.849647
0.850995
0.853946
0.857808
0.861976
0.865253
0.241787
0.272671
0.327595
0.389708
0.457401
0.529577
0.604415
0.678945
0.748622
0.806323
0.840376
0.846132
0.837701
0.827388
0.820221
0.817043
0.817094
0.819224
0.82244
0.825381
0.219758
0.251835
0.308767
0.373195
0.443605
0.518945
0.597359
0.675834
0.74944
0.810101
0.843398
0.842272
0.823309
0.802379
0.786684
0.777564
0.77382
0.773734
0.775763
0.778269
0.197549
0.230866
0.289766
0.356472
0.429571
0.50805
0.590093
0.672656
0.750653
0.815175
0.849063
0.841325
0.810084
0.775654
0.748733
0.731777
0.72317
0.720309
0.720929
0.722991
0.175018
0.209527
0.270431
0.339407
0.415142
0.4967
0.582339
0.669093
0.751872
0.82127
0.857467
0.844217
0.799206
0.747675
0.705911
0.678657
0.663891
0.657723
0.656777
0.658428
0.151888
0.187844
0.250714
0.321911
0.40022
0.484785
0.57395
0.664911
0.752729
0.827931
0.868537
0.851854
0.792149
0.719114
0.657433
0.616495
0.594337
0.584668
0.582591
0.583894
0.128581
0.16579
0.230644
0.304003
0.384811
0.472254
0.564808
0.659877
0.752885
0.834646
0.881884
0.864946
0.790771
0.690846
0.601741
0.541683
0.51207
0.500592
0.498277
0.499936
0.104986
0.143485
0.210278
0.285761
0.368951
0.459111
0.554892
0.653912
0.752046
0.840841
0.896833
0.883825
0.797238
0.664235
0.535208
0.449345
0.411594
0.401846
0.403675
0.408658
0.0815197
0.121119
0.189781
0.267295
0.352753
0.445454
0.54418
0.646921
0.749989
0.846002
0.91239
0.908193
0.813978
0.641721
0.452176
0.323619
0.279321
0.284192
0.30242
0.317922
0.057911
0.098741
0.169251
0.24873
0.336306
0.431364
0.53282
0.638913
0.746588
0.849652
0.927461
0.936897
0.843065
0.627549
0.342951
0.129845
0.0811184
0.138538
0.209698
0.250093
0.0343789
0.0764852
0.148851
0.230222
0.319765
0.416953
0.520903
0.630024
0.741826
0.851466
0.940904
0.967826
0.885236
0.62855
0.188037
-0.223374
-0.274939
-0.0515208
0.15491
0.244424
0.0110158
0.0544325
0.128763
0.211988
0.30327
0.402349
0.508504
0.620332
0.735816
0.851272
0.951727
0.998131
0.938343
0.65472
-0.0546974
-0.993951
-1.02613
-0.351899
0.176708
0.384963
-0.0121905
0.0326158
0.109078
0.193953
0.286695
0.387425
0.495453
0.609552
0.728284
0.848916
0.959507
1.02619
0.999732
0.727772
-0.324745
-2.15785
-2.24445
-0.902197
0.0148832
0.35368
-0.0351957
0.0113217
0.0901909
0.176219
0.27006
0.372169
0.481876
0.597803
0.719157
0.84397
0.963072
1.04799
1.05649
0.837514
-0.168207
-1.97432
-2.17846
-1.3546
-0.678319
-0.313755
-0.0581024
-0.0086773
0.0723913
0.158841
0.253424
0.35656
0.467701
0.585172
0.70834
0.836111
0.961702
1.06003
1.09459
0.945962
0.247401
-0.880656
-1.10938
-0.814936
-0.569569
-0.384002
-0.0853067
-0.024376
0.0558605
0.141898
0.236977
0.341041
0.452742
0.571815
0.696256
0.825816
0.954853
1.05994
1.10884
1.0191
0.585486
-0.0533342
-0.355492
-0.385977
-0.310503
-0.284046
-0.0266592
0.00220785
0.0797541
0.169478
0.269741
0.378822
0.49687
0.619718
0.747953
0.881149
1.0016
1.08495
1.09471
0.929438
0.526129
0.150988
-0.0713659
-0.186619
-0.234994
-0.242867
-0.0512937
-0.0325645
0.0317014
0.114889
0.210428
0.315517
0.429011
0.549203
0.674905
0.806212
0.935675
1.0384
1.0857
1.0254
0.772865
0.400486
0.103489
-0.0808599
-0.187261
-0.258733
-0.0745393
-0.0471878
0.0174601
0.100184
0.195895
0.301495
0.414662
0.535148
0.661622
0.792797
0.919249
1.01456
1.04892
0.982094
0.761955
0.426876
0.135156
-0.0771488
-0.224388
-0.338463
-0.107083
-0.0766033
-0.00634046