/*--------------------------------*- C++ -*----------------------------------*\
  =========                 |
  \\      /  F ield         | OpenFOAM: The Open Source CFD Toolbox
   \\    /   O peration     | Website:  https://openfoam.org
    \\  /    A nd           | Version:  9
     \\/     M anipulation  |
\*---------------------------------------------------------------------------*/
FoamFile
{
    format      ascii;
    class       surfaceScalarField;
    location    "2";
    object      phi;
}
// * * * * * * * * * * * * * * * * * * * * * * * * * * * * * * * * * * * * * //

dimensions      [0 3 -1 0 0 0 0];

internalField   nonuniform List<scalar> 
17370
(
-0.0883626
0.0923212
0.285052
-0.0753917
0.05839
0.363777
-0.0429009
0.0321669
0.426902
-0.0233386
0.0175013
0.505089
-0.0128113
0.00975938
0.602454
-0.00729154
0.0057345
0.720615
-0.00437596
0.00345651
0.863826
-0.00270888
0.00213602
1.03602
-0.00153265
0.00103295
1.243
-0.000474249
-2.61581e-05
1.49169
0.000522692
-0.00106413
1.49173
0.00155004
-0.00214201
1.24328
0.0026803
-0.00349174
1.03645
0.00442961
-0.00578548
0.864262
0.00734152
-0.00979854
0.721515
0.0128381
-0.0175203
0.603897
0.0233529
-0.0321758
0.508262
0.0429071
-0.0583948
0.431656
0.0753985
-0.0923325
0.36371
0.0883683
0.200643
-0.141078
0.116624
0.0244538
-0.362691
0.358268
-0.0395021
0.0439251
-0.440999
0.440912
-0.0448088
0.0448955
-0.517398
0.519589
-0.0440005
0.0418096
-0.610771
0.61494
-0.0386587
0.0344899
-0.72628
0.730675
-0.0302861
0.025891
-0.867663
0.87162
-0.0219623
0.0180057
-1.03903
1.04218
-0.0147556
0.0116048
-1.24546
1.24807
-0.00896435
0.00635752
-1.49369
1.49598
-0.00417168
0.0018812
-1.49354
1.49577
0.000336426
-0.00255961
-1.24483
1.24704
0.00490243
-0.00710995
-1.03816
1.04071
0.00962581
-0.0121762
-0.866485
0.8696
0.0151509
-0.0182657
-0.724318
0.728181
0.0220412
-0.0259043
-0.607738
0.611944
0.0304274
-0.034634
-0.512506
0.515645
0.0387998
-0.0419393
-0.435855
0.436751
0.0441109
-0.0450076
-0.369808
0.368904
0.0449109
-0.0440073
-0.265533
0.250453
0.0395518
-0.0244717
-0.106223
0.103657
0.00256563
-0.0140628
0.0188757
-0.366287
0.361474
-0.0227463
0.0249958
-0.436324
0.434075
-0.026146
0.0263702
-0.51641
0.516186
-0.0258119
0.0247415
-0.613659
0.61473
-0.0229088
0.0210012
-0.730707
0.732614
-0.0186187
0.0162519
-0.872359
0.874726
-0.0135427
0.0110692
-1.04342
1.04589
-0.00835369
0.00553678
-1.24967
1.25249
-0.00235628
-0.000629179
-1.49861
1.50159
0.00356178
-0.00655648
-1.49893
1.50192
0.00919964
-0.0120487
-1.25071
1.25355
0.0146693
-0.0174359
-1.04488
1.04765
0.0198202
-0.0222388
-0.874127
0.876545
0.0241205
-0.0257267
-0.732979
0.734585
0.0266263
-0.0270507
-0.616206
0.61663
0.0267211
-0.0254741
-0.519713
0.518466
0.0231348
-0.0192112
-0.439274
0.435351
0.0142835
-0.00805958
-0.352838
0.346614
0.00260532
-0.106155
0.10355
-0.104072
0.104077
-5.44905e-06
-0.00267131
0.0047659
-0.357751
0.355656
-0.00713589
0.00914348
-0.431351
0.429343
-0.0110985
0.0125474
-0.515168
0.513719
-0.0137367
0.014355
-0.615163
0.614545
-0.0145091
0.0141912
-0.73348
0.733798
-0.0133564
0.0122289
-0.876162
0.877289
-0.0106898
0.00905146
-1.04772
1.04936
-0.00698816
0.00475587
-1.25494
1.25717
-0.0019692
-0.000737699
-1.50438
1.50709
0.00340466
-0.00611581
-1.50466
1.50737
0.00842903
-0.0105208
-1.25592
1.25801
0.012203
-0.0136808
-1.04934
1.05082
0.0147119
-0.0154624
-0.8778
0.87855
0.0156913
-0.0153647
-0.735319
0.734993
0.0145843
-0.0132323
-0.616275
0.614923
0.0116534
-0.00955512
-0.516256
0.514157
0.00741707
-0.00490806
-0.431498
0.428989
0.00271691
-0.000812609
-0.343008
0.341103
-1.34677e-05
-0.103931
0.103945
-0.103761
0.103592
0.000169015
-0.00131452
0.00221115
-0.354349
0.353452
-0.00330906
0.00433294
-0.428001
0.426977
-0.0054047
0.00630662
-0.512582
0.51168
-0.00714598
0.0077447
-0.613882
0.613283
-0.0081465
0.00814178
-0.733909
0.733913
-0.00783353
0.00729718
-0.878057
0.878594
-0.00640565
0.00530336
-1.05073
1.05183
-0.0037975
0.00241178
-1.25892
1.26031
-0.000716575
-0.0010425
-1.5093
1.51106
0.00277121
-0.00439299
-1.50958
1.5112
0.0055898
-0.00723062
-1.2597
1.26134
0.00832323
-0.00892334
-1.05185
1.05245
0.00920973
-0.00925196
-0.878866
0.878909
0.00904352
-0.0085562
-0.734528
0.73404
0.00788903
-0.00697116
-0.613787
0.612869
0.00600992
-0.00488972
-0.512638
0.511517
0.00383618
-0.00270626
-0.427394
0.426264
0.00174323
-0.000854768
-0.339867
0.338978
0.000277896
-0.103605
0.103327
-0.103531
0.103431
9.99614e-05
-0.00062972
0.00103903
-0.352833
0.352424
-0.00156
0.0020617
-0.42622
0.425718
-0.00261359
0.00309798
-0.510985
0.510501
-0.00358178
0.00395497
-0.612778
0.612405
-0.00424979
0.00434598
-0.733836
0.73374
-0.00427021
0.00402115
-0.878956
0.879205
-0.00352862
0.00287303
-1.05268
1.05334
-0.0019395
0.00101633
-1.26143
1.26235
0.00013132
-0.00132651
-1.51249
1.51369
0.00252427
-0.00361455
-1.51246
1.51355
0.00439296
-0.00501864
-1.26257
1.26319
0.00537035
-0.00568592
-1.05287
1.05318
0.00575788
-0.00563687
-0.878819
0.878698
0.00536714
-0.00493593
-0.733559
0.733128
0.00444976
-0.0038498
-0.612123
0.611523
0.00326799
-0.00261933
-0.510667
0.510018
0.00203621
-0.00142446
-0.425436
0.424824
0.000912133
-0.000435959
-0.338333
0.337857
0.000131943
-0.103156
0.103024
-0.103299
0.103197
0.000102584
-0.00056927
0.000771842
-0.35214
0.351937
-0.000978698
0.00117367
-0.425415
0.42522
-0.00139622
0.0015984
-0.51019
0.509988
-0.00180607
0.00196782
-0.612156
0.611994
-0.00209382
0.00213567
-0.733666
0.733625
-0.00208583
0.00193264
-0.879391
0.879544
-0.00163093
0.00122428
-1.05385
1.05426
-0.000634356
-8.39575e-08
-1.26312
1.26375
0.000803846
-0.00162269
-1.51468
1.5155
0.00241721
-0.00315345
-1.51447
1.5152
0.00366374
-0.00380486
-1.26347
1.26361
0.00383912
-0.00392629
-1.05337
1.05346
0.00388475
-0.00371096
-0.878551
0.878377
0.00346584
-0.00313031
-0.732751
0.732416
0.0027841
-0.00238104
-0.611037
0.610634
0.00200671
-0.00160181
-0.509514
0.509109
0.00124635
-0.000879036
-0.424358
0.423991
0.000572066
-0.000282879
-0.337492
0.337203
9.07752e-05
-0.102913
0.102822
-0.103142
0.10312
2.15095e-05
-0.000187606
0.000276985
-0.351795
0.351706
-0.000368401
0.000450046
-0.42509
0.425008
-0.000537276
0.000611696
-0.509858
0.509783
-0.000682222
0.000728642
-0.611896
0.611849
-0.000749132
0.000728071
-0.733613
0.733634
-0.000649047
0.000512699
-0.87968
0.879817
-0.000283417
-6.23328e-06
-1.05459
1.05488
0.000415519
-0.000862228
-1.26428
1.26473
0.00142029
-0.00196831
-1.51617
1.51672
0.00247146
-0.0028956
-1.51577
1.5162
0.00314817
-0.00318895
-1.26369
1.26373
0.00315177
-0.00308764
-1.05346
1.0534
0.00295942
-0.00275493
-0.878186
0.877982
0.00252665
-0.00224603
-0.732112
0.731831
0.00197583
-0.00167492
-0.610292
0.609991
0.00140473
-0.00111915
-0.508774
0.508489
0.000871699
-0.000618209
-0.423691
0.423437
0.000406933
-0.000205646
-0.336966
0.336765
6.78533e-05
-0.102745
0.102678
-0.103118
0.103128
-9.98951e-06
1.56502e-05
-1.19581e-05
-0.351663
0.351659
9.58291e-06
-1.09058e-05
-0.424969
0.42497
1.83248e-05
-3.28917e-05
-0.509755
0.50977
6.07349e-05
-0.000101011
-0.611848
0.611889
0.000166694
-0.000252361
-0.733687
0.733773
0.000381065
-0.000537278
-0.879959
0.880115
0.000756985
-0.00100535
-1.05515
1.05539
0.00132927
-0.0016645
-1.26511
1.26544
0.00206099
-0.00242338
-1.51716
1.51753
0.00272433
-0.00293519
-1.5165
1.51671
0.00302477
-0.00300492
-1.26374
1.26372
0.00290602
-0.00275465
-1.05329
1.05314
0.00257546
-0.00234825
-0.877766
0.877539
0.00212169
-0.00186379
-0.731566
0.731308
0.00162637
-0.00137121
-0.609718
0.609463
0.00114636
-0.000912188
-0.508235
0.508001
0.000711893
-0.000508288
-0.423215
0.423012
0.000338071
-0.000173666
-0.336587
0.336422
5.82024e-05
-0.102616
0.102558
-0.103148
0.103178
-3.0078e-05
0.000139393
-0.00019663
-0.351689
0.351746
0.000265286
-0.000335226
-0.425009
0.425079
0.000421014
-0.000509232
-0.509823
0.509912
0.000618974
-0.000733298
-0.611967
0.612081
0.000876727
-0.00102691
-0.733891
0.734041
0.00121611
-0.00141315
-0.88029
0.880487
0.00165769
-0.00190567
-1.05564
1.05589
0.00220077
-0.00248141
-1.26575
1.26603
0.00278364
-0.00302825
-1.51782
1.51807
0.00319513
-0.00326603
-1.51685
1.51692
0.00323852
-0.00312849
-1.26366
1.26355
0.00297662
-0.00276556
-1.05295
1.05274
0.00254647
-0.00228919
-0.877298
0.877041
0.0020477
-0.00178357
-0.73105
0.730786
0.00154773
-0.00129939
-0.609215
0.608967
0.00108432
-0.000863385
-0.507777
0.507556
0.000675527
-0.00048493
-0.422818
0.422627
0.000324949
-0.000168598
-0.336264
0.336108
5.69824e-05
-0.1025
0.102444
-0.103217
0.103265
-4.83019e-05
0.000244583
-0.000353354
-0.351829
0.351938
0.000482747
-0.000611877
-0.425179
0.425308
0.000766836
-0.000921751
-0.510033
0.510188
0.00110728
-0.00129254
-0.612231
0.612416
0.00151372
-0.00173329
-0.734225
0.734445
0.00199278
-0.00224648
-0.88071
0.880964
0.00254
-0.00281753
-1.05615
1.05642
0.00312279
-0.00338927
-1.2663
1.26656
0.00364618
-0.00381919
-1.51827
1.51844
0.00389636
-0.00386683
-1.51694
1.51691
0.00375518
-0.00355993
-1.26339
1.2632
0.00333634
-0.00305984
-1.0525
1.05222
0.00279003
-0.00248672
-0.876763
0.87646
0.00221086
-0.00191564
-0.730509
0.730214
0.00165671
-0.00138757
-0.608711
0.608442
0.00115694
-0.000921281
-0.507331
0.507095
0.000721699
-0.000519755
-0.422434
0.422232
0.000350719
-0.000184246
-0.335949
0.335783
6.32721e-05
-0.102384
0.10232
-0.103323
0.10339
-6.7197e-05
0.000349037
-0.000508777
-0.352072
0.352232
0.000699383
-0.00088905
-0.425467
0.425656
0.00111495
-0.00133864
-0.510377
0.510601
0.00160388
-0.00186464
-0.612638
0.612899
0.00217074
-0.00246776
-0.734701
0.734998
0.00281098
-0.00313672
-0.881251
0.881577
0.00350133
-0.00383199
-1.05672
1.05705
0.00417822
-0.00446116
-1.26683
1.26712
0.00470761
-0.00484166
-1.51859
1.51873
0.00485396
-0.00473946
-1.51683
1.51672
0.00454567
-0.00426242
-1.26296
1.26268
0.00396192
-0.00360539
-1.05191
1.05155
0.00326887
-0.00289975
-0.876126
0.875757
0.00256903
-0.00222006
-0.729895
0.729546
0.00191656
-0.0016039
-0.608154
0.607841
0.00133715
-0.00106543
-0.506844
0.506572
0.000836018
-0.000604652
-0.422018
0.421786
0.000410424
-0.000217625
-0.335605
0.335412
7.54234e-05
-0.102252
0.102177
-0.103468
0.103558
-8.96096e-05
0.000469683
-0.000686472
-0.352419
0.352636
0.000944935
-0.00120161
-0.425878
0.426135
0.00150686
-0.00180835
-0.510862
0.511163
0.00216405
-0.00251234
-0.613202
0.61355
0.00291805
-0.00330896
-0.73534
0.735731
0.00375497
-0.00417278
-0.881946
0.882364
0.00463212
-0.00504016
-1.05742
1.05783
0.00545509
-0.00578001
-1.26742
1.26774
0.00604271
-0.00615719
-1.51885
1.51897
0.00611798
-0.00592297
-1.51656
1.51637
0.00564348
-0.00526138
-1.26235
1.26196
0.00486865
-0.00441292
-1.05115
1.05069
0.00398907
-0.00352839
-0.875345
0.874885
0.00312006
-0.00269158
-0.72916
0.728732
0.00232139
-0.0019408
-0.607497
0.607117
0.00161691
-0.00128782
-0.506274
0.505945
0.0010107
-0.000731275
-0.421533
0.421253
0.000496639
-0.000263341
-0.335201
0.334967
9.11276e-05
-0.102095
0.102003
-0.10366
0.103778
-0.000117268
0.000616223
-0.000901232
-0.352885
0.35317
0.00124103
-0.0015785
-0.42643
0.426767
0.00197929
-0.00237442
-0.511509
0.511904
0.00283995
-0.00329419
-0.613948
0.614403
0.00382186
-0.00432751
-0.736176
0.736682
0.00490205
-0.00543637
-0.882837
0.883371
0.00601881
-0.00653012
-1.05829
1.0588
0.00704161
-0.00743262
-1.2681
1.26849
0.0077332
-0.00784188
-1.51908
1.51918
0.00775534
-0.00747431
-1.51613
1.51585
0.00709676
-0.00659403
-1.26152
1.26102
0.006087
-0.00550469
-1.05018
1.0496
0.00496802
-0.0043887
-0.874368
0.873789
0.00387713
-0.00334222
-0.728254
0.727719
0.002881
-0.00240734
-0.606694
0.60622
0.00200518
-0.00159705
-0.50558
0.505172
0.00125358
-0.000907054
-0.420943
0.420596
0.000616133
-0.000326923
-0.334708
0.334419
0.000113365
-0.101901
0.101788
-0.103911
0.104064
-0.000152326
0.000799887
-0.00117023
-0.353495
0.353866
0.00161142
-0.00204896
-0.427152
0.42759
0.0025683
-0.00307992
-0.512354
0.512866
0.00368204
-0.00426907
-0.614919
0.615506
0.00494978
-0.00560099
-0.737256
0.737907
0.0063383
-0.00702117
-0.883975
0.884658
0.00776172
-0.00840698
-1.05937
1.06002
0.00904615
-0.00952727
-1.26892
1.2694
0.00988557
-0.00999726
-1.51929
1.51941
0.00985989
-0.00947854
-1.51552
1.51514
0.00898097
-0.00833029
-1.26045
1.2598
0.00767826
-0.00693534
-1.04894
1.0482
0.00625293
-0.00551925
-0.873138
0.872404
0.00487276
-0.00419851
-0.727119
0.726445
0.00361786
-0.0030235
-0.60569
0.605095
0.00251904
-0.00200762
-0.504715
0.504204
0.00157649
-0.0011418
-0.420209
0.419774
0.000776511
-0.000412716
-0.334095
0.333731
0.00014307
-0.10166
0.101517
-0.104236
0.104434
-0.000197101
0.00103346
-0.00151144
-0.354286
0.354764
0.00208126
-0.00264654
-0.428087
0.428653
0.00331718
-0.00397734
-0.513447
0.514107
0.00475352
-0.00550931
-0.616173
0.616928
0.0063843
-0.00722002
-0.738645
0.73948
0.00816387
-0.00903616
-0.88543
0.886302
0.00997827
-0.0107956
-1.06074
1.06156
0.0115993
-0.0121974
-1.26994
1.27054
0.0126324
-0.0127508
-1.51952
1.51964
0.0125531
-0.0120457
-1.5147
1.51419
0.0113989
-0.0105591
-1.25906
1.25822
0.00972412
-0.00877605
-1.04736
1.04641
0.00790815
-0.00697728
-0.871577
0.870646
0.00615849
-0.00530557
-0.725687
0.724834
0.00457174
-0.00382062
-0.604428
0.603677
0.00318308
-0.00253628
-0.503629
0.502982
0.00199164
-0.0014427
-0.419286
0.418737
0.000981421
-0.000521767
-0.333322
0.332862
0.00018103
-0.101356
0.101175
-0.104658
0.104913
-0.000255355
0.00133527
-0.00195229
-0.355307
0.355924
0.00268757
-0.00341654
-0.429294
0.430023
0.00428098
-0.00513171
-0.514856
0.515707
0.00613106
-0.00710312
-0.617786
0.618758
0.00822713
-0.0092984
-0.740427
0.741498
0.0105066
-0.0116199
-0.887287
0.888401
0.0128188
-0.0138538
-1.06248
1.06351
0.0148654
-0.0156105
-1.2712
1.27195
0.0161404
-0.0162656
-1.51976
1.51989
0.0159886
-0.0153218
-1.51361
1.51294
0.0144835
-0.0134042
-1.25727
1.25619
0.0123358
-0.0111254
-1.04534
1.04413
0.0100206
-0.00883587
-0.869597
0.868412
0.00779604
-0.00671333
-0.723873
0.72279
0.00578302
-0.00483091
-0.60283
0.601878
0.00402352
-0.00320526
-0.502255
0.501437
0.00251687
-0.00182297
-0.41812
0.417426
0.00123949
-0.000658059
-0.332346
0.331764
0.000227839
-0.100973
0.100745
-0.105205
0.105537
-0.000332467
0.00173068
-0.00252775
-0.356625
0.357423
0.00347721
-0.00441812
-0.430851
0.431792
0.00553325
-0.00662966
-0.516673
0.517769
0.00791684
-0.00916778
-0.61986
0.621111
0.0106122
-0.0119871
-0.742712
0.744086
0.0135329
-0.0149534
-0.889658
0.891079
0.0164766
-0.0177855
-1.06468
1.06599
0.0190555
-0.0199807
-1.27278
1.2737
0.0206223
-0.0207474
-1.52001
1.52014
0.0203624
-0.0194855
-1.51218
1.5113
0.0184
-0.0170135
-1.25496
1.25358
0.0156467
-0.0141048
-1.04276
1.04122
0.012699
-0.0111953
-0.867077
0.865573
0.00987544
-0.0085028
-0.721571
0.720199
0.00732328
-0.00611661
-0.600807
0.5996
0.00509353
-0.004057
-0.500516
0.499479
0.00318495
-0.00230594
-0.416645
0.415766
0.00156744
-0.00083221
-0.331111
0.330375
0.000288233
-0.100489
0.100201
-0.105917
0.106351
-0.000434672
0.00224987
-0.00328279
-0.35833
0.359363
0.00451293
-0.00573132
-0.432862
0.434081
0.00717424
-0.00859173
-0.519015
0.520433
0.0102535
-0.0118653
-0.622531
0.624142
0.0137229
-0.0154861
-0.745643
0.747406
0.0174636
-0.0192733
-0.892682
0.894492
0.0212052
-0.0228546
-1.06746
1.06911
0.0244411
-0.0255804
-1.27473
1.27587
0.0263459
-0.0264534
-1.52026
1.52036
0.0259173
-0.0247638
-1.5103
1.50914
0.0233597
-0.0215794
-1.25201
1.25023
0.0198333
-0.0178682
-1.03948
1.03751
0.016081
-0.0141717
-0.863878
0.861969
0.0124978
-0.0107581
-0.718653
0.716913
0.00926412
-0.00773673
-0.598242
0.596715
0.0064421
-0.0051305
-0.498313
0.497001
0.00402698
-0.00291488
-0.414777
0.413665
0.00198062
-0.00105054
-0.329549
0.328618
0.000363091
-0.0998768
0.0995137
-0.10685
0.107423
-0.000572874
0.00294316
-0.00428803
-0.36054
0.361885
0.00588862
-0.00747227
-0.435469
0.437052
0.00934575
-0.0111837
-0.522046
0.523884
0.0133351
-0.015418
-0.625974
0.628057
0.0178118
-0.0200765
-0.749405
0.751669
0.022605
-0.0249067
-0.896534
0.898835
0.0273473
-0.0294132
-1.07095
1.07302
0.0313769
-0.0327614
-1.27713
1.27851
0.0336509
-0.0337069
-1.52045
1.52051
0.0329551
-0.0314342
-1.50782
1.5063
0.0296176
-0.0273365
-1.24821
1.24593
0.0251097
-0.022612
-1.0353
1.0328
0.0203442
-0.0179236
-0.859819
0.857398
0.0158039
-0.0136017
-0.714955
0.712753
0.0117115
-0.00977935
-0.594997
0.593064
0.00814183
-0.0064828
-0.495526
0.493867
0.00508741
-0.0036816
-0.412414
0.411008
0.00250095
-0.00132612
-0.327573
0.326398
0.000458146
-0.0991065
0.0986483
-0.108084
0.108849
-0.000765261
0.00388686
-0.00564987
-0.363423
0.365186
0.00774658
-0.00981869
-0.438862
0.440934
0.0122665
-0.0146631
-0.525981
0.528378
0.0174607
-0.0201596
-0.630427
0.633126
0.0232488
-0.0261566
-0.754235
0.757143
0.0293837
-0.0323001
-0.901428
0.904344
0.0353631
-0.0379257
-1.07532
1.07789
0.0403218
-0.0419669
-1.28003
1.28167
0.0429566
-0.042899
-1.52052
1.52046
0.0418381
-0.0398291
-1.50455
1.50254
0.0374821
-0.034564
-1.24335
1.24043
0.0317337
-0.0285679
-1.02999
1.02682
0.0257
-0.0226421
-0.854677
0.851619
0.0199653
-0.0171839
-0.710278
0.707497
0.0147966
-0.0123555
-0.590892
0.588451
0.010287
-0.00819135
-0.492002
0.489906
0.00642807
-0.00465117
-0.409427
0.40765
0.00315834
-0.0016731
-0.325077
0.323592
0.000576972
-0.0981351
0.0975581
-0.109739
0.110778
-0.0010395
0.00520328
-0.00754056
-0.367212
0.36955
0.0103155
-0.0130512
-0.443312
0.446048
0.0162738
-0.0194186
-0.531121
0.534265
0.0230751
-0.0265864
-0.636203
0.639714
0.0305805
-0.0343123
-0.760438
0.76417
0.0384157
-0.0420827
-0.907618
0.911285
0.0458832
-0.0490096
-1.08073
1.08385
0.0518656
-0.0537532
-1.28345
1.28533
0.0547725
-0.0544931
-1.52031
1.52003
0.0529874
-0.0503346
-1.50023
1.49758
0.0473111
-0.0435995
-1.23714
1.23342
0.0400196
-0.0360303
-1.02326
1.01927
0.0324195
-0.0285719
-0.848186
0.844338
0.025202
-0.0217
-0.704374
0.700872
0.018691
-0.0156127
-0.585709
0.582631
0.0130013
-0.0103533
-0.487551
0.484903
0.00812414
-0.00587652
-0.405652
0.403404
0.00398856
-0.00211085
-0.321922
0.320045
0.000726844
-0.0969116
0.0961847
-0.112004
0.113458
-0.00145357
0.00712609
-0.0102776
-0.372251
0.375403
0.0140037
-0.0176618
-0.449206
0.452864
0.0219515
-0.0261165
-0.537884
0.542049
0.0309274
-0.0355099
-0.643726
0.648309
0.0406725
-0.0454397
-0.768392
0.77316
0.0506092
-0.0551545
-0.915378
0.919924
0.0597729
-0.063481
-1.08727
1.09098
0.0667546
-0.0687941
-1.28731
1.28935
0.0696943
-0.0690181
-1.51958
1.5189
0.0668788
-0.0633844
-1.49453
1.49104
0.059515
-0.0548285
-1.22925
1.22456
0.0503423
-0.0453572
-1.01481
1.00982
0.0408496
-0.0360407
-0.840032
0.835223
0.0318227
-0.0274283
-0.696946
0.692552
0.0236456
-0.0197669
-0.579174
0.575296
0.0164717
-0.0131258
-0.481927
0.478581
0.0103055
-0.00745879
-0.400877
0.39803
0.00506422
-0.00268092
-0.317932
0.315549
0.000923411
-0.0953664
0.094443
-0.115208
0.117359
-0.00215067
0.0102
-0.0145716
-0.379069
0.38344
0.0196797
-0.0246501
-0.457135
0.462105
0.0304291
-0.0359897
-0.546881
0.552442
0.0423438
-0.0483178
-0.653557
0.659531
0.0549415
-0.0609463
-0.778527
0.784532
0.0673197
-0.0727903
-0.924934
0.930405
0.0781919
-0.0823794
-1.09495
1.09914
0.0858905
-0.0878698
-1.2914
1.29338
0.0883766
-0.0870321
-1.51793
1.51659
0.0840016
-0.0794253
-1.48704
1.48246
0.0745209
-0.0686789
-1.21932
1.21348
0.0631319
-0.0569902
-1.00428
0.998136
0.0514368
-0.0455017
-0.829869
0.823933
0.040277
-0.0348123
-0.687641
0.682176
0.030085
-0.0252156
-0.570942
0.566073
0.0210591
-0.0168207
-0.474813
0.470574
0.0132338
-0.00959899
-0.394822
0.391187
0.00652969
-0.00346335
-0.312863
0.309796
0.00119511
-0.0933972
0.0922021
-0.119969
0.123622
-0.00365227
0.016084
-0.0223806
-0.388577
0.394874
0.029508
-0.0363131
-0.468081
0.474886
0.0441054
-0.0514977
-0.55901
0.566402
0.0597932
-0.0674276
-0.666373
0.674007
0.0756886
-0.082975
-0.791196
0.798483
0.090472
-0.0966932
-0.936286
0.942507
0.10259
-0.10693
-1.10346
1.10779
0.110268
-0.111788
-1.29519
1.29671
0.111462
-0.109063
-1.51477
1.51237
0.10481
-0.0988755
-1.47724
1.47131
0.0927457
-0.0855869
-1.20699
1.19984
0.0788648
-0.0714579
-0.991368
0.983961
0.0647696
-0.0576054
-0.817381
0.810217
0.051273
-0.0446061
-0.676097
0.66943
0.0387975
-0.0327652
-0.560597
0.554564
0.0275727
-0.0222263
-0.465765
0.460419
0.0176508
-0.0129559
-0.387065
0.38237
0.00892513
-0.0047922
-0.306358
0.302225
0.00166893
-0.0908369
0.089168
-0.127666
0.135706
-0.00803963
0.0304075
-0.0392969
-0.402697
0.411586
0.0487546
-0.0576748
-0.483673
0.492593
0.0677548
-0.0771507
-0.575319
0.584715
0.0874336
-0.0966045
-0.682591
0.691762
0.106194
-0.114348
-0.806245
0.814398
0.122397
-0.128765
-0.948852
0.95522
0.13447
-0.138305
-1.11194
1.11578
0.140785
-0.141227
-1.29775
1.2982
0.139468
-0.135516
-1.50924
1.50529
0.129648
-0.122075
-1.46457
1.457
0.11454
-0.105966
-1.19197
1.18339
0.0980262
-0.0893595
-0.975904
0.967238
0.0815694
-0.0732464
-0.80241
0.794087
0.0658838
-0.0581086
-0.662072
0.654297
0.0512971
-0.0441851
-0.547739
0.540627
0.0380088
-0.0315619
-0.454199
0.447752
0.0259334
-0.0199739
-0.376874
0.370914
0.014467
-0.00801222
-0.297793
0.291338
0.00277228
-0.087378
0.0846057
-0.144544
0.14667
-0.0021261
0.0180614
-0.0267546
-0.424941
0.433635
0.0366567
-0.0464899
-0.505126
0.514959
0.0577973
-0.0688796
-0.595593
0.606675
0.0807425
-0.0912654
-0.701182
0.711705
0.102877
-0.113129
-0.822234
0.832486
0.123728
-0.132786
-0.961002
0.97006
0.141735
-0.148867
-1.11881
1.12594
0.155137
-0.159191
-1.29767
1.30173
0.161218
-0.160401
-1.50024
1.49942
0.15663
-0.150313
-1.44842
1.4421
0.142982
-0.133697
-1.17404
1.16475
0.124633
-0.113771
-0.957939
0.947077
0.103729
-0.0925683
-0.785164
0.774003
0.0824524
-0.071544
-0.645813
0.634905
0.061613
-0.0513491
-0.532514
0.52225
0.0426863
-0.0334559
-0.439944
0.430714
0.0256177
-0.017586
-0.363518
0.355486
0.0103919
-0.00379645
-0.285016
0.278421
8.61284e-05
-0.0816372
0.0815511
-0.155622
0.150291
0.00533089
-0.00137392
-0.0050818
-0.446608
0.453063
0.013932
-0.0224924
-0.52664
0.535201
0.0327877
-0.0422584
-0.61747
0.626941
0.0528283
-0.0624284
-0.722258
0.731858
0.0726766
-0.0819375
-0.842405
0.851666
0.0915598
-0.0995383
-0.979018
0.986997
0.107658
-0.113816
-1.13314
1.1393
0.119225
-0.122441
-1.30578
1.30899
0.12351
-0.122011
-1.49815
1.49665
0.117745
-0.111187
-1.43537
1.42881
0.103666
-0.0945189
-1.15538
1.14623
0.0858247
-0.0760089
-0.936405
0.926589
0.0669251
-0.0569146
-0.762912
0.752902
0.0480205
-0.038875
-0.623578
0.614433
0.0311112
-0.0231656
-0.511071
0.503126
0.016608
-0.0104024
-0.419326
0.41312
0.00566219
-0.00128176
-0.344201
0.33982
-0.00173134
0.00338078
-0.268559
0.266909
-0.00278178
-0.0771416
0.0799234
-0.155109
0.151636
0.00347341
-0.00218257
-0.00193112
-0.462988
0.467102
0.0079049
-0.0144453
-0.544532
0.551073
0.0223262
-0.02998
-0.636168
0.643822
0.0386602
-0.0466989
-0.740929
0.748967
0.0555827
-0.0635415
-0.860298
0.868257
0.0716769
-0.0787962
-0.994869
1.00199
0.0858996
-0.0914148
-1.1452
1.15072
0.095903
-0.0983941
-1.31181
1.3143
0.0991085
-0.0973156
-1.4948
1.493
0.0930174
-0.0867359
-1.42206
1.41578
0.0798153
-0.0717656
-1.13747
1.12942
0.0639694
-0.0555557
-0.917088
0.908674
0.0479499
-0.0397578
-0.743886
0.735694
0.0328128
-0.0256985
-0.605851
0.598737
0.0198414
-0.0138084
-0.495005
0.488972
0.00913662
-0.00488116
-0.40536
0.401105
0.00178811
0.000735297
-0.332244
0.329721
-0.00240103
0.0031829
-0.259792
0.25901
-0.00227769
-0.0761029
0.0783806
-0.156507
0.153549
0.00295836
-0.00252116
-0.000630973
-0.474971
0.478123
0.00539061
-0.0109346
-0.558134
0.563678
0.017729
-0.0240995
-0.651082
0.657452
0.0315023
-0.0384098
-0.756723
0.763631
0.0460323
-0.0529221
-0.875803
0.882693
0.060379
-0.0665803
-1.00878
1.01499
0.0729981
-0.077611
-1.156
1.16061
0.0816666
-0.0838831
-1.31677
1.31899
0.0843069
-0.0822581
-1.49106
1.48901
0.0782732
-0.0725561
-1.40933
1.40361
0.0663141
-0.0588639
-1.12156
1.11411
0.0520426
-0.0448015
-0.900465
0.893224
0.0382146
-0.031509
-0.728072
0.721367
0.0255276
-0.0196182
-0.591737
0.585828
0.0147082
-0.00992451
-0.482829
0.478045
0.00621764
-0.0027428
-0.395105
0.39163
0.000203109
0.00153566
-0.323693
0.321955
-0.00285507
0.00324612
-0.25328
0.252889
-0.00208533
-0.0749317
0.077017
-0.158467
0.156081
0.00238519
-0.00205139
-0.000509485
-0.485004
0.487565
0.00510111
-0.00992278
-0.569866
0.574687
0.0156963
-0.0215789
-0.663839
0.669721
0.0280261
-0.0343027
-0.770254
0.77653
0.0411569
-0.047399
-0.889326
0.895568
0.0541095
-0.0599046
-1.02119
1.02698
0.0656743
-0.0701795
-1.16524
1.16974
0.0739413
-0.0759756
-1.32103
1.32306
0.0763007
-0.0742916
-1.48695
1.48494
0.0704864
-0.0649146
-1.39745
1.39188
0.0590841
-0.0523393
-1.10684
1.10009
0.0461251
-0.0394502
-0.885976
0.879301
0.0336056
-0.0275572
-0.71468
0.708632
0.0223761
-0.0171443
-0.579978
0.574746
0.0128679
-0.00869943
-0.472835
0.468666
0.00529706
-0.00220873
-0.386766
0.383678
0.000178508
0.00151599
-0.316939
0.315244
-0.0027429
0.00289059
-0.247963
0.247815
-0.00191766
-0.0739647
0.0758824
-0.160715
0.1586
0.00211477
-0.0015873
-0.00120003
-0.493796
0.496583
0.00518557
-0.00979892
-0.579856
0.584469
0.0155322
-0.0208747
-0.675263
0.680605
0.0268324
-0.0326644
-0.782444
0.788276
0.0391453
-0.0450821
-0.90167
0.907606
0.0515931
-0.0570509
-1.03267
1.03813
0.0626347
-0.0670213
-1.17412
1.17851
0.0706473
-0.0726137
-1.32496
1.32693
0.0728867
-0.0711991
-1.48287
1.48119
0.0673945
-0.0620549
-1.38592
1.38058
0.0563653
-0.0498133
-1.09319
1.08664
0.0440319
-0.0375512
-0.872564
0.866083
0.0319642
-0.0263535
-0.702558
0.696948
0.021521
-0.0166492
-0.569583
0.564712
0.0126301
-0.00856461
-0.464089
0.460024
0.00554448
-0.00265061
-0.379431
0.376537
0.000454121
0.00116523
-0.310789
0.30917
-0.00223687
0.00259969
-0.243382
0.243019
-0.00171239
-0.0730955
0.0748078
-0.163078
0.16142
0.00165866
-0.000744865
-0.00205298
-0.502047
0.504845
0.00624204
-0.010479
-0.589554
0.593791
0.016046
-0.02123
-0.685962
0.691146
0.0272806
-0.0327821
-0.794095
0.799597
0.0389899
-0.0447072
-0.913726
0.919443
0.0512952
-0.0566842
-1.0438
1.04919
0.0621341
-0.0666319
-1.18285
1.18735
0.0706735
-0.0726895
-1.32898
1.33099
0.073121
-0.0713748
-1.47907
1.47732
0.0677969
-0.0621531
-1.37486
1.36922
0.0565289
-0.0500679
-1.07978
1.07332
0.0441577
-0.0378819
-0.859518
0.853242
0.0323288
-0.0266428
-0.691024
0.685338
0.022104
-0.0172683
-0.559672
0.554836
0.0132363
-0.00939399
-0.4557
0.451858
0.00628252
-0.00325491
-0.372689
0.369662
0.0011216
0.000562378
-0.30525
0.303566
-0.00167236
0.00222493
-0.239106
0.238553
-0.00158789
-0.0722749
0.0738628
-0.165758
0.164404
0.00135395
5.79919e-05
-0.00290624
-0.509917
0.512765
0.00733325
-0.0117042
-0.5989
0.603271
0.0171655
-0.0222151
-0.696392
0.701442
0.0279598
-0.0336417
-0.805369
0.811051
0.0398553
-0.0460345
-0.925213
0.931392
0.0523252
-0.0578958
-1.05486
1.06043
0.063822
-0.0684107
-1.19188
1.19646
0.0723221
-0.0749263
-1.33298
1.33558
0.075616
-0.0740114
-1.47546
1.47386
0.0702699
-0.0646435
-1.3634
1.35777
0.0587777
-0.0520011
-1.06624
1.05946
0.0459061
-0.0393944
-0.846591
0.840079
0.0337203
-0.028066
-0.679505
0.673851
0.0231857
-0.0183734
-0.549777
0.544964
0.0144137
-0.0103974
-0.447651
0.443634
0.00715348
-0.00426603
-0.365891
0.363004
0.00198013
-4.57452e-05
-0.299818
0.297883
-0.00123619
0.00190975
-0.234976
0.234303
-0.00150547
-0.0716332
0.0731387
-0.16883
0.167637
0.00119318
0.00119738
-0.00426667
-0.517736
0.520805
0.00862499
-0.0131171
-0.608214
0.612706
0.0184533
-0.023648
-0.706846
0.712041
0.0295416
-0.0351489
-0.816839
0.822447
0.0418273
-0.0476108
-0.937275
0.943059
0.0542648
-0.0600188
-1.06633
1.07209
0.0662354
-0.0713578
-1.2012
1.20632
0.0758868
-0.0785412
-1.33802
1.34067
0.0796637
-0.0782864
-1.47198
1.4706
0.0747068
-0.0686736
-1.35157
1.34553
0.0624331
-0.0551404
-1.05226
1.04497
0.0486149
-0.0416223
-0.83299
0.825997
0.035704
-0.0296479
-0.667736
0.66168
0.024587
-0.0195728
-0.539847
0.534833
0.0154068
-0.0114847
-0.439355
0.435433
0.00811368
-0.00509509
-0.35912
0.356101
0.0026062
-0.000563064
-0.294323
0.29228
-0.000785612
0.00172037
-0.230783
0.229848
-0.00137569
-0.0711324
0.0725081
-0.171895
0.171096
0.000798951
0.00206367
-0.00563789
-0.525717
0.529291
0.009882
-0.0144951
-0.617223
0.621836
0.0196978
-0.0250008
-0.71734
0.722643
0.0310158
-0.0370234
-0.828213
0.834221
0.0434667
-0.0497267
-0.949262
0.955522
0.0567104
-0.0626427
-1.07846
1.08439
0.0693622
-0.0748407
-1.21145
1.21693
0.0798436
-0.0833086
-1.34378
1.34724
0.0850676
-0.0838894
-1.46907
1.46789
0.0801239
-0.0739181
-1.33907
1.33287
0.0672419
-0.0591557
-1.03689
1.02881
0.0518647
-0.0443455
-0.818396
0.810876
0.0375943
-0.0312456
-0.655085
0.648736
0.0258897
-0.0205598
-0.529661
0.524331
0.016375
-0.0122446
-0.430919
0.426788
0.00888164
-0.00561694
-0.352452
0.349187
0.00316733
-0.000999718
-0.288849
0.286681
-0.000603446
0.00163706
-0.226637
0.225603
-0.00139241
-0.0707262
0.0721186
-0.175237
0.174643
0.000593815
0.00277495
-0.00625823
-0.533859
0.537342
0.0111311
-0.0155458
-0.626649
0.631063
0.0210424
-0.0264127
-0.727836
0.733206
0.0325367
-0.0384328
-0.840183
0.846079
0.0452868
-0.0515452
-0.962013
0.968271
0.0588572
-0.0655518
-1.09097
1.09766
0.0723836
-0.0786013
-1.22267
1.22888
0.0844796
-0.0884459
-1.35074
1.35471
0.0909145
-0.0905199
-1.46673
1.46634
0.086808
-0.0803642
-1.32588
1.31943
0.0727925
-0.0637683
-1.01991
1.01088
0.0555893
-0.0469532
-0.802313
0.793677
0.039564
-0.0324644
-0.641526
0.634427
0.0266722
-0.0209892
-0.518702
0.51302
0.0165302
-0.0123731
-0.422328
0.418171
0.00886602
-0.00565294
-0.345568
0.342355
0.00315911
-0.000946579
-0.283348
0.281136
-0.00060273
0.00164309
-0.22265
0.221609
-0.00140991
-0.0707118
0.0721217
-0.178758
0.178437
0.00032009
0.00371499
-0.00730322
-0.542053
0.545642
0.0119658
-0.0166239
-0.635925
0.640583
0.0221497
-0.0275249
-0.738481
0.743856
0.0339392
-0.0398981
-0.852191
0.85815
0.0468773
-0.0535263
-0.975203
0.981852
0.0610637
-0.0680821
-1.10446
1.11148
0.0755683
-0.0822632
-1.23528
1.24197
0.0888833
-0.0940936
-1.35914
1.36435
0.0975041
-0.0976441
-1.4658
1.46594
0.0944249
-0.0875076
-1.3122
1.30528
0.0792974
-0.0691317
-1.00076
0.990594
0.0594235
-0.0493461
-0.783893
0.773815
0.0408413
-0.0326312