/*--------------------------------*- C++ -*----------------------------------*\
  =========                 |
  \\      /  F ield         | OpenFOAM: The Open Source CFD Toolbox
   \\    /   O peration     | Website:  https://openfoam.org
    \\  /    A nd           | Version:  9
     \\/     M anipulation  |
\*---------------------------------------------------------------------------*/
FoamFile
{
    format      ascii;
    class       volVectorField;
    location    "2";
    object      U;
}
// * * * * * * * * * * * * * * * * * * * * * * * * * * * * * * * * * * * * * //

dimensions      [0 1 -1 0 0 0 0];

internalField   nonuniform List<vector> 
8800
(
(0.971278 -0.0849658 0)
(1.01138 -0.0587816 0)
(1.00106 -0.032172 0)
(0.997514 -0.0176031 0)
(0.99606 -0.00977685 0)
(0.995397 -0.00568648 0)
(0.995058 -0.003402 0)
(0.995037 -0.00211454 0)
(0.995032 -0.00112459 0)
(0.995016 -0.000195482 0)
(0.995018 0.000695068 0)
(0.995034 0.00161613 0)
(0.995017 0.00268877 0)
(0.995192 0.00445394 0)
(0.995651 0.00742773 0)
(0.996649 0.0131283 0)
(0.998827 0.0238516 0)
(1.00479 0.0430602 0)
(1.01704 0.0755891 0)
(0.764445 0.0453791 0)
(0.441998 -0.00991667 0)
(1.05003 -0.038805 0)
(1.06702 -0.039119 0)
(1.04093 -0.0371506 0)
(1.02272 -0.031439 0)
(1.01193 -0.0241228 0)
(1.00625 -0.0171152 0)
(1.00333 -0.0112964 0)
(1.00201 -0.00654125 0)
(1.00129 -0.00262123 0)
(1.00118 0.00124303 0)
(1.00157 0.00516319 0)
(1.00253 0.00937058 0)
(1.00438 0.0143385 0)
(1.0086 0.0205435 0)
(1.01665 0.0279407 0)
(1.03086 0.0348273 0)
(1.05332 0.0388214 0)
(1.07465 0.0379775 0)
(0.901166 0.0333562 0)
(0.359698 -0.000106798 0)
(1.05119 -0.014652 0)
(1.04932 -0.0209478 0)
(1.03775 -0.0228295 0)
(1.02779 -0.0219526 0)
(1.02031 -0.0189899 0)
(1.01493 -0.0150752 0)
(1.01154 -0.0105819 0)
(1.00956 -0.00601473 0)
(1.00873 -0.00073013 0)
(1.00895 0.004365 0)
(1.01024 0.00917236 0)
(1.01301 0.0138654 0)
(1.01715 0.0181732 0)
(1.02346 0.0216124 0)
(1.03223 0.0232996 0)
(1.04314 0.0228424 0)
(1.05378 0.0186878 0)
(1.00809 0.0101612 0)
(0.359409 0.000121966 0)
(0.359988 0.0001329 0)
(1.02728 -0.00325868 0)
(1.03295 -0.00715447 0)
(1.0295 -0.0102944 0)
(1.0247 -0.0122964 0)
(1.01875 -0.0124972 0)
(1.01423 -0.0110816 0)
(1.01071 -0.00853091 0)
(1.00888 -0.00514477 0)
(1.00766 -0.000508583 0)
(1.00784 0.00406598 0)
(1.00942 0.00818835 0)
(1.01201 0.0112605 0)
(1.01602 0.0131178 0)
(1.02107 0.0135543 0)
(1.02634 0.0121158 0)
(1.03055 0.00932141 0)
(1.03255 0.00542871 0)
(0.985096 0.00143213 0)
(0.35951 -0.000132245 0)
(0.358676 -3.94906e-05 0)
(1.02051 -0.00150673 0)
(1.0273 -0.00334021 0)
(1.026 -0.00510704 0)
(1.02399 -0.00648806 0)
(1.02112 -0.00711131 0)
(1.01837 -0.00657434 0)
(1.0158 -0.00509964 0)
(1.01432 -0.00265087 0)
(1.01331 0.000133557 0)
(1.01349 0.00314437 0)
(1.01506 0.00549839 0)
(1.01653 0.00755184 0)
(1.01904 0.00801655 0)
(1.02158 0.00766566 0)
(1.0238 0.00647989 0)
(1.02541 0.00474913 0)
(1.02559 0.00284827 0)
(0.978729 0.0011024 0)
(0.357964 8.31636e-05 0)
(0.358062 -4.0713e-05 0)
(1.0167 -0.000709091 0)
(1.02337 -0.00157587 0)
(1.02289 -0.00248836 0)
(1.02192 -0.00328302 0)
(1.02044 -0.00375397 0)
(1.01871 -0.00361528 0)
(1.01693 -0.00279319 0)
(1.01555 -0.00126636 0)
(1.01462 0.000626058 0)
(1.01454 0.00270005 0)
(1.01617 0.00405355 0)
(1.0167 0.00479832 0)
(1.0183 0.00496959 0)
(1.0198 0.00448693 0)
(1.02096 0.00361144 0)
(1.02173 0.00256353 0)
(1.02142 0.00150271 0)
(0.974868 0.000574496 0)
(0.356675 3.51226e-05 0)
(0.357225 -2.58772e-05 0)
(1.01517 -0.000598344 0)
(1.02196 -0.000931957 0)
(1.02168 -0.00130173 0)
(1.02113 -0.00164188 0)
(1.02029 -0.00184572 0)
(1.01921 -0.00175658 0)
(1.01799 -0.00125148 0)
(1.01686 -0.000277204 0)
(1.01604 0.00104808 0)
(1.01588 0.00240336 0)
(1.01682 0.00329055 0)
(1.01721 0.00335007 0)
(1.01804 0.00330658 0)
(1.01881 0.00286915 0)
(1.01938 0.00224766 0)
(1.01974 0.00156719 0)
(1.0192 0.000923676 0)
(0.972779 0.000363869 0)
(0.355921 2.72298e-05 0)
(0.356824 -1.04739e-06 0)
(1.01432 -0.000206218 0)
(1.02133 -0.000356447 0)
(1.02116 -0.00050021 0)
(1.0208 -0.000615943 0)
(1.02026 -0.000647409 0)
(1.01952 -0.000513936 0)
(1.01863 -0.000129582 0)
(1.01771 0.000549308 0)
(1.01694 0.00146603 0)
(1.01663 0.00232508 0)
(1.01691 0.00277312 0)
(1.01719 0.00270417 0)
(1.01759 0.00248383 0)
(1.01796 0.00207448 0)
(1.01823 0.00158461 0)
(1.01839 0.00109579 0)
(1.01776 0.000646146 0)
(0.971408 0.000261328 0)
(0.355386 2.14662e-05 0)
(0.356806 5.62883e-06 0)
(1.01407 1.05879e-05 0)
(1.02114 7.87545e-06 0)
(1.02104 2.06605e-05 0)
(1.02079 6.79615e-05 0)
(1.0204 0.000177683 0)
(1.01985 0.000392892 0)
(1.01915 0.000758329 0)
(1.01833 0.00129275 0)
(1.01755 0.00194232 0)
(1.01705 0.00245671 0)
(1.01693 0.00263622 0)
(1.01697 0.0024566 0)
(1.01709 0.00213763 0)
(1.01721 0.00173012 0)
(1.01731 0.0013012 0)
(1.01737 0.000893596 0)
(1.01668 0.000528812 0)
(0.970376 0.000217834 0)
(0.354957 1.92519e-05 0)
(0.356949 1.23116e-05 0)
(1.01424 0.000145906 0)
(1.02132 0.00025996 0)
(1.02126 0.000402414 0)
(1.02105 0.000584672 0)
(1.02073 0.000822413 0)
(1.02026 0.00113602 0)
(1.01962 0.00153947 0)
(1.01882 0.00202472 0)
(1.01795 0.0025176 0)
(1.01723 0.00280288 0)
(1.01683 0.00275619 0)
(1.01662 0.00248993 0)
(1.01652 0.00209739 0)
(1.01649 0.00166136 0)
(1.01648 0.00123481 0)
(1.01647 0.000843308 0)
(1.01574 0.000503703 0)
(0.96946 0.000210819 0)
(0.354561 1.93205e-05 0)
(0.357218 1.83318e-05 0)
(1.01472 0.000258965 0)
(1.0218 0.000473999 0)
(1.02175 0.000731422 0)
(1.02155 0.00103875 0)
(1.02125 0.00140586 0)
(1.02078 0.00183408 0)
(1.02012 0.00231835 0)
(1.01926 0.00281869 0)
(1.01822 0.00323411 0)
(1.01726 0.00336525 0)
(1.01658 0.0031711 0)
(1.01615 0.00277337 0)
(1.01588 0.00228791 0)
(1.01572 0.00178902 0)
(1.01562 0.00131894 0)
(1.01556 0.000901488 0)
(1.01481 0.000537773 0)
(0.968543 0.000228782 0)
(0.354149 2.19911e-05 0)
(0.357616 2.48365e-05 0)
(1.01549 0.000371163 0)
(1.02256 0.00068886 0)
(1.0225 0.00106283 0)
(1.0223 0.00150302 0)
(1.02196 0.0020086 0)
(1.02145 0.0025757 0)
(1.02071 0.00317539 0)
(1.0197 0.00374132 0)
(1.01842 0.00413743 0)
(1.01716 0.0041587 0)
(1.01619 0.00381849 0)
(1.01554 0.00327983 0)
(1.0151 0.00267321 0)
(1.01483 0.00207605 0)
(1.01466 0.00152584 0)
(1.01456 0.00104239 0)
(1.01378 0.000623991 0)
(0.967515 0.000267973 0)
(0.353672 2.69502e-05 0)
(0.358156 3.30514e-05 0)
(1.01658 0.000500868 0)
(1.02363 0.00092971 0)
(1.02355 0.00143668 0)
(1.02331 0.00202525 0)
(1.02292 0.0026974 0)
(1.02231 0.00343369 0)
(1.02142 0.00418831 0)
(1.02018 0.00486603 0)
(1.01859 0.00528529 0)
(1.01695 0.00521772 0)
(1.01566 0.00472491 0)
(1.01476 0.00402219 0)
(1.01415 0.00325791 0)
(1.01375 0.00251813 0)
(1.01351 0.00184732 0)
(1.01336 0.00125799 0)
(1.01256 0.000756134 0)
(0.966293 0.000323749 0)
(0.353102 3.25788e-05 0)
(0.358868 4.29082e-05 0)
(1.01802 0.000656504 0)
(1.02505 0.00122201 0)
(1.02494 0.00188616 0)
(1.02464 0.00265791 0)
(1.02416 0.00353003 0)
(1.02341 0.00447753 0)
(1.0223 0.00543485 0)
(1.02076 0.00626907 0)
(1.01874 0.00674795 0)
(1.01663 0.00659912 0)
(1.01495 0.0059317 0)
(1.01376 0.0050223 0)
(1.01295 0.00405427 0)
(1.01242 0.0031284 0)
(1.01209 0.00229257 0)
(1.01189 0.00156095 0)
(1.01107 0.000936747 0)
(0.964798 0.000402317 0)
(0.352398 4.02523e-05 0)
(0.359794 5.59243e-05 0)
(1.01989 0.000853232 0)
(1.02691 0.00158604 0)
(1.02675 0.00244734 0)
(1.02638 0.00344477 0)
(1.02576 0.00457037 0)
(1.02481 0.00578655 0)
(1.02342 0.00700319 0)
(1.02146 0.00804414 0)
(1.01888 0.00861419 0)
(1.01619 0.0083789 0)
(1.01403 0.00750024 0)
(1.01248 0.00633148 0)
(1.01143 0.00510052 0)
(1.01074 0.00393052 0)
(1.01032 0.0028772 0)
(1.01006 0.0019625 0)
(1.0092 0.00117724 0)
(0.962926 0.000508102 0)
(0.351512 5.094e-05 0)
(0.360995 7.24282e-05 0)
(1.02233 0.00110184 0)
(1.02931 0.00204879 0)
(1.02909 0.00316062 0)
(1.02861 0.0044459 0)
(1.02782 0.00589359 0)
(1.02661 0.00745018 0)
(1.02482 0.00899745 0)
(1.02232 0.0103074 0)
(1.01904 0.0109974 0)
(1.01559 0.0106583 0)
(1.01283 0.0095129 0)
(1.01085 0.00801455 0)
(1.0095 0.00644934 0)
(1.00862 0.00496798 0)
(1.00807 0.00363639 0)
(1.00775 0.00247837 0)
(1.00685 0.00148868 0)
(0.960561 0.000641003 0)
(0.350398 6.47718e-05 0)
(0.362551 9.38924e-05 0)
(1.02547 0.00142298 0)
(1.0324 0.0026458 0)
(1.0321 0.00407825 0)
(1.03148 0.00573403 0)
(1.03047 0.00759171 0)
(1.0289 0.00958369 0)
(1.02661 0.0115519 0)
(1.0234 0.0132006 0)
(1.0192 0.0140401 0)
(1.01481 0.0135658 0)
(1.01129 0.0120821 0)
(1.00878 0.0101651 0)
(1.00707 0.00817035 0)
(1.00595 0.00628641 0)
(1.00525 0.00459962 0)
(1.00483 0.00313161 0)
(1.00387 0.00188191 0)
(0.957575 0.000809334 0)
(0.348993 8.13552e-05 0)
(0.364571 0.00012282 0)
(1.02952 0.0018443 0)
(1.03639 0.00342142 0)
(1.03598 0.00527003 0)
(1.03517 0.00740107 0)
(1.03386 0.00978954 0)
(1.03183 0.0123384 0)
(1.02887 0.014839 0)
(1.02474 0.0169081 0)
(1.01937 0.017924 0)
(1.01378 0.0172658 0)
(1.00931 0.0153418 0)
(1.00613 0.0128891 0)
(1.00396 0.0103528 0)
(1.00255 0.00796318 0)
(1.00166 0.00582427 0)
(1.00113 0.00396552 0)
(1.00012 0.00238001 0)
(0.953802 0.00102417 0)
(0.347218 0.00010279 0)
(0.367204 0.000161217 0)
(1.03477 0.00239519 0)
(1.04155 0.00444036 0)
(1.041 0.00683087 0)
(1.03993 0.00958304 0)
(1.0382 0.0126525 0)
(1.03556 0.0159113 0)
(1.03171 0.0190828 0)
(1.0264 0.0216671 0)
(1.01953 0.022877 0)
(1.01242 0.0219607 0)
(1.00678 0.019471 0)
(1.00275 0.0163338 0)
(1.00002 0.0131072 0)
(0.998228 0.0100773 0)
(0.997111 0.00736676 0)
(0.99645 0.00501571 0)
(0.995351 0.00300902 0)
(0.949023 0.00129357 0)
(0.344974 0.00012921 0)
(0.370665 0.000213891 0)
(1.04158 0.0031315 0)
(1.04825 0.00579098 0)
(1.04749 0.00889456 0)
(1.04607 0.0124559 0)
(1.04379 0.0164115 0)
(1.04031 0.0205778 0)
(1.03529 0.0245829 0)
(1.02843 0.0277818 0)
(1.01964 0.0291863 0)
(1.01064 0.0279019 0)
(1.00352 0.0246761 0)
(0.998461 0.0206771 0)
(0.99502 0.0165808 0)
(0.99277 0.0127412 0)
(0.991363 0.00931254 0)
(0.990531 0.00633829 0)
(0.989333 0.00380095 0)
(0.942988 0.00163253 0)
(0.342151 0.000162975 0)
(0.375253 0.000288099 0)
(1.05048 0.0041276 0)
(1.05698 0.00761319 0)
(1.05593 0.0116678 0)
(1.05402 0.0162957 0)
(1.05096 0.0213973 0)
(1.04634 0.0267138 0)
(1.03975 0.0317399 0)
(1.03087 0.0356438 0)
(1.01964 0.0372033 0)
(1.00828 0.0353915 0)
(0.999351 0.0312163 0)
(0.993013 0.0261261 0)
(0.988695 0.0209451 0)
(0.985869 0.0160972 0)
(0.984098 0.0117651 0)
(0.983048 0.00800648 0)
(0.981721 0.00480249 0)
(0.935357 0.0020616 0)
(0.338591 0.000204617 0)
(0.381432 0.000396161 0)
(1.06221 0.0055151 0)
(1.06847 0.010128 0)
(1.06697 0.0154615 0)
(1.06433 0.0215099 0)
(1.06016 0.0281029 0)
(1.05395 0.0348582 0)
(1.04523 0.0410947 0)
(1.0337 0.0457523 0)
(1.01942 0.0473524 0)
(1.00517 0.0447781 0)
(0.994036 0.0393918 0)
(0.986129 0.0329498 0)
(0.98072 0.0264253 0)
(0.97716 0.0203208 0)
(0.974919 0.0148645 0)
(0.973588 0.0101214 0)
(0.972095 0.00606872 0)
(0.925711 0.00260142 0)
(0.334108 0.000257532 0)
(0.389951 0.000562845 0)
(1.07786 0.00752742 0)
(1.08371 0.0137219 0)
(1.08153 0.0208201 0)
(1.07777 0.0287703 0)
(1.07192 0.0372855 0)
(1.06342 0.0457952 0)
(1.0518 0.0533797 0)
(1.03685 0.0587224 0)
(1.01878 0.0601213 0)
(1.00105 0.0564616 0)
(0.987289 0.0495494 0)
(0.977481 0.041464 0)
(0.970715 0.0333126 0)
(0.966215 0.0256706 0)
(0.963355 0.0188093 0)
(0.961644 0.0128239 0)
(0.959926 0.00770001 0)
(0.913508 0.00330386 0)
(0.328436 0.00032778 0)
(0.402161 0.000848386 0)
(1.09903 0.0107069 0)
(1.10421 0.0192045 0)
(1.10085 0.0287539 0)
(1.09521 0.0392456 0)
(1.08673 0.0501709 0)
(1.07488 0.0606692 0)
(1.05932 0.0695487 0)
(1.04 0.0752909 0)
(1.01736 0.0760388 0)
(0.995594 0.0708462 0)
(0.978788 0.0620599 0)
(0.966723 0.0520496 0)
(0.958265 0.0419975 0)
(0.952522 0.0325282 0)
(0.948793 0.0239558 0)
(0.946526 0.0164115 0)
(0.944479 0.00989689 0)
(0.897986 0.00426522 0)
(0.321182 0.000426078 0)
(0.420935 0.00146085 0)
(1.12845 0.0165767 0)
(1.13235 0.0284705 0)
(1.12659 0.0413535 0)
(1.11752 0.0550542 0)
(1.10475 0.0686944 0)
(1.088 0.081063 0)
(1.06717 0.0907775 0)
(1.04249 0.0962428 0)
(1.01458 0.0956164 0)
(0.988316 0.0883114 0)
(0.968136 0.0772961 0)
(0.953492 0.0651438 0)
(0.942975 0.0530229 0)
(0.935573 0.0415345 0)
(0.930562 0.0309911 0)
(0.927396 0.021563 0)
(0.924796 0.0132618 0)
(0.87814 0.00589271 0)
(0.311661 0.000600794 0)
(0.45153 0.00334037 0)
(1.1715 0.0297292 0)
(1.17187 0.0459791 0)
(1.16054 0.0626689 0)
(1.14504 0.0796905 0)
(1.12546 0.0955563 0)
(1.10186 0.108845 0)
(1.07439 0.118239 0)
(1.04345 0.122269 0)
(1.00977 0.119256 0)
(0.978814 0.109155 0)
(0.95513 0.0955873 0)
(0.937707 0.0812208 0)
(0.924795 0.067096 0)
(0.915243 0.0537317 0)
(0.908284 0.0413493 0)
(0.90342 0.030129 0)
(0.899452 0.0198305 0)
(0.852785 0.009871 0)
(0.299274 0.00106184 0)
(0.497139 0.0162662 1.6737e-19)
(1.2332 0.061921 1.55215e-19)
(1.22288 0.0800969 -5.4013e-20)
(1.20106 0.0995147 0)
(1.17595 0.117961 -1.26685e-33)
(1.1475 0.133808 1.82117e-20)
(1.11563 0.145984 -3.08523e-20)
(1.08053 0.153421 0)
(1.04261 0.154774 5.90657e-34)
(1.00258 0.148488 -3.39848e-20)
(0.966466 0.135159 0)
(0.938857 0.119005 -3.83596e-20)
(0.918152 0.102674 -1.11765e-19)
(0.902191 0.0870337 -5.23716e-20)
(0.889596 0.0725673 -1.55285e-20)
(0.879427 0.059525 -9.17692e-21)
(0.871046 0.0482492 0)
(0.863287 0.0385435 6.42153e-21)
(0.816459 0.0286546 7.53495e-21)
(0.284632 0.00898849 1.34029e-19)
(0.520089 0.0469256 1.40666e-19)
(1.28878 0.121783 1.01378e-21)
(1.26838 0.137036 1.54085e-20)
(1.23734 0.153678 0)
(1.20351 0.169455 -6.74509e-20)
(1.16678 0.182891 -7.44633e-20)
(1.12709 0.192681 -3.19424e-20)
(1.08449 0.197602 -1.07457e-19)
(1.03928 0.19618 0)
(0.992022 0.18686 1.44773e-19)
(0.949389 0.170739 1.39808e-19)
(0.916462 0.152622 4.05935e-20)
(0.891286 0.135157 1.44453e-19)
(0.871315 0.119153 2.00111e-19)
(0.8549 0.104942 0)
(0.840967 0.0929157 2.79721e-19)
(0.828806 0.0832174 4.02318e-19)
(0.817433 0.0762937 4.46959e-19)
(0.772147 0.0678159 -5.05992e-19)
(0.272942 0.0252472 -8.9644e-21)
(0.518674 0.0781512 0)
(1.32514 0.198583 3.24966e-20)
(1.30062 0.208157 0)
(1.26363 0.219031 -1.03634e-19)
(1.22343 0.229856 0)
(1.1802 0.238959 -1.52785e-19)
(1.13396 0.244899 6.66486e-20)
(1.08482 0.24615 -2.22218e-19)
(1.03316 0.241124 -2.3795e-21)
(0.979583 0.228176 7.56289e-20)
(0.931506 0.209028 3.01112e-19)
(0.894454 0.189029 1.14904e-22)
(0.866154 0.170795 -1.03394e-19)
(0.843784 0.154854 -1.83927e-19)
(0.825622 0.141342 2.17389e-19)
(0.810579 0.13033 -3.83494e-19)
(0.797859 0.121866 -5.0585e-20)
(0.786458 0.115827 0)
(0.743278 0.106592 2.30432e-21)
(0.266796 0.0394253 0)
(0.51999 0.107493 5.1034e-19)
(1.34486 0.274028 -2.5464e-19)
(1.31902 0.280511 -1.71581e-19)
(1.27934 0.287251 5.29501e-20)
(1.2355 0.293703 -8.73569e-20)
(1.1878 0.298463 3.24191e-19)
(1.13645 0.300224 1.40662e-19)
(1.0818 0.297407 0)
(1.02446 0.288338 -3.94569e-19)
(0.96526 0.27132 0)
(0.912523 0.248722 -1.58018e-19)
(0.872301 0.226491 -1.87446e-19)
(0.84198 0.207056 -1.10241e-19)
(0.818388 0.190637 -1.31183e-19)
(0.799594 0.177094 0)
(0.784312 0.166219 0)
(0.771669 0.157887 -3.24432e-19)
(0.760487 0.151986 6.36565e-20)
(0.718769 0.141189 -3.74782e-20)
(0.259897 0.0521599 -4.28903e-20)
(0.521582 0.13555 -2.98841e-19)
(1.35698 0.347597 0)
(1.32971 0.351873 4.10954e-19)
(1.28787 0.355248 1.63613e-19)
(1.24126 0.358027 1.93643e-19)
(1.19008 0.358977 0)
(1.1346 0.356842 1.44557e-19)
(1.07531 0.349994 2.49323e-19)
(1.013 0.336705 2.06094e-19)
(0.948875 0.315245 3.46277e-19)
(0.892245 0.288718 0)
(0.849646 0.263726 -3.96987e-19)
(0.818053 0.242531 -2.32527e-19)
(0.793885 0.225076 -1.35118e-19)
(0.774947 0.210906 8.12493e-19)
(0.759803 0.199621 9.58718e-20)
(0.747425 0.190956 4.54998e-19)
(0.736611 0.184643 -2.16039e-18)
(0.696322 0.172252 1.27057e-18)
(0.253404 0.0636628 -1.51035e-18)
(0.522866 0.162354 -2.59353e-19)
(1.36341 0.418273 6.56218e-20)
(1.33484 0.421162 -5.88244e-20)
(1.29136 0.421957 -2.11607e-19)
(1.24246 0.421746 -1.91056e-19)
(1.18839 0.41942 3.23706e-21)
(1.12935 0.413713 -1.55787e-19)
(1.06594 0.403014 2.6274e-19)
(0.999139 0.385458 -4.41348e-19)
(0.930538 0.359296 0)
(0.870522 0.328316 -1.83088e-19)
(0.826099 0.299971 -7.04943e-22)
(0.79377 0.276491 -2.47876e-19)
(0.769454 0.257484 0)
(0.750703 0.242278 -1.72034e-19)
(0.735926 0.230189 -4.04319e-19)
(0.723982 0.220929 1.08124e-18)
(0.713627 0.213971 -1.06817e-18)
(0.674769 0.19996 1.50404e-18)
(0.247019 0.0739965 -1.5403e-18)
(0.524075 0.188199 -3.46756e-21)
(1.36618 0.48629 -6.38035e-20)
(1.33628 0.488095 -2.34653e-19)
(1.29125 0.486853 1.06181e-19)
(1.24035 0.484195 -1.01111e-19)
(1.18368 0.479088 0)
(1.12141 0.470199 -1.57444e-19)
(1.0542 0.455899 -2.78972e-19)
(0.983152 0.434135 -2.33037e-19)
(0.91031 0.403018 0)
(0.847205 0.367056 -1.90229e-19)
(0.801368 0.334779 -2.2224e-19)
(0.768697 0.308503 2.61681e-19)
(0.744618 0.287505 -1.55819e-19)
(0.72634 0.270907 -7.19507e-19)
(0.712114 0.257874 4.2572e-19)
(0.700748 0.247727 1.26776e-19)
(0.690938 0.240067 0)
(0.653545 0.224472 -1.4e-18)
(0.240807 0.0832923 -4.99696e-20)
(0.525388 0.213305 -3.24105e-20)
(1.36648 0.551616 6.41906e-20)
(1.33518 0.552669 1.24798e-19)
(1.28867 0.549755 3.53652e-19)
(1.23587 0.545106 -4.16067e-19)
(1.17674 0.537582 3.7904e-19)
(1.11147 0.52591 3.40181e-19)
(1.04057 0.508249 -4.48173e-19)
(0.965403 0.482418 1.32525e-19)
(0.888327 0.446182 -8.39326e-19)
(0.822196 0.404721 -2.06006e-19)
(0.775198 0.367891 0)
(0.742557 0.338248 2.7528e-19)
(0.719063 0.314935 3.19487e-19)
(0.701538 0.296734 3.77575e-19)
(0.688086 0.28247 -4.43686e-19)
(0.677447 0.27145 -1.29787e-19)
(0.668258 0.263045 1.5576e-19)
(0.632357 0.2459 0)
(0.234979 0.0917359 -1.04654e-19)
(0.526868 0.237702 3.1079e-19)
(1.36512 0.614208 -2.51836e-19)
(1.33231 0.614851 -1.33233e-19)
(1.28434 0.610607 2.45566e-19)
(1.22972 0.604252 -2.13718e-19)
(1.16826 0.594712 -6.32017e-21)
(1.10005 0.580601 -3.69549e-19)
(1.02558 0.559925 -1.61388e-19)
(0.946213 0.530236 -4.03585e-19)
(0.864699 0.488755 9.54323e-22)
(0.795401 0.441238 -6.49225e-19)
(0.747381 0.399117 5.00858e-19)
(0.71515 0.36556 -2.87705e-19)
(0.692661 0.339539 3.34151e-19)
(0.676246 0.319521 0)
(0.663816 0.304032 -2.2738e-19)
(0.654035 0.292162 -3.97911e-21)
(0.645596 0.282974 -6.35941e-19)
(0.611288 0.264499 -9.48024e-20)
(0.229571 0.0994159 0)
(0.528277 0.261227 0)
(1.36265 0.674384 -2.73726e-19)
(1.32828 0.674697 -2.663e-19)
(1.27887 0.669358 -2.5617e-19)
(1.22246 0.661594 -2.40696e-19)
(1.15875 0.65033 0)
(1.08769 0.634123 -1.86017e-19)
(1.00965 0.61079 -3.62174e-22)
(0.925959 0.577517 8.67448e-19)
(0.839625 0.530781 -1.18528e-19)
(0.766745 0.476664 -4.62753e-19)
(0.717673 0.42836 2.65442e-19)
(0.686246 0.39018 2.27019e-21)
(0.665323 0.361023 3.47236e-19)
(0.650536 0.339081 2.03209e-19)
(0.639473 0.322403 -4.77644e-19)
(0.630796 0.309695 5.56567e-19)
(0.623201 0.299937 1.62012e-19)
(0.590553 0.280321 6.74933e-19)
(0.224773 0.106517 -1.7763e-18)
(0.530015 0.284394 5.87202e-20)
(1.35942 0.732229 -1.31327e-19)
(1.32346 0.732236 1.21357e-19)
(1.27267 0.725966 2.62694e-19)
(1.2145 0.717018 0)
(1.14862 0.704325 -2.15762e-19)
(1.07478 0.686329 6.13705e-19)
(0.993222 0.660784 3.68565e-19)
(0.904974 0.6243 0)
(0.813306 0.57254 -1.6742e-18)
(0.736059 0.511226 1.23436e-18)
(0.685752 0.455601 0)
(0.655607 0.411751 3.12838e-19)
(0.637034 0.379046 4.74843e-21)
(0.624564 0.3551 -6.17192e-19)
(0.615352 0.337477 2.4454e-19)
(0.608054 0.324193 0)
(0.601476 0.314038 8.29941e-19)
(0.570608 0.293757 0)
(0.221242 0.113521 -7.91268e-19)
(0.532083 0.307246 -5.9142e-20)
(1.35567 0.787858 -1.23824e-19)
(1.31818 0.787517 1.33925e-19)
(1.26601 0.780427 0)
(1.20617 0.770494 -2.59545e-19)
(1.13819 0.756619 0)
(1.06168 0.737186 -6.39751e-19)
(0.976611 0.709821 -1.86965e-19)
(0.883672 0.670653 1.62913e-19)
(0.786019 0.614124 -8.30584e-19)
(0.703396 0.54526 1.32105e-19)
(0.651166 0.48098 0)
(0.622775 0.430006 -6.51817e-19)
(0.607653 0.392935 -6.09567e-21)
(0.598675 0.366964 0)
(0.59215 0.348692 -2.01282e-21)
(0.586655 0.335486 7.07816e-19)
(0.581233 0.325455 -6.68294e-19)
(0.552344 0.305045 1.95859e-19)
(0.219499 0.120686 0)
(0.533845 0.32921 0)
(1.35147 0.841184 -1.21543e-19)
(1.31256 0.8405 -1.26465e-19)
(1.25908 0.832713 -4.69178e-21)
(1.19769 0.821959 -1.26619e-19)
(1.12774 0.807104 -5.00273e-19)
(1.04869 0.786548 2.34952e-19)
(0.960201 0.757801 -2.10214e-19)
(0.862514 0.716562 7.14037e-19)
(0.758129 0.655961 -1.34826e-18)
(0.668629 0.579297 -3.56251e-21)
(0.613364 0.504734 -3.12841e-19)
(0.586986 0.44455 1.01652e-18)
(0.576946 0.401795 9.31271e-21)
(0.573253 0.373704 -4.15307e-19)
(0.570759 0.355573 -7.28261e-19)
(0.5678 0.343303 0)
(0.563744 0.334423 0)
(0.536987 0.314927 1.94332e-19)
(0.220334 0.128759 -1.09061e-19)
(0.536081 0.350838 -5.27882e-20)
(1.3471 0.892332 2.52598e-19)
(1.30677 0.891237 1.36186e-19)
(1.25206 0.882799 0)
(1.18923 0.871339 -2.29955e-21)
(1.11744 0.855696 -5.14916e-19)
(1.03604 0.83431 6.08344e-19)
(0.944294 0.804635 8.75291e-19)
(0.841784 0.76207 9.53993e-19)
(0.730046 0.698322 -1.13174e-18)
(0.631886 0.613994 -1.07883e-18)
(0.571599 0.52739 8.38872e-19)
(0.547136 0.454903 0)
(0.544311 0.404152 -1.81964e-19)
(0.548885 0.373625 -4.13919e-19)
(0.55274 0.356741 -4.71039e-19)
(0.553473 0.347211 -5.41412e-19)
(0.551044 0.341177 1.53521e-19)
(0.526398 0.324252 -9.5641e-20)
(0.224967 0.138717 -6.29741e-21)
(0.53784 0.371877 0)
(1.34251 0.941265 0)
(1.30089 0.93972 4.54645e-21)
(1.24504 0.930635 0)
(1.18089 0.918564 4.14387e-19)
(1.10747 0.902293 3.98006e-19)
(1.0239 0.88028 0)
(0.929135 0.850148 1.12653e-19)
(0.821943 0.807031 1.6379e-18)
(0.702362 0.741359 -2.61952e-18)
(0.593443 0.650255 0)
(0.525128 0.550009 -5.46096e-19)
(0.501407 0.460864 1.11987e-20)
(0.508448 0.398042 1.12034e-20)
(0.526109 0.363986 4.03829e-19)
(0.540429 0.350111 -4.18857e-21)
(0.546593 0.346425 -1.00406e-18)
(0.54615 0.346161 2.83361e-19)
(0.523389 0.334592 8.32559e-20)
(0.234954 0.151793 0)
(0.53932 0.392131 1.22562e-19)
(1.33778 0.98799 1.20609e-19)
(1.29502 0.985966 2.6621e-19)
(1.23811 0.976237 -5.69854e-19)
(1.17275 0.963581 7.13619e-19)
(1.09791 0.946801 0)
(1.0124 0.924388 4.06784e-19)
(0.914943 0.894223 -2.47232e-19)
(0.803306 0.851335 5.64953e-21)
(0.675605 0.78518 1.90623e-19)
(0.553913 0.688994 1.45818e-18)
(0.473187 0.574164 -1.9865e-19)
(0.447104 0.462585 -6.00941e-19)
(0.466923 0.380452 -1.69127e-19)
(0.505889 0.34016 1.84776e-19)
(0.537105 0.332806 -8.05391e-21)
(0.551856 0.340217 2.22736e-19)
(0.553714 0.349916 -5.35122e-19)
(0.533162 0.348074 6.04045e-19)
(0.252926 0.170167 9.42971e-20)
(0.540218 0.411521 -3.54179e-20)
(1.33288 1.03248 6.07579e-20)
(1.28914 1.02999 1.25884e-20)
(1.23129 1.01965 -2.82938e-19)
(1.16486 1.00637 -1.40274e-19)
(1.08877 0.989154 -7.47562e-19)
(1.00175 0.966515 1.3555e-19)
(0.90187 0.936648 -1.05338e-18)
(0.786149 0.894761 -1.88449e-18)
(0.650373 0.829759 -1.62646e-18)
(0.514089 0.730959 0)
(0.415536 0.602081 -8.58128e-19)
(0.380705 0.461497 8.36173e-19)
(0.415003 0.347431 0)
(0.487794 0.294243 -3.54275e-19)
(0.549951 0.298514 1.48268e-19)
(0.579279 0.327252 -1.84657e-19)
(0.582549 0.35649 -2.19216e-19)
(0.559077 0.369442 -4.007e-19)
(0.280487 0.195867 -3.06559e-19)
(0.541438 0.430551 3.05441e-20)
(1.32781 1.07478 -6.47767e-20)
(1.28321 1.07177 -1.84081e-19)
(1.22458 1.06082 -3.60277e-19)
(1.15726 1.04691 3.07589e-19)
(1.08017 1.02928 -4.63994e-19)
(0.991986 1.00664 4.42107e-19)
(0.890048 0.977284 -1.11632e-18)
(0.770686 0.936991 -1.13994e-18)
(0.627245 0.874809 1.76458e-18)
(0.475214 0.776837 3.35621e-18)
(0.35272 0.63677 0)
(0.297955 0.461122 0)
(0.343498 0.29456 -1.71059e-19)
(0.470633 0.210859 0)
(0.593958 0.236216 2.13401e-19)
(0.648304 0.310614 2.46016e-19)
(0.644865 0.37504 0)
(0.600186 0.410229 0)
(0.308958 0.229227 2.51159e-19)
(0.54193 0.448221 -1.96874e-20)
(1.32255 1.11493 -3.59876e-20)
(1.27722 1.11135 -1.27491e-19)
(1.21796 1.09974 2.85587e-19)
(1.15 1.08522 3.15324e-19)
(1.07222 1.06718 5.56972e-19)
(0.983222 1.04473 -6.25823e-19)
(0.879635 1.01615 -5.28377e-21)
(0.757153 0.977837 -8.5675e-21)
(0.60682 0.919856 7.14254e-21)
(0.438794 0.826691 1.76495e-18)
(0.286463 0.68145 0)
(0.194761 0.468395 8.5319e-19)
(0.236137 0.218186 3.55327e-19)
(0.448187 0.0561791 1.28532e-19)
(0.707899 0.115614 -2.36154e-20)
(0.799204 0.311965 -1.3976e-20)
(0.733562 0.448273 -7.07549e-20)
(0.649878 0.485527 0)
(0.336244 0.273757 2.26693e-19)
(0.542925 0.46588 1.77601e-20)
(1.3171 1.15301 0)
(1.27122 1.14873 -1.16533e-19)
(1.21145 1.1364 2.18689e-19)
(1.14303 1.12136 -3.15555e-19)
(1.06477 1.10298 -7.32583e-19)
(0.975326 1.08066 1.30354e-18)
(0.870709 1.05307 -8.15813e-20)
(0.745832 1.01723 0)
(0.589666 0.964489 -2.03907e-18)
(0.406534 0.879954 -3.99982e-18)
(0.220394 0.738775 1.46784e-19)
(0.0695225 0.494805 1.26709e-18)
(0.0637924 0.116847 0)
(0.382737 -0.246085 -4.20778e-19)
(0.907264 -0.177388 0)
(1.12959 0.263247 0)
(0.947952 0.526984 6.62265e-21)
(0.709477 0.556563 0)
(0.338785 0.280154 6.753e-20)
(0.543139 0.482242 -4.93303e-22)
(1.31138 1.1892 0)
(1.26515 1.18401 -1.64385e-19)
(1.20511 1.171 0)
(1.13636 1.1555 1.54653e-19)
(1.05769 1.1369 0)
(0.96792 1.11475 7.736e-20)
(0.862888 1.0883 1.61232e-19)
(0.736635 1.05536 1.47429e-19)
(0.57601 1.00899 -2.28261e-18)
(0.379845 0.93669 1.26903e-19)
(0.158532 0.811392 1.17641e-18)
(-0.0768492 0.559595 1.28875e-18)
(-0.23941 0.033643 1.00929e-19)
(-0.0250921 -0.402574 -1.00303e-18)
(0.754367 0.0444533 0)
(1.16699 0.716402 -1.05148e-18)
(0.999269 1.09342 2.65849e-19)
(0.476794 0.876457 2.2985e-19)
(-0.0574457 1.04839 -5.36213e-19)
(0.543467 0.498307 1.61182e-20)
(1.30524 1.22372 -7.23631e-20)
(1.25889 1.21749 0)
(1.19882 1.20397 1.01888e-20)
(1.1299 1.18826 -3.85112e-19)
(1.05089 1.16966 1.24235e-18)
(0.960925 1.14803 5.00989e-19)
(0.855667 1.12311 0)
(0.728986 1.09351 1.02725e-18)
(0.56553 1.05535 -1.25439e-19)
(0.359692 0.999685 0)
(0.106963 0.904301 0)
(-0.232094 0.703995 1.28085e-18)
(-0.697885 0.377589 -1.20117e-19)
(-0.857728 0.591421 1.09463e-18)
(-0.194948 1.53633 0)
(0.476047 2.05698 -9.29099e-19)
(0.412796 2.23887 3.49841e-19)
(0.18633 2.8771 -1.39114e-19)
(0.104497 3.20953 -2.13134e-20)
(0.543866 0.513426 -2.96716e-20)
(1.29857 1.25644 6.2769e-20)
(1.25259 1.24896 -7.97454e-20)
(1.19263 1.23514 -1.34139e-19)
(1.12363 1.2194 0)
(1.04442 1.20093 8.423e-19)
(0.954742 1.17998 7.53621e-19)
(0.849298 1.15665 -8.35765e-20)
(0.722541 1.1309 1.53286e-19)
(0.558684 1.10162 2.25021e-18)
(0.348404 1.06623 2.182e-18)
(0.0788134 1.01342 1.47091e-18)
(-0.316286 0.925984 1.39788e-18)
(-0.881214 0.938748 -7.89658e-19)
(-1.27894 1.57999 1.00511e-18)
(-0.87702 2.6368 0)
(-0.333223 3.16661 0)
(-0.129745 3.41508 -2.23486e-19)
(-0.0488215 3.44573 0)
(-0.0165086 3.36316 -3.51561e-19)
(0.545945 0.530927 0)
(1.2909 1.28699 0)
(1.24613 1.27813 0)
(1.18639 1.26432 -2.86629e-20)
(1.11726 1.24867 -3.29026e-19)
(1.038 1.23057 5.88554e-19)
(0.94907 1.21053 5.06882e-19)
(0.84384 1.18883 -8.38637e-20)
(0.717313 1.16648 1.34364e-18)
(0.554314 1.14655 -9.49758e-21)
(0.345138 1.13352 4.39239e-18)
(0.0774223 1.13037 -1.66238e-19)
(-0.294752 1.15681 1.87021e-19)
(-0.782925 1.35698 1.18835e-19)
(-1.1661 2.10047 -1.12584e-19)
(-0.89825 2.92205 -1.14413e-19)
(-0.538959 3.26443 9.51814e-19)
(-0.308609 3.31932 3.55689e-19)
(-0.179105 3.31386 -1.54981e-19)
(-0.112074 3.29376 1.44299e-19)
(0.409388 0.455433 2.87719e-20)
(1.28281 1.31494 0)
(1.24013 1.30545 1.07657e-19)
(1.18072 1.29215 2.93216e-19)
(1.1115 1.27674 -5.81299e-19)
(1.0323 1.25897 -6.00942e-19)
(0.944132 1.23874 -5.49716e-19)
(0.839688 1.21848 1.04187e-18)
(0.714759 1.19989 -1.1195e-18)
(0.55468 1.18872 0)
(0.353315 1.19582 2.18183e-18)
(0.106371 1.2351 -1.21238e-18)
(-0.200482 1.34231 0)
(-0.578018 1.66504 1.92959e-19)
(-0.834738 2.27247 1.26456e-19)
(-0.689978 2.84481 3.9664e-20)
(-0.455683 3.09031 -1.34397e-19)
(-0.286337 3.16829 -7.85166e-20)
(-0.188784 3.18722 -1.17158e-19)
(-0.126486 3.19417 -2.11913e-19)
(0.645072 0.642834 -4.11802e-21)
(1.27142 1.34069 0)
(1.23057 1.34542 -7.06578e-20)
(1.17026 1.33346 -2.36815e-19)
(1.1004 1.31837 5.2362e-19)
(1.02098 1.3013 5.4778e-19)
(0.931861 1.28262 7.15973e-19)
(0.828112 1.26473 8.21194e-20)
(0.70535 1.25217 1.16327e-18)
(0.550473 1.25452 2.10306e-18)
(0.360876 1.29 1.32032e-19)
(0.144815 1.38556 1.12823e-18)
(-0.0853424 1.58473 1.84946e-19)
(-0.27367 1.92674 -1.9029e-19)
(-0.345213 2.33629 -2.27864e-19)
(-0.281932 2.66579 9.71054e-20)
(-0.195029 2.84989 -3.20556e-20)
(-0.125974 2.97254 2.37248e-20)
(-0.0874155 3.0521 8.28889e-20)
(-0.0938679 3.13148 1.38627e-20)
(0.64017 0.643046 0)
(1.27 1.36857 1.11288e-20)
(1.22554 1.37354 5.31264e-21)
(1.16406 1.36189 1.84483e-20)
(1.09369 1.34676 3.11267e-19)
(1.01494 1.33022 -5.15865e-19)
(0.926049 1.31175 -4.46057e-19)
(0.823958 1.29575 7.78248e-20)
(0.704879 1.28739 -1.25197e-18)
(0.557194 1.29662 -2.29214e-20)
(0.382281 1.34615 -4.18462e-18)
(0.199908 1.46085 1.56252e-19)
(0.0336667 1.66773 -1.76154e-19)
(-0.0769882 1.98103 -1.60443e-19)
(-0.118417 2.32445 5.23234e-21)
(-0.0866297 2.60066 -3.76082e-20)
(-0.0335949 2.81059 -2.11265e-20)
(0.00268789 2.91747 -1.01982e-19)
(0.0131842 3.01877 1.75214e-19)
(-0.0324762 3.09001 1.05631e-19)
(0.612558 0.632695 7.33173e-20)
(1.26906 1.40178 1.02598e-19)
(1.22016 1.40453 1.18515e-20)
(1.15748 1.39241 7.09816e-20)
(1.08724 1.37773 0)
(1.00907 1.36085 -6.41764e-19)
(0.921164 1.34267 -6.17446e-19)
(0.820445 1.32741 7.32276e-20)
(0.703676 1.31941 -1.38011e-19)
(0.561545 1.33172 -2.0419e-18)
(0.400734 1.39024 -1.99067e-18)
(0.248495 1.51528 -1.34804e-18)
(0.139351 1.7212 -1.28766e-18)
(0.0925872 2.02179 1.11402e-18)
(0.0750042 2.32869 7.39037e-19)
(0.092238 2.56178 0)
(0.133633 2.76218 0)
(0.153633 2.91861 1.42404e-19)
(0.13023 3.02046 0)
(0.0436331 3.08296 2.73659e-19)
(0.585905 0.625629 -1.50688e-19)
(1.26488 1.43836 -1.31425e-19)
(1.21339 1.43817 0)
(1.14984 1.42517 1.40637e-20)
(1.07975 1.40955 2.31645e-19)
(1.00161 1.39106 -8.74623e-19)
(0.913941 1.37221 -3.81505e-19)
(0.815696 1.35733 6.16879e-20)
(0.704344 1.35233 -9.93997e-19)
(0.571002 1.37327 1.10172e-19)
(0.423893 1.44541 0)
(0.295055 1.57889 0)
(0.222762 1.77964 -1.20039e-18)
(0.229729 2.06721 4.20064e-19)
(0.254619 2.33036 4.5796e-19)
(0.276145 2.53422 0)
(0.325003 2.73622 1.84578e-19)
(0.339816 2.91542 -4.67311e-19)