/*--------------------------------*- C++ -*----------------------------------*\
  =========                 |
  \\      /  F ield         | OpenFOAM: The Open Source CFD Toolbox
   \\    /   O peration     | Website:  https://openfoam.org
    \\  /    A nd           | Version:  9
     \\/     M anipulation  |
\*---------------------------------------------------------------------------*/
FoamFile
{
    format      ascii;
    class       volScalarField;
    location    "49";
    object      p;
}
// * * * * * * * * * * * * * * * * * * * * * * * * * * * * * * * * * * * * * //

dimensions      [0 2 -2 0 0 0 0];

internalField   nonuniform List<scalar> 
918
(
0.562367
1.20292
0.00217078
0.561754
-0.00854627
1.16994
-0.495515
0.701774
0.542534
-0.0937177
-0.0261143
0.539693
1.03051
0.796139
-1.11769
-0.00158877
0.660521
-0.374931
0.541601
-0.0398425
0.732083
0.549102
0.552131
0.542714
0.60929
0.773575
0.911292
0.0201715
0.0080814
0.00379503
-0.0129568
-0.0337231
-0.0261087
1.0536
1.10467
1.12735
0.510587
0.339301
-0.36291
-0.431167
-0.423452
-0.539399
0.696547
0.69538
-0.189075
0.70456
0.709469
0.529651
0.541901
0.542808
0.543861
0.542826
0.544216
0.416422
-0.0966441
-0.129355
-0.0731635
-0.0646704
0.0704509
-0.0277275
-0.0296726
-0.0248743
-0.024226
0.460474
0.534832
0.531884
0.544924
0.554126
1.14247
1.1144
1.14054
1.05414
1.07067
1.00852
0.981105
0.817233
0.838722
0.780452
0.768796
-1.55289
-2.51063
-0.524484
-0.272222
-0.0149689
0.00227731
0.010862
0.655283
0.655374
0.661997
0.668775
1.08917
-0.373927
-0.473527
0.541734
0.540535
0.548895
0.549591
0.545607
0.544699
-0.0327846
-0.0299524
-0.0375767
-0.0386118
-0.0362849
0.72113
0.719606
0.54325
0.540262
0.560882
0.581894
0.57383
0.287252
0.612314
0.62597
0.601327
0.765783
0.759101
0.768314
0.88488
0.8478
0.948563
0.971847
0.0168283
-9.55295e-05
-0.00918443
-0.0158626
-0.0155649
0.506469
0.499099
0.525893
0.513973
0.516446
0.255151
0.120498
0.425017
0.450267
-0.279109
-0.340788
-0.421582
-0.449373
-0.559981
0.61448
0.68799
0.68543
-0.203631
-0.130341
-0.260948
-0.0570414
-0.118181
0.519988
0.526946
0.521974
0.53745
0.531934
0.533889
0.546155
0.543233
0.544789
0.478851
0.602445
0.342813
0.308377
-0.235798
-0.146869
-0.237074
-0.0526769
-0.0482674
0.0842479
0.109553
0.0572533
0.0455356
-0.0413511
-0.0329717
-0.0370785
-0.0230098
-0.0254499
0.453368
0.44238
0.473035
0.480486
0.524287
0.52555
0.529165
0.527478
0.931992
0.954318
0.961806
0.935653
-3.50696
-6.30135
0.0550203
0.192631
-0.00545716
-0.0108085
0.00421501
-0.00846046
-0.00226426
-0.00356542
0.00841002
0.00662138
0.00958756
0.0118559
0.647625
0.647809
1.00877
1.01175
0.987756
0.93923
0.52988
0.531975
0.537504
0.533372
-0.0242717
-0.0270369
-0.0246127
0.71141
0.716928
0.715135
0.249505
0.16133
0.337479
0.366033
0.640419
0.629101
0.63899
0.661837
0.697379
0.979248
0.997412
0.995733
1.00408
1.04817
1.06463
1.02986
0.486206
0.496034
0.491067
0.529058
0.526795
0.527718
0.523347
0.524768
0.522629
-0.0309636
-0.413337
0.49967
0.517858
0.499782
0.504747
0.693815
0.770948
0.670174
0.679099
0.676624
0.0109631
-0.0469386
0.26451
0.231206
0.393868
0.429724
0.408976
0.903059
0.863656
0.913632
0.887128
0.848485
0.874373
-0.36498
-1.87238
-0.98728
0.544026
0.357487
0.444844
0.027241
0.0097211
0.0150814
1.00499
1.08079
0.658393
0.829822
0.835114
0.735282
0.766173
0.820736
0.745917
0.780968
0.816311
0.798381
0.571416
0.512683
0.525567
0.840224
0.89625
0.132785
0.0739633
0.0297597
0.128203
0.184361
0.158933
1.04233
0.951323
1.0226
0.540015
0.540723
0.000526747
-0.00918075
0.544916
0.544965
-0.0122517
0.000770764
0.42837
-0.826514
0.115504
0.533448
0.523517
0.540548
-0.0771088
0.36957
-0.0275394
0.0656267
0.00971789
0.537178
0.471364
0.431157
0.00488315
-0.0102399
-0.0344609
-0.205842
0.537686
0.535993
0.540017
0.540979
0.541648
-0.0120469
-0.00732664
-0.00600497
-0.0333498
-0.0288904
-0.0390985
0.504789
0.523104
-0.16039
0.540158
0.542282
0.542106
0.535327
0.540974
0.539213
-0.00261348
-0.0110559
-0.0112439
0.231755
0.359755
0.670887
0.760322
0.64165
0.41562
0.178743
0.572436
0.636768
0.541235
0.696251
0.683943
0.699397
0.180817
0.0310178
0.189436
0.131319
0.531307
0.529994
0.521775
0.518793
0.535413
0.533518
0.538082
0.535077
0.538029
0.539421
-0.0349723
-0.0586234
-0.0724945
-0.138542
0.32495
0.586375
0.266276
0.296731
0.157979
-0.0212699
-0.0227855
-0.027425
-0.0335371
0.0201407
-0.00528004
0.0608874
0.0611512
0.0334003
0.00660099
0.0120583
0.000148118
0.00425168
0.530306
0.528701
0.535105
0.544218
0.480857
0.484603
0.450024
0.470453
0.455897
0.395681
0.430431
0.405799
-0.00184879
0.00868622
-0.000471979
-0.00582324
-0.00122695
-0.0207224
-0.0184973
-0.01582
-0.0122547
-0.0183405
-0.0280805
-0.0270064
-0.16524
-0.280195
0.995055
0.922918
0.136996
0.526862
0.533295
0.530073
0.534932
0.538056
0.538883
0.536613
0.53317
0.52353
0.525145
0.521834
0.522579
-0.0930821
-0.232169
-0.0616191
-0.133417
0.149533
0.63166
0.371631
0.308729
0.303578
0.530288
0.935003
0.723143
0.701039
0.716764
-0.333924
0.0596326
-0.268533
0.350498
0.173756
0.669339
0.718935
0.741221
0.68858
0.64113
-0.100112
0.562655
-0.0579267
-0.00823727
0.191671
0.0726726
0.699664
0.668138
0.671961
0.689146
0.706486
0.674302
0.657733
0.652283
0.685287
0.68895
0.501191
0.263015
0.215708
0.176835
0.65202
0.537632
0.591889
0.506511
0.526403
0.529079
0.527692
0.509562
0.517068
0.512652
0.518939
0.522326
0.531129
0.531545
0.52688
0.529036
-0.0392281
-0.0422211
-0.0171285
-0.126865
-0.117346
-0.178657
-0.0531827
0.0847573
0.0471545
0.243545
0.349221
0.0613507
-0.0507094
-0.0227924
0.0152785
0.187691
0.213548
0.0890469
0.177616
0.165889
0.149441
0.250684
0.255621
-0.00814681
-0.012339
-0.014913
-0.0168176
0.0366414
0.106767
0.116719
0.0142907
0.00875747
-0.0195698
-0.0188729
-0.00563164
-0.0100012
-0.00644267
0.0278329
-0.0397089
-0.00714758
0.00859841
0.0165214
0.0130744
0.00821654
0.522714
0.524971
0.524636
0.532185
0.550327
0.566533
0.523223
0.502793
0.493698
0.496687
0.470012
0.48018
0.475886
0.489436
0.51041
0.519643
0.517094
0.519825
0.502549
0.504222
0.490903
0.494564
0.469815
0.451001
0.439325
-0.0312554
0.00556856
-0.000321182
-0.0295078
-0.00134991
-0.0135955
0.00601523
0.0234976
0.0085128
0.0049577
-0.00383477
-0.0136744
-0.0121435
-0.0675108
0.0171719
-0.176028
-0.213427
-0.283322
0.896512
1.01992
0.819386
0.59296
0.609791
0.852302
0.938161
0.555727
0.744274
0.768372
0.58949
0.855054
0.531679
0.531288
0.52889
0.528367
0.529588
-0.00130579
0.101859
0.104827
0.164491
0.281332
0.394327
0.319492
0.194536
0.326204
0.329585
0.624079
0.637053
0.592559
0.61617
0.616573
0.434793
0.510487
0.563075
0.519941
0.571201
0.592099
0.548362
0.580477
0.530631
0.485481
0.481804
0.431864
0.451938
0.428666
0.411019
0.521754
0.499078
0.509607
0.499954
0.519467
0.543712
0.540559
0.573097
0.584088
0.503719
0.459959
0.469377
0.499723
0.460303
0.475194
0.491406
0.234949
0.135594
0.219054
-0.0693668
0.00651316
-0.00783001
-0.0553869
-0.00692904
0.278312
-0.416112
-0.391701
-1.02203
0.505368
0.965999
0.649134
0.622408
0.703384
0.684994
0.690031
0.708066
0.712241
0.642683
0.659283
0.661563
0.623787
0.647397
0.668139
0.665258
0.532476
0.397525
0.393406
0.345099
0.215727
0.253505
0.453816
0.376114
0.301099
0.302277
0.468364
0.355483
0.424716
0.460857
0.392089
0.345838
0.550041
0.61507
0.606472
0.580699
0.497397
0.511298
0.535469
0.570916
0.597007
0.628282
0.518518
0.524363
0.525611
0.523109
0.520357
0.523348
0.523532
0.526065
0.52679
0.52975
0.528773
-0.0281373
-0.0165
-0.0298757
-0.0375956
-0.00663583
-0.0107408
0.0329361
0.0194531
0.00418458
0.0103404
-0.0161071
-0.0202572
-0.0153484
-0.00617337
0.11084
0.123368
0.107342
0.0679944
0.256836
0.387543
0.460012
0.336461
0.229485
0.253266
0.274665
0.00386048
0.0312453
0.0186113
0.0568457
0.0482136
-0.0154191
-0.0188825
-0.0177756
-0.00979772
-0.000598722
-0.0192177
-0.0223999
-0.0133001
-0.0178313
-0.0178191
-0.0223037
0.505009
0.498561
0.500195
0.494133
0.492864
0.506991
0.51121
0.513162
0.518557
0.520749
0.511024
0.516637
0.520347
0.0059896
-0.0190702
-0.0222635
-0.0089649
-0.0142586
-0.0137297
-0.0144567
0.126301
0.0548225
0.0593217
0.0134941
-0.115809
-0.0581975
0.493689
0.49348
0.486929
0.723157
0.573006
0.493243
0.590371
0.69551
0.277465
0.476102
0.309602
0.892421
0.786873
0.933354
0.546253
0.247514
0.407043
0.455593
0.26489
0.337697
0.334104
0.221342
0.253389
0.288232
0.389846
0.268979
0.244629
0.00201821
0.190986
0.305622
0.286981
0.414134
0.476312
0.266694
0.188291
0.142298
0.612226
0.630575
0.645978
0.619285
0.64008
0.582372
0.570683
0.588972
0.598801
0.594101
-0.749439
-0.456103
-1.40165
-0.719304
-0.266584
0.536334
0.502567
0.774152
0.655751
0.708224
0.69266
0.650339
0.61776
0.636362
0.663949
0.358475
0.469791
0.444744
0.449775
0.351046
0.282471
0.583445
0.577732
0.61255
0.636009
0.605149
0.636333
0.516305
0.515981
0.515545
0.51184
0.510097
0.512396
0.0717266
0.0410282
0.0758673
0.056774
0.034085
0.0226417
0.0112401
0.00112116
-0.00589579
-0.00715163
0.00753038
0.0116823
0.171451
0.111376
0.0320508
0.0617986
0.00191128
-0.0661806
-0.0838987
0.0175339
0.112255
0.102876
0.408383
0.659887
0.479812
0.647101
0.488456
0.544176
0.476387
0.468442
0.495059
0.384117
0.463626
0.243058
-0.2642
-0.172512
0.792277
0.807176
0.589905
0.409412
0.177795
0.360791
0.553858
0.486673
0.523941
0.593157
0.582488
0.0240502
0.086327
0.360095
0.587453
0.241487
0.232789
0.226856
0.406184
0.327127
)
;

boundaryField
{
    wall-4
    {
        type            zeroGradient;
    }
    velocity-inlet-5
    {
        type            zeroGradient;
    }
    velocity-inlet-6
    {
        type            zeroGradient;
    }
    pressure-outlet-7
    {
        type            fixedValue;
        value           uniform 0;
    }
    wall-8
    {
        type            zeroGradient;
    }
    frontAndBackPlanes
    {
        type            empty;
    }
}


// ************************************************************************* //
