/*--------------------------------*- C++ -*----------------------------------*\
  =========                 |
  \\      /  F ield         | OpenFOAM: The Open Source CFD Toolbox
   \\    /   O peration     | Website:  https://openfoam.org
    \\  /    A nd           | Version:  9
     \\/     M anipulation  |
\*---------------------------------------------------------------------------*/
FoamFile
{
    format      ascii;
    class       surfaceScalarField;
    location    "49";
    object      phi;
}
// * * * * * * * * * * * * * * * * * * * * * * * * * * * * * * * * * * * * * //

dimensions      [0 3 -1 0 0 0 0];

internalField   nonuniform List<scalar> 
1300
(
3.75095
5.62643
-3.261
3.75095
-7.73705
5.62643
-4.34137
4.34137
-0.673064
0.673064
1.8764
1.87455
-2.82033
2.82033
-2.29896
2.29896
-2.54364
2.54364
-5.24642
5.24642
-5.06916
5.06916
4.66068
-4.66068
-6.29955
6.29955
-1.03174
1.03174
-3.72442
3.72442
3.16969
-3.16969
-2.16927
2.16927
-0.120322
0.120322
-0.553496
4.30445
3.19746
3.19746
-2.00558
2.00558
-4.86661
4.86661
6.218
-6.218
5.25177
-5.25177
-1.99077
-2.40618
1.79935
-11.5778
-5.9377
-5.9377
-8.44038
8.44038
-2.81395
2.81248
2.9451
-2.9451
-1.78221
1.78221
-4.28993
-0.051435
-4.28993
4.32659
0.0147809
4.32659
-0.749412
0.0763482
-0.749412
3.93197
-3.93197
0.562167
0.110897
0.562167
3.06513
-3.06513
-1.8771
3.7535
1.87385
-1.87188
6.17633
-1.87907
3.75363
-5.99734
5.99734
-3.04167
0.221342
-3.04167
2.63536
0.184962
2.63536
-6.82117
6.82117
-2.32977
0.0308122
-2.32977
2.26232
0.0366411
2.26232
2.87566
-2.87566
-2.65064
0.107005
-2.65064
2.42818
0.115457
2.42818
0.353522
5.27291
-5.97995
8.79244
-5.27291
0.0264853
5.20832
0.0381044
5.20832
-5.10606
0.036906
-5.10606
5.01241
0.0567523
5.01241
4.74968
-0.0889952
4.74968
-4.77693
0.116249
-4.77693
-3.40884
-4.04693
-6.44816
0.148612
-6.44816
-1.08777
0.0560332
-1.08777
0.959939
0.071796
0.959939
-3.66171
3.66171
-4.11552
0.391106
-4.11552
3.12411
0.0455831
3.12411
1.8685
1.88245
5.61945
-5.61945
2.44976
-2.16479
-0.00447653
-2.16479
-2.20513
-3.04664
2.20513
-0.0358664
-0.349928
0.229606
-0.349928
3.15936
0.0380954
3.15936
2.26607
0.16211
-2.26607
0.260485
3.25565
-3.25565
1.34252
0.663064
1.34252
-5.56493
5.56493
4.95546
0.0569458
-4.95546
0.0888522
6.15682
0.0611731
6.15682
-6.19957
-0.018427
-6.19957
2.56529
-4.97147
-2.57966
6.11795
0.1816
-6.11795
0.180245
2.91628
0.0288244
2.91628
-2.92011
2.92011
-2.98399
0.0388863
-2.98399
-2.18152
0.399308
-2.18152
1.48277
0.299447
1.48277
-4.18452
-0.105413
-4.18452
-4.23598
0.120452
4.23598
0.0906108
1.11694
-1.11694
-0.845732
0.0963195
-0.845732
-4.05078
-0.133741
4.05078
-0.118805
-3.8276
-0.104375
-3.8276
-3.02409
0.0400996
3.02409
0.0410415
3.11276
0.046607
-3.11276
0.0476263
-1.87083
3.75328
-1.88012
3.75398
-5.61722
-0.380115
-5.61722
6.30585
-0.308509
6.30585
3.40071
0.323707
-3.40071
0.359041
2.49479
0.140579
2.49479
-6.78335
-0.0378188
-6.78335
6.80768
0.0134965
6.80768
2.39569
0.0990989
-2.39569
0.065914
2.22427
0.0380522
2.22427
2.89371
-0.0180537
2.89371
-2.87131
-0.00434988
-2.87131
2.79744
-2.79744
2.72818
0.0692671
-2.72818
0.0775359
-11.1329
11.1145
-0.0351174
-11.0978
5.1732
5.1732
4.17939
0.57029
4.17939
-4.99393
0.217001
-4.99393
2.69607
-5.27573
3.03519
-6.44403
4.67691
-16.2547
4.33104
-8.37797
6.6813
-6.6813
6.5735
0.107796
-6.5735
0.125347
-1.18275
0.09498
-1.18275
-3.05613
-0.605581
-3.05613
4.30834
-0.64663
4.30834
-3.02852
3.02852
-3.07769
0.0491784
3.07769
0.0464147
2.19461
0.0296539
-2.19461
0.0298233
0.455632
0.106535
-0.455632
0.105703
3.4597
-0.204052
3.4597
-3.06336
-0.192289
-3.06336
-1.26752
0.0847753
1.26752
0.0749973
-5.81374
0.248801
-5.81374
-11.1908
0.092985
-11.1527
-6.10659
-6.10659
2.33379
11.1262
-2.89063
0.0193193
2.89063
0.025649
2.97548
0.053033
-2.97548
0.0553756
-2.86139
0.063948
2.86139
0.0587143
-2.55686
0.375333
-2.55686
-1.07605
1.07605
-1.24636
0.170308
1.24636
0.236407
1.38135
-0.26441
1.38135
0.906264
0.0536748
-0.906264
0.0605328
-3.73598
-0.0916231
-3.73598
6.53766
-0.231819
6.53766
-2.95282
-0.110537
2.95282
-0.0591112
-0.0333486
11.1479
-5.13985
0.0337879
5.13985
-11.209
11.2428
-3.22855
0.671692
3.22855
0.950838
5.28636
0.278576
-5.28636
0.292429
6.76156
0.046117
-6.76156
0.080258
-2.56379
-0.49234
-2.56379
-5.03524
-0.581978
5.03524
-0.726902
-11.4742
-0.205358
11.6796
-11.4175
6.01909
0.137731
-6.01909
11.3806
-1.02583
-0.0911167
1.02583
0.0502253
1.70548
-0.32413
1.70548
3.64494
-0.185237
-3.64494
-0.0910385
-6.68903
-0.0943276
6.68903
-0.151362
-2.12062
-0.443168
2.12062
-0.415138
-4.26706
4.30515
1.90927
-2.42569
-2.54578
-5.47232
1.8519
1.90138
4.30166
-10.1932
-6.06148
-10.013
7.26346
-6.97103
-9.25654
9.16755
7.80401
-7.90839
-5.78512
5.83153
6.48252
-6.44148
1.87874
1.87476
7.94559
-7.72424
-15.6439
15.2638
7.4869
-7.45609
15.774
-15.8118
-17.8565
17.9026
-5.70215
5.80916
-6.73326
6.72891
-6.96203
6.90292
-2.87643
-3.5676
13.1477
-12.9991
8.52645
-8.53092
-8.56202
8.95312
3.38252
0.922631
3.42913
-1.88224
3.76098
-1.87139
3.78066
2.67231
-5.54874
2.60342
-5.1492
4.28919
4.23726
-4.25332
-1.219
-5.92253
5.95135
-5.81746
5.87618
9.03636
-9.0878
-1.88512
3.75988
-1.86886
3.77024
-3.42506
-2.36006
3.37947
0.922184
8.10086
5.04686
-8.28246
-1.7305
-7.98984
7.8046
-8.20328
8.01099
-0.436273
5.81799
-5.38172
4.43034
-1.56076
7.37875
5.70271
5.91971
5.86608
-5.58751
1.10495
-6.48667
-6.39781
-2.3903
2.48662
2.31131
-2.20041
6.06976
1.73425
5.95096
-5.7108
-2.19759
-5.80242
3.82089
2.01064
3.87007
4.07769
2.40483
4.11779
3.03064
-3.03578
0.00514148
-3.05646
6.0871
0.724095
-5.41652
-4.49433
4.95975
2.98583
5.14472
-5.50602
-2.21823
-5.14698
-9.55704
-6.08683
-10.139
10.1005
5.1633
9.79195
-11.97
11.8186
4.7843
2.7026
4.82094
-4.91925
-2.53683
-4.85334
11.6248
-2.60515
-9.01964
-10.3214
-7.53503
10.3079
5.46601
10.9707
6.93184
11.051
4.4218
7.20299
-9.88782
2.35278
-3.86258
-1.83957
-3.78505
3.6723
2.13686
3.78776
-4.21524
-2.51802
-4.19592
-4.29146
-2.67057
4.30951
2.41939
-4.40857
-3.79471
4.51911
2.38381
4.03173
-10.0932
4.34624
-7.91384
-9.21125
-3.78785
-9.08591
3.46418
2.63352
-6.09771
-2.08456
8.45276
-4.2155
7.23376
-5.17826
-3.35267
-5.14843
-6.8172
-1.74482
-6.69675
-8.89821
8.40587
-9.19489
8.54826
12.5924
-5.67891
-6.91349
-3.96829
-2.47318
3.92067
-0.491538
-3.71077
3.71591
0.0502139
3.83088
4.75351
4.26197
-3.88569
-1.93177
-3.83032
3.82834
2.04784
3.89228
6.78141
2.25496
6.79619
-6.53454
-2.55326
-6.63996
9.06247
-8.66316
2.88085
-2.79607
5.36705
2.64394
-5.163
-2.82684
6.20755
-3.20527
-3.00228
-12.2006
10.5413
1.65935
-4.82187
-0.391532
-0.271209
-5.49296
-3.76358
5.37671
0.542996
11.0843
7.32068
-5.51261
5.76141
6.16697
6.22391
-0.173904
5.82347
-5.15178
5.29719
-2.53446
-2.76273
5.40986
-5.5436
-1.23009
-5.45738
4.22729
0.407355
1.61724
-1.38763
-1.85948
-0.530819
-1.79895
1.38527
0.926039
1.49181
0.923114
1.56351
-2.93555
0.560559
2.37499
-2.01244
-1.63985
-3.72872
-1.12644
4.85516
5.68926
2.11534
-5.59822
-0.204204
2.60738
-2.53558
-0.736901
-2.99182
2.21042
-2.94732
-3.65972
-1.98948
5.6492
-3.37024
-0.460079
3.31721
0.552863
-3.8265
-2.09603
3.78761
0.330183
-3.12653
6.19051
-3.06398
-5.0583
2.5281
3.55901
4.53874
-4.78964
2.44701
2.34263
-1.23063
4.24028
0.904434
4.38086
-6.84107
4.62284
5.7713
3.18182
-6.095
0.948026
-5.89304
8.50678
-7.32311
-1.18367
4.12122
4.38557
7.10813
5.48427
-5.69884
12.807
-1.16841
-6.15469
7.06146
-3.87963
4.80834
-8.68797
-10.2926
4.13792
-9.17567
10.9424
-1.76673
-3.62291
-8.34707
12.7986
-1.21307
-11.5855
8.57888
-4.21236
-4.29522
8.50758
-6.81751
6.83205
-1.97838
-4.85367
-10.1114
-5.70035
10.2057
1.61286
-9.86126
12.214
-2.65828
4.09941
0.721529
4.13746
3.26873
-5.43345
2.16472
3.54878
-5.52716
2.082
-7.51545
-6.72139
12.0572
-5.33577
-10.5092
-9.51371
-0.995533
2.53868
9.67536
-9.47052
7.44082
2.02971
3.30536
0.586927
-3.37462
-0.410421
0.235718
4.53691
-4.77263
4.02348
4.18559
3.31451
1.2224
3.84328
2.10808
-3.86892
-0.326993
-4.15906
1.48849
-1.73966
-3.68517
5.17366
-4.06541
0.380239
-2.74251
-3.50268
6.24519
-4.58208
3.03748
3.15304
5.08532
-4.91197
1.40929
-2.39558
-2.51639
2.65612
-4.39579
1.98239
3.19128
4.3662
0.571482
5.84992
6.20724
-8.48345
0.569608
11.2541
-9.5236
2.45933
8.59167
-9.90015
0.386442
-8.69946
1.0097
-5.2252
-5.08801
5.13562
-6.88044
-3.55235
6.17249
0.623699
-6.2631
-0.433644
-6.04646
-2.85175
-6.48963
-3.05074
-6.14415
-8.74958
-1.65615
-7.09343
6.74973
-6.69257
-3.44646
7.41947
1.12879
-7.42074
7.32963
-7.5007
7.17656
0.0951259
3.62078
4.35709
1.88391
-2.39015
4.27406
-5.11619
7.37115
-8.69236
3.57617
4.15835
-6.71161
-4.53401
5.03532
4.02715
5.33477
8.91906
-10.4026
1.48357
-10.7071
12.0414
-1.33435
-16.4822
5.77507
-7.5631
2.52211
0.358735
2.61709
0.575817
2.49731
-3.07312
-2.22025
-2.14526
-2.40733
-3.46118
5.86851
1.1261
-3.49048
2.36438
-3.56272
4.68881
-0.158386
-3.33209
5.2939
-2.79659
5.65263
-3.72111
1.93153
3.41096
5.73942
-2.32846
4.38819
-1.74425
1.89982
-4.22828
-1.56135
-2.96342
5.10028
-3.28177
3.66201
-0.327652
3.98966
-4.08222
0.876956
-0.76771
3.41788
3.67836
4.29869
-3.0763
2.93187
-4.67612
-1.29641
-4.10464
-0.91336
-0.276915
-3.75405
4.03096
6.01817
-6.29508
-5.24495
9.54944
-4.30449
7.70931
-5.39173
-2.31758
-4.26518
-4.39798
3.88985
1.93362
9.64293
0.2114
-5.60313
-4.94038
-3.98954
3.15502
2.14217
-1.84502
3.50437
2.11622
-0.498989
0.486466
1.00534
1.81031
-1.32385
0.276587
1.53373
-1.11104
1.85437
0.753011
-1.90804
0.109096
-1.30403
3.51445
1.07096
-1.997
0.673156
0.992085
-3.52654
4.98271
-2.64182
-2.34089
5.97479
1.13136
-3.77318
4.32602
-3.91867
2.35263
-3.47907
-1.42055
-5.33921
-3.60496
-2.53522
4.8996
-3.33329
5.44863
1.23988
-5.24442
6.48431
-3.67671
1.68723
-3.08117
3.83418
-1.0121
-2.06907
2.86721
2.78199
-3.00715
0.0153293
-0.139935
2.37574
-2.51567
-0.571581
-2.58402
-4.57271
4.90289
-2.10617
4.55318
2.16788
-1.91585
6.46903
1.80998
-3.72583
-3.24832
-3.7084
-1.3832
3.15554
-0.595269
-4.25807
-5.44894
4.15897
0.22189
-6.95474
7.76777
-0.813036
-3.96891
-0.653934
4.77515
-6.0117
0.484531
-3.92969
3.83808
4.74252
4.96441
-11.3818
-0.203715
-6.2185
1.13822
-7.35671
5.52378
-3.5692
7.70712
-10.3666
6.9201
-9.23777
6.52345
-0.833268
6.24332
-4.0786
2.77632
-8.47667
-6.8638
5.44796
-2.74536
6.16949
-3.10394
9.27343
-5.76221
5.22754
4.0459
-0.987617
-4.16082
-5.23383
4.24622
-0.00629773
4.13116
4.97757
-2.86949
4.65057
2.26324
-4.65881
-2.13255
-6.49546
1.83665
-3.34243
-1.91852
3.75517
3.1668
3.75373
1.23878
-3.34331
7.15108
-8.14661
-1.8153
-3.2727
5.21852
-0.972301
3.35935
-6.63205
-1.86585
4.84122
-0.79415
-4.04707
0.837688
-4.39004
1.68188
-6.07191
5.19857
-5.63221
2.21988
-9.78298
-5.20086
-5.15064
-2.25828
-5.24241
-7.59788
5.3396
-1.8228
5.50682
-8.5506
7.75645
-3.49084
8.83043
-5.43892
-1.05071
5.85406
1.32251
10.1529
0.19994
-4.73395
-1.91155
3.92158
-2.01004
1.24348
-3.55411
0.367475
2.47289
3.50191
-6.70017
-0.0114332
-4.74538
-3.92442
7.95157
5.62502
11.6432
1.24057
9.13759
-1.18602
10.3782
4.14875
4.38516
-3.03138
4.51494
0.999584
4.57576
-0.897332
2.82886
1.71976
1.77579
0.759792
2.30844
1.36992
3.1854
0.112275
-2.03298
4.62837
-8.61791
-0.974759
-8.04762
1.11993
5.71683
-4.5969
3.04636
-0.904189
1.03632
-0.00807223
-1.43926
1.44734
-2.7708
-1.93825
-0.404526
-1.6592
2.33236
1.85524
-1.92783
-0.842969
0.361734
-3.9667
3.11734
-3.10201
-0.320023
6.16429
-2.79487
0.279199
-1.10764
-2.30482
-2.83564
2.72654
6.17645
0.292583
3.11247
5.19547
3.09945
0.229956
3.90817
-5.6749
-3.60728
-5.87862
-0.354836
4.42031
1.73594
7.93943
5.78183
4.80953
-1.82252
-9.96913
6.56756
-2.05262
5.23321
-1.18614
-4.88577
5.02748
2.34367
-5.65118
0.0189662
-4.86681
-6.91942
-0.518937
8.27538
-9.634
8.58329
5.73154
1.36189
-4.41539
-0.73525
4.24508
0.140076
10.5182
-1.1261
-6.77128
7.89739
-4.59073
3.61597
0.791609
2.71276
2.23894
1.33476
-5.43653
-10.0334
-1.99959
-1.52695
-4.34048
0.514681
-2.36992
6.23861
-2.62264
3.92103
5.27475
6.31107
-2.1427
-4.15239
6.44719
-2.52616
3.78491
)
;

boundaryField
{
    wall-4
    {
        type            calculated;
        value           uniform 0;
    }
    velocity-inlet-5
    {
        type            calculated;
        value           uniform -3.75095;
    }
    velocity-inlet-6
    {
        type            calculated;
        value           uniform -5.62643;
    }
    pressure-outlet-7
    {
        type            calculated;
        value           nonuniform List<scalar> 8(3.261 7.73705 4.39694 9.77842 7.45577 5.14495 5.73125 9.00796);
    }
    wall-8
    {
        type            calculated;
        value           uniform 0;
    }
    frontAndBackPlanes
    {
        type            empty;
        value           nonuniform List<scalar> 0();
    }
}


// ************************************************************************* //
