/*--------------------------------*- C++ -*----------------------------------*\
  =========                 |
  \\      /  F ield         | OpenFOAM: The Open Source CFD Toolbox
   \\    /   O peration     | Website:  https://openfoam.org
    \\  /    A nd           | Version:  9
     \\/     M anipulation  |
\*---------------------------------------------------------------------------*/
FoamFile
{
    format      ascii;
    class       volScalarField;
    location    "36";
    object      p;
}
// * * * * * * * * * * * * * * * * * * * * * * * * * * * * * * * * * * * * * //

dimensions      [0 2 -2 0 0 0 0];

internalField   nonuniform List<scalar> 
2200
(
0.876685
0.855184
0.839274
0.823603
0.808988
0.796458
0.786085
0.777947
0.772203
0.769188
0.769581
0.773315
0.779584
0.788092
0.798728
0.811456
0.826214
0.842069
0.858076
0.879582
0.809138
0.80588
0.802952
0.798824
0.793344
0.786854
0.780214
0.774232
0.769679
0.767209
0.767603
0.770824
0.775932
0.782331
0.789271
0.795987
0.801627
0.805755
0.808644
0.811977
0.769242
0.76946
0.771503
0.772836
0.77322
0.77235
0.770341
0.767641
0.765061
0.763512
0.763977
0.766321
0.769505
0.772654
0.774957
0.775957
0.775665
0.774607
0.772875
0.772633
0.746736
0.748179
0.750786
0.753252
0.755688
0.757692
0.758832
0.759021
0.758597
0.758227
0.758758
0.760019
0.761132
0.761454
0.760704
0.758994
0.7568
0.754555
0.751948
0.750536
0.732499
0.734473
0.737285
0.7401
0.742927
0.745725
0.748149
0.749962
0.751115
0.751798
0.752405
0.752774
0.752434
0.751249
0.749317
0.746898
0.744313
0.741574
0.738787
0.736856
0.72524
0.726841
0.72903
0.73154
0.734183
0.736821
0.739359
0.741728
0.743675
0.745073
0.745786
0.745664
0.744697
0.743068
0.741088
0.738865
0.736494
0.734129
0.732018
0.730441
0.721846
0.722865
0.724129
0.725993
0.728135
0.730282
0.732425
0.734646
0.736774
0.738502
0.739359
0.739177
0.738252
0.73692
0.735433
0.733779
0.732003
0.73037
0.729225
0.728213
0.719347
0.720013
0.720644
0.721943
0.723548
0.725198
0.726888
0.728706
0.730614
0.732394
0.733437
0.733536
0.733067
0.732322
0.731422
0.730384
0.729239
0.728256
0.727774
0.727102
0.716322
0.716771
0.717168
0.718158
0.719404
0.720757
0.722195
0.723749
0.725427
0.72715
0.728422
0.728997
0.72906
0.728837
0.728386
0.727768
0.727068
0.726445
0.726215
0.725755
0.712428
0.712724
0.713089
0.71398
0.71511
0.716387
0.71781
0.719366
0.721052
0.722843
0.72441
0.725421
0.725899
0.725984
0.725797
0.725422
0.724946
0.724485
0.724297
0.723986
0.707931
0.708118
0.70851
0.709394
0.710551
0.711909
0.713449
0.715145
0.716989
0.718997
0.720916
0.722319
0.723121
0.723445
0.723425
0.723197
0.722844
0.722481
0.722301
0.722091
0.703129
0.70326
0.703638
0.704502
0.705717
0.707219
0.708955
0.710897
0.713042
0.715416
0.717787
0.719643
0.720752
0.721283
0.721394
0.721244
0.721004
0.72076
0.720611
0.720462
0.698054
0.698142
0.698519
0.699347
0.700591
0.702206
0.704185
0.70652
0.709194
0.712176
0.715106
0.717324
0.718676
0.719365
0.719645
0.719706
0.719648
0.719538
0.719431
0.719306
0.692515
0.692567
0.692945
0.693818
0.695152
0.696894
0.699064
0.701737
0.704975
0.70868
0.712253
0.714885
0.716579
0.717628
0.718272
0.718613
0.718722
0.718734
0.718681
0.718577
0.686574
0.686556
0.686976
0.687878
0.689354
0.691244
0.693578
0.696478
0.700105
0.704459
0.70887
0.712364
0.714801
0.716503
0.717605
0.718177
0.718478
0.718601
0.718595
0.718518
0.68035
0.680256
0.680666
0.681642
0.683266
0.68539
0.687998
0.691243
0.695332
0.700407
0.705866
0.710499
0.713878
0.716227
0.71776
0.718669
0.71921
0.719453
0.7195
0.719439
0.673592
0.673593
0.673922
0.67492
0.676833
0.679288
0.682414
0.686383
0.691377
0.697541
0.704229
0.709924
0.714072
0.716968
0.718938
0.720268
0.721072
0.721465
0.721571
0.721508
0.665842
0.665813
0.666254
0.667497
0.669652
0.672509
0.676307
0.681242
0.687486
0.695172
0.703348
0.710174
0.71514
0.718712
0.721259
0.722983
0.724023
0.724585
0.72476
0.724694
0.656923
0.656832
0.657367
0.658802
0.661211
0.66453
0.669017
0.674901
0.682524
0.691998
0.702077
0.710511
0.716757
0.721291
0.72454
0.726772
0.728194
0.72897
0.729219
0.729135
0.646127
0.646022
0.646608
0.648235
0.651066
0.655002
0.660332
0.667412
0.676599
0.688128
0.700529
0.710997
0.718821
0.72461
0.728789
0.731716
0.733642
0.73466
0.73499
0.734876
0.633032
0.632911
0.633595
0.635518
0.638913
0.64379
0.650488
0.659318
0.670708
0.684835
0.69987
0.712534
0.722015
0.729088
0.734261
0.737988
0.740468
0.741744
0.742142
0.741986
0.6166
0.616516
0.617488
0.619955
0.624332
0.630633
0.639203
0.650508
0.664862
0.682217
0.700284
0.715341
0.726628
0.735052
0.741271
0.745738
0.748724
0.750224
0.750674
0.750476
0.59586
0.595709
0.597023
0.60039
0.606187
0.614553
0.625824
0.640384
0.658399
0.679647
0.701322
0.719133
0.732405
0.742341
0.749684
0.754997
0.758517
0.760241
0.760742
0.760496
0.568413
0.56847
0.570592
0.575345
0.583455
0.594995
0.610012
0.628746
0.651184
0.676973
0.702733
0.723709
0.73928
0.750954
0.759648
0.765933
0.770016
0.77195
0.772474
0.772173
0.53145
0.531762
0.535429
0.543203
0.555279
0.571642
0.591879
0.615994
0.643785
0.674777
0.705052
0.729405
0.747409
0.760914
0.771029
0.778398
0.783091
0.78525
0.7858
0.785406
0.481944
0.482392
0.489537
0.502559
0.521153
0.544689
0.571912
0.60271
0.636808
0.673653
0.708746
0.736567
0.757059
0.772496
0.78412
0.792519
0.797719
0.799937
0.80037
0.799942
0.416056
0.41904
0.434466
0.455973
0.483459
0.515647
0.550961
0.589302
0.630438
0.673825
0.71436
0.746361
0.770124
0.788082
0.801653
0.811656
0.817874
0.820329
0.820584
0.820356
0.340861
0.350632
0.376418
0.407932
0.445444
0.486584
0.529952
0.576057
0.624616
0.675053
0.721874
0.758928
0.786565
0.807724
0.824066
0.836055
0.843583
0.846209
0.846372
0.846553
0.274214
0.289365
0.321654
0.361601
0.408415
0.45831
0.509705
0.56358
0.619482
0.676797
0.729444
0.771058
0.80223
0.826111
0.844292
0.857788
0.866228
0.87004
0.87092
0.87089
0.223765
0.237326
0.274929
0.320723
0.374638
0.431787
0.490601
0.551788
0.614595
0.678439
0.736725
0.782609
0.81666
0.842529
0.862439
0.877464
0.886518
0.890577
0.8914
0.891491
0.182263
0.194884
0.23594
0.285611
0.344895
0.407798
0.472968
0.540632
0.609737
0.679782
0.743516
0.792993
0.829489
0.857104
0.877983
0.893739
0.903301
0.907572
0.908569
0.908678
0.146572
0.159464
0.20289
0.255362
0.31878
0.386276
0.456784
0.530042
0.604863
0.680629
0.749018
0.801714
0.840241
0.869015
0.890609
0.9065
0.916466
0.921097
0.922279
0.922391
0.115426
0.128479
0.173881
0.228802
0.295575
0.366851
0.441826
0.51988
0.59976
0.680489
0.753167
0.808799
0.848939
0.878652
0.900598
0.916733
0.927279
0.932163
0.933556
0.933658
0.0874443
0.100569
0.147612
0.204779
0.274475
0.348972
0.427765
0.509997
0.594371
0.679898
0.756714
0.81481
0.856288
0.886727
0.909375
0.925772
0.936548
0.941691
0.943166
0.943214
0.0618477
0.0749578
0.123239
0.182546
0.254853
0.332168
0.414297
0.500214
0.588658
0.678378
0.758578
0.819455
0.86257
0.89398
0.917112
0.933748
0.944588
0.949781
0.951216
0.951006
0.0377852
0.0512418
0.100336
0.161664
0.236243
0.316047
0.401068
0.490162
0.582129
0.675615
0.760131
0.823887
0.868466
0.900667
0.924131
0.940889
0.951445
0.956673
0.958087
0.957937
0.0151755
0.028718
0.0786292
0.141783
0.21834
0.300333
0.387863
0.4798
0.57517
0.67282
0.761218
0.827387
0.874069
0.907168
0.930782
0.94752
0.958136
0.963134
0.964653
0.96455
-0.00620169
0.00733973
0.057926
0.12261
0.200848
0.284823
0.374662
0.469274
0.56782
0.668916
0.760539
0.830533
0.879327
0.913346
0.937518
0.954188
0.964679
0.969616
0.970968
0.970903
-0.0268426
-0.0130629
0.0380253
0.103974
0.183658
0.269457
0.361429
0.458408
0.559588
0.663898
0.760071
0.833595
0.884422
0.920002
0.944466
0.961074
0.971354
0.976013
0.977323
0.97721
-0.047145
-0.0327196
0.0187517
0.0857986
0.166727
0.254156
0.348022
0.447108
0.550819
0.658553
0.758649
0.835304
0.889474
0.926766
0.951932
0.968404
0.978128
0.982521
0.983537
0.983395
-0.067137
-0.0518891
-3.48601e-05
0.0680197
0.150023
0.238873
0.334426
0.435477
0.541654
0.652407
0.755952
0.836852
0.894191
0.933844
0.96016
0.976409
0.985273
0.988829
0.989549
0.989356
-0.0866633
-0.0706754
-0.0183837
0.0506174
0.133549
0.223633
0.320698
0.423569
0.531917
0.645211
0.75208
0.837029
0.898358
0.941292
0.969429
0.985555
0.992924
0.995026
0.995109
0.994955
-0.105614
-0.0890726
-0.0362812
0.0336151
0.117361
0.208501
0.306872
0.411327
0.521527
0.637061
0.747165
0.836252
0.901943
0.948953
0.979939
0.996727
1.00225
1.00066
0.99991
1.00062
-0.123939
-0.106987
-0.0536671
0.0170596
0.101523
0.193545
0.292996
0.398767
0.510576
0.628213
0.741027
0.833826
0.904396
0.956393
0.991661
1.01057
1.01501
1.00916
1.00366
1.00171
-0.141622
-0.124324
-0.0704802
0.00100268
0.0861046
0.178849
0.279161
0.386016
0.4992
0.618537
0.733433
0.830013
0.90533
0.963158
1.00438
1.02778
1.03552
1.02356
1.02053
1.02501
-0.158657
-0.141017
-0.0866622
-0.0145028
0.0711653
0.164499
0.265478
0.37317
0.487448
0.608197
0.725143
0.824515
0.90412
0.968121
1.01685
1.04797
1.06281
1.03726
0.993832
0.954075
-0.174984
-0.157072
-0.102248
-0.0295252
0.0566058
0.15038
0.25182
0.360088
0.475171
0.597053
0.715455
0.816654
0.900006
0.970099
1.02766
1.07011
1.09993
1.09395
1.11107
1.16482
-0.190557
-0.172541
-0.11733
-0.0442046
0.0422356
0.136263
0.237931
0.346463
0.461934
0.584499
0.703949
0.806255
0.891836
0.966288
1.02851
1.07447
1.09747
1.08693
1.05128
1.06251
-0.205349
-0.187392
-0.131866
-0.0584931
0.0281242
0.122235
0.223939
0.332483
0.447975
0.570754
0.690475
0.79282
0.878016
0.952617
1.01411
1.05767
1.05493
1.00822
0.947741
0.936712
-0.219361
-0.201626
-0.145857
-0.0723954
0.014265
0.108292
0.209849
0.318167
0.433331
0.555636
0.674723
0.776089
0.858688
0.92757
0.982304
0.998504
0.967894
0.895785
0.823465
0.806055
-0.232624
-0.215229
-0.159316
-0.0859334
0.000635941
0.094419
0.195657
0.303517
0.417995
0.539268
0.657083
0.756214
0.832768
0.889071
0.919277
0.910698
0.859853
0.760457
0.67439
0.654874
-0.245602
-0.228619
-0.172641
-0.0994747
-0.0131172
0.0803019
0.18108
0.288278
0.40174
0.521429
0.637092
0.732264
0.801732
0.842218
0.838303
0.805825
0.700395
0.579964
0.47384
0.448956
-0.259193
-0.242579
-0.186533
-0.113648
-0.0275694
0.0654543
0.165698
0.272088
0.384273
0.501931
0.614456
0.704498
0.766921
0.784093
0.749691
0.665309
0.510875
0.359597
0.232026
0.206186
-0.273923
-0.257543
-0.201315
-0.128685
-0.042902
0.0497429
0.149409
0.254885
0.365607
0.480789
0.589289
0.673844
0.72492
0.715541
0.660551
0.512948
0.312459
0.099304
-0.0808454
-0.12761
-0.289885
-0.273566
-0.217041
-0.144611
-0.0590882
0.0331983
0.132247
0.236704
0.345807
0.458183
0.561548
0.640647
0.676482
0.635709
0.547339
0.357802
0.123283
-0.168877
-0.493608
-0.638563
-0.307163
-0.290788
-0.233828
-0.161501
-0.0761773
0.015761
0.114153
0.217515
0.324862
0.434106
0.531627
0.604818
0.62375
0.550771
0.413354
0.203552
-0.0360971
-0.386591
-0.982254
-1.55874
-0.325808
-0.309235
-0.251735
-0.179419
-0.0941862
-0.00255294
0.0951885
0.19741
0.302915
0.408986
0.500699
0.566061
0.567376
0.475036
0.282891
0.0427733
-0.167393
-0.411542
-0.984109
-2.53492
-0.345825
-0.329071
-0.270862
-0.198478
-0.11327
-0.0219362
0.0751227
0.176144
0.279677
0.382425
0.468325
0.524483
0.506792
0.415146
0.185454
-0.0605034
-0.215623
-0.260415
-0.260641
-0.657141
-0.367105
-0.350301
-0.291363
-0.218983
-0.133818
-0.0428621
0.0533649
0.152962
0.254224
0.353025
0.433491
0.479332
0.445296
0.366452
0.133533
-0.0786344
-0.196508
-0.208064
-0.157606
-0.199884
-0.389618
-0.372881
-0.313234
-0.240966
-0.155888
-0.0654443
0.029775
0.127737
0.22637
0.32062
0.396442
0.432837
0.390967
0.315187
0.0992927
-0.0719521
-0.158126
-0.165858
-0.213147
-0.220071
-0.413246
-0.396475
-0.336386
-0.264442
-0.179464
-0.0896784
0.00433332
0.100398
0.19611
0.285688
0.357002
0.384728
0.342831
0.25433
0.0712733
-0.0625193
-0.138731
-0.108523
-0.131511
-0.133322
-0.437861
-0.420809
-0.360733
-0.289276
-0.204369
-0.115477
-0.0228485
0.0711353
0.163621
0.248661
0.315447
0.333187
0.300814
0.187544
0.0369591
-0.0567812
-0.10718
-0.146887
-0.123499
-0.131265
-0.462931
-0.44554
-0.386149
-0.315314
-0.230386
-0.142635
-0.0515629
0.0401634
0.129043
0.209773
0.272511
0.279855
0.25828
0.123901
-0.00226075
-0.0703111
-0.0603431
-0.121388
-0.0966426
-0.10245
-0.487898
-0.470327
-0.412408
-0.342069
-0.257146
-0.170886
-0.0814694
0.00788854
0.0927339
0.169498
0.229583
0.228169
0.208274
0.0710362
-0.0325074
-0.0897235
-0.0650495
-0.0949376
-0.0969073
-0.0974389
-0.512132
-0.494847
-0.43864
-0.368859
-0.284335
-0.199794
-0.112115
-0.0251721
0.0554058
0.128174
0.186986
0.179403
0.152497
0.0260072
-0.0505846
-0.0890962
-0.109694
-0.0975643
-0.103202
-0.100167
-0.534958
-0.518381
-0.46384
-0.394799
-0.311499
-0.228777
-0.142865
-0.0584237
0.0179217
0.086202
0.14435
0.132263
0.0940679
-0.0108432
-0.0658528
-0.0777253
-0.132497
-0.0981962
-0.105239
-0.098631
-0.555426
-0.539977
-0.487092
-0.419081
-0.3382
-0.25701
-0.172941
-0.0910201
-0.0184478
0.0443786
0.102879
0.0870523
0.0378149
-0.0364854
-0.0812871
-0.076299
-0.133693
-0.0874725
-0.0939268
-0.0877259
-0.572331
-0.558388
-0.507699
-0.441116
-0.363219
-0.283434
-0.201419
-0.122104
-0.052761
0.00351149
0.0619637
0.0417493
-0.0198545
-0.054868
-0.0650625
-0.0468974
-0.0583986
-0.0684222
-0.0781246
-0.0797308
-0.584583
-0.5726
-0.5247
-0.460154
-0.385098
-0.307033
-0.227301
-0.150513
-0.0836827
-0.0343755
0.0233967
0.000219624
-0.0850161
-0.0843972
-0.00658435
0.0243027
-0.00589673
-0.0490682
-0.0678939
-0.0818291
-0.59107
-0.581292
-0.537055
-0.474816
-0.402306
-0.326609
-0.249343
-0.174906
-0.10988
-0.0663085
-0.0126954
-0.0327739
-0.156348
-0.218209
-0.172136
-0.20555
-0.213235
-0.215317
-0.218157
-0.212109
-0.591222
-0.583434
-0.543169
-0.483758
-0.413958
-0.340843
-0.266075
-0.19372
-0.130002
-0.0889921
-0.0444131
-0.0595386
-0.230932
-0.477556
-0.733314
-0.869163
-0.893947
-0.84503
-0.77933
-0.717074
-0.584079
-0.576863
-0.541394
-0.485666
-0.418947
-0.34858
-0.276113
-0.205153
-0.141251
-0.0987039
-0.0631441
-0.069774
-0.26089
-0.614564
-1.08081
-1.30189
-1.32588
-1.24401
-1.14893
-1.07683
-0.565812
-0.558207
-0.529404
-0.479205
-0.416442
-0.348869
-0.278424
-0.207651
-0.140746
-0.0913912
-0.0558117
-0.0390995
-0.149606
-0.331586
-0.574353
-0.64945
-0.580752
-0.498902
-0.379036
-0.314411
-0.530382
-0.523545
-0.506114
-0.46443
-0.406283
-0.341345
-0.272463
-0.200299
-0.126998
-0.0624034
-0.0103085
0.0720248
0.165401
0.349907
0.506805
0.664638
0.809028
0.903416
0.95811
1.00778
-0.484404
-0.48061
-0.47517
-0.442185
-0.390226
-0.3276
-0.258524
-0.183528
-0.101251
-0.0130923
0.0736258
0.223121
0.465726
0.851184
1.2227
1.53035
1.74914
1.88414
1.95157
1.97336
-0.450597
-0.450393
-0.444746
-0.419446
-0.372205
-0.31032
-0.239241
-0.160439
-0.0700037
0.0377011
0.153452
0.304512
0.605659
1.00492
1.39462
1.72552
1.96409
2.10187
2.1622
2.17817
-0.418771
-0.419683
-0.413941
-0.398507
-0.355659
-0.293635
-0.219716
-0.138372
-0.0458069
0.0645122
0.182066
0.288166
0.543912
0.872173
1.18164
1.44511
1.65063
1.77461
1.83159
1.84864
-0.38936
-0.388524
-0.387988
-0.381081
-0.33864
-0.277038
-0.202645
-0.120861
-0.0323737
0.0676801
0.177948
0.247828
0.441425
0.707583
0.949425
1.15432
1.32188
1.42681
1.47386
1.48652
-0.370401
-0.369067
-0.374662
-0.364509
-0.321783
-0.259725
-0.186623
-0.108147
-0.0270987
0.0575429
0.159128
0.211232
0.341347
0.548
0.738536
0.892894
1.01668
1.09913
1.13633
1.14634
-0.336328
-0.336168
-0.342826
-0.332847
-0.295203
-0.235995
-0.167641
-0.0953215
-0.0230328
0.0464107
0.137787
0.184176
0.263559
0.418026
0.56722
0.682348
0.771504
0.83218
0.858662
0.864237
-0.275119
-0.276728
-0.281278
-0.273588
-0.244733
-0.196123
-0.139956
-0.0781271
-0.0157131
0.040377
0.119229
0.163622
0.210457
0.323516
0.436524
0.520021
0.583156
0.626495
0.644947
0.651021
-0.188738
-0.190961
-0.193025
-0.188195
-0.168957
-0.137551
-0.0987321
-0.0529422
-0.00203917
0.0426912
0.106342
0.146915
0.177042
0.261238
0.342687
0.400708
0.445488
0.480458
0.493125
0.496521
-0.0929499
-0.0942236
-0.0960601
-0.0944896
-0.0855924
-0.0698199
-0.0481195
-0.019428
0.0183492
0.0515154
0.0993502
0.132434
0.154244
0.219402
0.276262
0.316283
0.348822
0.370621
0.381251
0.384743
-0.0109536
-0.0120414
-0.0133738
-0.0141415
-0.0124173
-0.00743319
0.00163321
0.0168247
0.040984
0.0624801
0.0958083
0.121205
0.136961
0.186698
0.227661
0.254584
0.275982
0.28891
0.294889
0.296525
0.0503059
0.0496076
0.0481985
0.0454621
0.0422106
0.0407301
0.0421114
0.0479548
0.0603339
0.0731678
0.0935223
0.113804
0.12442
0.16123
0.190116
0.209207
0.221412
0.227805
0.229426
0.228875
0.088267
0.0877508
0.0863885
0.0826801
0.0766734
0.0717854
0.0690771
0.0693225
0.0742246
0.0819464
0.0937872
0.107422
0.117581
0.140284
0.159562
0.172298
0.178853
0.180825
0.180134
0.178581
0.108289
0.107851
0.106592
0.102835
0.0962588
0.0899553
0.0850783
0.0823368
0.0836886
0.0882189
0.0962671
0.104569
0.113165
0.124636
0.134168
0.139464
0.142481
0.141816
0.139963
0.138678
0.116583
0.116227
0.115167
0.112031
0.106358
0.100265
0.094844
0.0907441
0.0903198
0.0917551
0.0979024
0.103213
0.107988
0.113637
0.117048
0.117615
0.117702
0.116789
0.114692
0.113166
0.118582
0.118297
0.117435
0.115057
0.110652
0.105697
0.100786
0.0962444
0.0945625
0.0932701
0.0972731
0.100155
0.101377
0.104682
0.10735
0.108503
0.107948
0.106964
0.105218
0.103055
0.117244
0.11703
0.116327
0.114652
0.111378
0.107565
0.103439
0.0991276
0.0968136
0.0939533
0.0949088
0.0946079
0.0942236
0.0966492
0.0994445
0.102072
0.102864
0.100493
0.0988043
0.0972555
0.114588
0.114419
0.113852
0.112588
0.110074
0.107246
0.103898
0.100296
0.0979286
0.0944074
0.0926905
0.0906857
0.0900005
0.0915007
0.094314
0.096126
0.0969475
0.0966019
0.0957434
0.0944603
0.111472
0.111328
0.110891
0.10998
0.108161
0.106103
0.103512
0.100467
0.0979192
0.0940221
0.0910915
0.0879989
0.087754
0.0902026
0.093788
0.0963549
0.097624
0.100376
0.101824
0.0997398
0.108601
0.108473
0.108181
0.107489
0.106159
0.104709
0.102739
0.100019
0.0975119
0.0931521
0.0891414
0.0841859
0.0809766
0.0872428
0.0948374
0.0998971
0.105665
0.108757
0.110206
0.108319
0.106
0.105882
0.105704
0.105203
0.10425
0.103238
0.102366
0.100009
0.0981492
0.0938501
0.0881308
0.0829044
0.0759756
0.0825137
0.093514
0.100205
0.10537
0.105981
0.105532
0.104887
0.103588
0.103508
0.103438
0.103078
0.102569
0.102043
0.102238
0.100896
0.100002
0.096126
0.090141
0.0828904
0.0762899
0.0820836
0.0887553
0.0922872
0.0916071
0.0918312
0.0927314
0.0923337
0.100473
0.100484
0.100673
0.100965
0.101293
0.100917
0.101081
0.102005
0.10122
0.0986627
0.0987755
0.0877682
0.0783177
0.0847485
0.0885209
0.0904097
0.0946596
0.0993822
0.102792
0.100622
0.0955997
0.0955859
0.0957391
0.0962818
0.0970021
0.0977776
0.0981122
0.101667
0.105154
0.106839
0.108344
0.0996299
0.0881463
0.0919531
0.0966516
0.105346
0.119568
0.126869
0.127992
0.124841
0.0885737
0.0887211
0.0891531
0.0899352
0.0904862
0.0930908
0.0950745
0.0985098
0.104051
0.108447
0.119675
0.113991
0.100069
0.096462
0.0964604
0.101512
0.105802
0.10598
0.10473
0.102076
0.0782111
0.0783877
0.0791576
0.0807234
0.0829657
0.0879908
0.0932731
0.0989367
0.104064
0.112891
0.118927
0.122088
0.106227
0.0916491
0.0751219
0.0625402
0.0477688
0.0377933
0.0387422
0.038668
0.0633146
0.063721
0.0648398
0.0688867
0.0714386
0.0747835
0.0800078
0.0859238
0.0957382
0.107763
0.117074
0.121352
0.10576
0.0808108
0.0525298
0.0343318
0.0201024
0.00692629
0.00304819
0.008302
0.0402491
0.0403761
0.0413109
0.0440812
0.0474819
0.0514189
0.0562245
0.0626933
0.073402
0.0803405
0.0958463
0.0956199
0.0946903
0.0673083
0.0484311
0.0350736
0.0322705
0.0307033
0.0199339
0.0235954
0.0121224
0.0116924
0.0105314
0.0090786
0.00858517
0.0112157
0.0161274
0.0240953
0.0314067
0.0313898
0.0492233
0.0603931
0.0640053
0.0430734
0.0409845
0.0296646
0.0197232
0.0240539
0.0208108
0.0232007
-0.997032
-0.141606
0.129285
0.410348
0.597526
0.759011
0.892534
1.02813
1.17449
1.25317
-0.00325935
0.410697
0.43187
0.623423
0.752784
0.868389
0.968479
1.05706
1.08575
1.04268
0.383725
0.602208
0.641564
0.780004
0.869562
0.952316
1.02047
1.07149
1.07442
1.0877
0.620179
0.766829
0.80317
0.908515
0.965811
1.02636
1.07216
1.10512
1.11456
1.13798
0.802875
0.906949
0.936601
1.00718
1.05148
1.09432
1.12705
1.15163
1.16172
1.19307
0.948923
1.0192
1.04974
1.09407
1.13065
1.16148
1.18625
1.20712
1.22153
1.24965
1.06964
1.12116
1.14693
1.1755
1.20376
1.22792
1.24819
1.26757
1.28265
1.30903
1.17431
1.21189
1.23315
1.25416
1.27541
1.29511
1.31269
1.33091
1.34584
1.36949
1.26887
1.29784
1.31487
1.33045
1.34686
1.36312
1.37878
1.39578
1.40939
1.43171
1.35766
1.37835
1.39341
1.40676
1.42051
1.43441
1.44795
1.46255
1.47409
1.49374
1.44364
1.45953
1.47347
1.48542
1.49743
1.50908
1.52019
1.53186
1.53951
1.55633
1.52917
1.54207
1.55584
1.5675
1.57806
1.58779
1.59655
1.60478
1.60834
1.61962
1.61839
1.6294
1.64287
1.65208
1.65951
1.66671
1.67389
1.68041
1.68143
1.68885
1.71684
1.72157
1.72961
1.73409
1.73737
1.74183
1.74783
1.75556
1.75941
1.76929
1.83011
1.81643
1.809
1.80339
1.80073
1.80213
1.80858
1.82097
1.83575
1.86541
1.95107
1.89532
1.86447
1.84739
1.83923
1.8392
1.84794
1.8675
1.89945
1.96865
)
;

boundaryField
{
    wall-4
    {
        type            zeroGradient;
    }
    pressure-outlet-7
    {
        type            fixedValue;
        value           uniform 0;
    }
    velocity-inlet-6
    {
        type            zeroGradient;
    }
    velocity-inlet-5
    {
        type            zeroGradient;
    }
    frontAndBackPlanes
    {
        type            empty;
    }
}


// ************************************************************************* //
