/*--------------------------------*- C++ -*----------------------------------*\
  =========                 |
  \\      /  F ield         | OpenFOAM: The Open Source CFD Toolbox
   \\    /   O peration     | Website:  https://openfoam.org
    \\  /    A nd           | Version:  9
     \\/     M anipulation  |
\*---------------------------------------------------------------------------*/
FoamFile
{
    format      ascii;
    class       surfaceScalarField;
    location    "36";
    object      phi;
}
// * * * * * * * * * * * * * * * * * * * * * * * * * * * * * * * * * * * * * //

dimensions      [0 3 -1 0 0 0 0];

internalField   nonuniform List<scalar> 
4262
(
0.107146
0.470842
0.0955961
0.705136
0.0694396
0.858459
0.0474794
1.02072
0.0311527
1.21484
0.01992
1.44945
0.0124426
1.73334
0.00722948
2.07625
0.00334746
2.48913
-0.000235121
2.98587
-0.00378911
2.98585
-0.00764041
2.48909
-0.0128268
2.07622
-0.0202086
1.73325
-0.0312405
1.44925
-0.0473596
1.21464
-0.0691676
1.02057
-0.095363
0.858498
-0.107111
0.705334
0.470877
0.112879
0.357963
0.135287
0.682728
0.120345
0.873402
0.0977219
1.04335
0.0744692
1.2381
0.052836
1.47109
0.0345086
1.75167
0.0203125
2.09045
0.00897535
2.50046
-0.00111156
2.99596
-0.0112442
2.99598
-0.0224048
2.50026
-0.036357
2.09017
-0.0543419
1.75123
-0.0759534
1.47086
-0.0995248
1.23821
-0.122521
1.04357
-0.13654
0.872518
-0.113403
0.682197
0.357474
0.092096
0.265867
0.125084
0.649739
0.121281
0.877206
0.105061
1.05957
0.0863254
1.25683
0.0671934
1.49022
0.0484373
1.77042
0.0305638
2.10832
0.0141676
2.51686
-0.00171547
3.01184
-0.0174578
3.01172
-0.0336216
2.51642
-0.0511404
2.10769
-0.0696326
1.76972
-0.0882413
1.48947
-0.105882
1.25585
-0.12057
1.05826
-0.125399
0.877347
-0.092368
0.649166
0.265106
0.064084
0.201783
0.105004
0.608819
0.106839
0.875371
0.0954974
1.07091
0.0815861
1.27074
0.0668215
1.50498
0.0506539
1.78659
0.0334683
2.1255
0.0158289
2.5345
-0.00270845
3.03038
-0.0209173
3.02993
-0.0378998
2.5334
-0.0543737
2.12417
-0.0698839
1.78523
-0.0839847
1.50357
-0.0977191
1.26958
-0.109322
1.06986
-0.106509
0.874534
-0.0646762
0.607333
0.200429
0.0374481
0.164335
0.0806792
0.565588
0.0910358
0.865014
0.0839631
1.07798
0.0716198
1.28309
0.059946
1.51666
0.0470378
1.7995
0.0322299
2.14031
0.0154846
2.55124
-0.00346893
3.04934
-0.0221947
3.04866
-0.0384854
2.54969
-0.0527305
2.13841
-0.0649418
1.79744
-0.0761056
1.51474
-0.0879278
1.2814
-0.0942569
1.07619
-0.0827388
0.863015
-0.0381931
0.562788
0.162236
0.0195203
0.144814
0.0574451
0.527663
0.0730124
0.849447
0.0710274
1.07997
0.0623866
1.29173
0.0516685
1.52737
0.0404293
1.81074
0.0278466
2.1529
0.0128231
2.56627
-0.00480874
3.06697
-0.0220971
3.06594
-0.036286
2.56388
-0.0477481
2.14987
-0.0580195
1.80772
-0.0678221
1.52454
-0.0754653
1.28905
-0.0764409
1.07716
-0.0595784
0.846153
-0.0202373
0.523447
0.141999
0.010719
0.134095
0.0425537
0.495828
0.0587572
0.833244
0.0590778
1.07965
0.0529511
1.29785
0.0437082
1.53662
0.0336814
1.82077
0.0226078
2.16397
0.00980686
2.57907
-0.00567553
3.08245
-0.0208121
3.08108
-0.0327442
2.57581
-0.0427244
2.15986
-0.0515981
1.81659
-0.0597813
1.53272
-0.0647443
1.29401
-0.0631409
1.07556
-0.0451673
0.828179
-0.0115107
0.48979
0.130488
0.0065611
0.127534
0.0329516
0.469438
0.0493169
0.816878
0.0509254
1.07804
0.0458782
1.3029
0.0375636
1.54493
0.0281403
1.83019
0.0176213
2.17449
0.00593163
2.59076
-0.00765376
3.09604
-0.0206811
3.09411
-0.0311437
2.58628
-0.0401943
2.16891
-0.0478015
1.8242
-0.0545094
1.53943
-0.0579909
1.29749
-0.0547672
1.07234
-0.0362567
0.809669
-0.00759145
0.461125
0.122897
0.00471992
0.122814
0.02662
0.447538
0.0425195
0.800979
0.0448637
1.07569
0.0405202
1.30724
0.033189
1.55226
0.0244767
1.8389
0.014538
2.18443
0.00340823
2.60189
-0.00907792
3.10852
-0.0208828
3.10591
-0.0305588
2.59595
-0.0387205
2.17707
-0.0459252
1.8314
-0.0517465
1.54525
-0.0543513
1.3001
-0.049711
1.0677
-0.0307715
0.790729
-0.00599736
0.43635
0.116899
0.00379476
0.11902
0.021782
0.429551
0.0371127
0.785648
0.040193
1.07261
0.0362486
1.31119
0.0293009
1.55921
0.0209515
1.84725
0.0112349
2.19414
0.000259505
2.61286
-0.0117623
3.12054
-0.0229706
3.11712
-0.0319616
2.60494
-0.0394401
2.18455
-0.0453237
1.83728
-0.0498321
1.54976
-0.0512955
1.30156
-0.0454144
1.06181
-0.0266163
0.771931
-0.00530265
0.415037
0.111597
0.00296596
0.116054
0.0172096
0.415307
0.0311823
0.771675
0.0345072
1.06929
0.0310055
1.31469
0.0246313
1.56558
0.0168221
1.85506
0.00754308
2.20342
-0.00296262
2.62337
-0.0142627
3.13184
-0.024702
3.12756
-0.0330174
2.61326
-0.0394851
2.19101
-0.044561
1.84236
-0.0482391
1.55344
-0.0488373
1.30216
-0.0418263
1.0548
-0.0232228
0.753328
-0.00485749
0.396672
0.106739
0.00213011
0.113923
0.0128886
0.404549
0.0250645
0.759499
0.0284576
1.06589
0.0252126
1.31794
0.0191658
1.57163
0.0116359
1.86259
0.00287085
2.21219
-0.00704679
2.63329
-0.0177208
3.14252
-0.0271104
3.13695
-0.0343365
2.62048
-0.0397722
2.19645
-0.0438529
1.84644
-0.0463988
1.55598
-0.0459399
1.3017
-0.03803
1.04689
-0.0202051
0.735503
-0.00441972
0.380886
0.10232
0.00135933
0.112564
0.00931987
0.396588
0.0197601
0.749059
0.0223795
1.06328
0.0188226
1.32149
0.0128885
1.57757
0.00579625
1.86968
-0.00234984
2.22033
-0.0115842
2.64252
-0.0217178
3.15265
-0.0304157
3.14565
-0.0362861
2.62636
-0.0401933
2.20036
-0.0431058
1.84935
-0.0448911
1.55777
-0.0439439
1.30075
-0.0354059
1.03836
-0.0181303
0.718227
-0.00415005
0.366906
0.0981696
0.000692839
0.111871
0.00611734
0.391163
0.0143023
0.740874
0.0165165
1.06106
0.012595
1.32541
0.00599541
1.58417
-0.00158614
1.87726
-0.00963836
2.22839
-0.0182624
2.65114
-0.0273366
3.16173
-0.0344024
3.15271
-0.0385662
2.63052
-0.0413373
2.20313
-0.0437393
1.85176
-0.0447509
1.55878
-0.0427892
1.29879
-0.0333955
1.02896
-0.0167127
0.701544
-0.00411019
0.354303
0.0940594
-0.000138828
0.11201
0.00228057
0.388744
0.00813499
0.73502
0.00932072
1.05988
0.0053436
1.32939
-0.00118233
1.59069
-0.00875988
1.88484
-0.0169195
2.23654
-0.0251811
2.65941
-0.0330354
3.16958
-0.0388505
3.15853
-0.0421141
2.63378
-0.0439636
2.20498
-0.0453322
1.85312
-0.0450128
1.55846
-0.0419834
1.29576
-0.0318036
1.01878
-0.0155106
0.685252
-0.00400254
0.342795
0.0900568
-0.00113933
0.113149
-0.00141348
0.389018
0.00205596
0.73155
0.0023512
1.05958
-0.00202364
1.33377
-0.00877539
1.59744
-0.0166259
1.89269
-0.024965
2.24488
-0.0334831
2.66792
-0.0411411
3.17724
-0.0460287
3.16342
-0.0480344
2.63579
-0.0486624
2.20561
-0.0481229
1.85258
-0.0463859
1.55672
-0.0416204
1.291
-0.030186
1.00735
-0.0144121
0.669478
-0.00386309
0.332246
0.0861937
-0.00238686
0.115536
-0.00485211
0.391483
-0.0053932
0.732091
-0.00665264
1.06084
-0.0110601
1.33817
-0.0176408
1.60402
-0.0254843
1.90054
-0.0342054
2.25361
-0.0431399
2.67686
-0.0506893
3.18479
-0.0547161
3.16744
-0.05543
2.6365
-0.0540405
2.20422
-0.051674
1.85022
-0.0483784
1.55343
-0.0420059
1.28462
-0.0296777
0.99502
-0.0140821
0.653882
-0.00386855
0.322033
0.0823252
-0.00364432
0.119181
-0.00913936
0.396978
-0.0127296
0.735682
-0.0160154
1.06413
-0.0214778
1.34364
-0.0288511
1.6114
-0.0373347
1.90902
-0.046431
2.2627
-0.0551784
2.68561
-0.0620678
3.19168
-0.0648368
3.17021
-0.0638537
2.63552
-0.0609427
2.2013
-0.0572242
1.8465
-0.0520985
1.5483
-0.0436771
1.2762
-0.0299242
0.981267
-0.0143783
0.638336
-0.0041129
0.311767
0.0782123
-0.00521858
0.124399
-0.0144629
0.406223
-0.021992
0.743211
-0.0277889
1.06992
-0.0340647
1.34991
-0.0424
1.61973
-0.0519051
1.91852
-0.0617954
2.27259
-0.0709446
2.69476
-0.0769658
3.1977
-0.0773742
3.17062
-0.074137
2.63228
-0.0690259
2.19619
-0.0629744
1.84045
-0.055682
1.54101
-0.0458298
1.26635
-0.0312596
0.966697
-0.0154278
0.622504
-0.00448408
0.300824
0.0737282
-0.00644836
0.130848
-0.0186471
0.418422
-0.030145
0.754709
-0.0388824
1.07866
-0.0474995
1.35853
-0.0577292
1.62996
-0.0687713
1.92957
-0.0799181
2.28374
-0.0891332
2.70397
-0.0939316
3.2025
-0.092727
3.16942
-0.0875594
2.62711
-0.0802764
2.18891
-0.0724161
1.83259
-0.0632933
1.53189
-0.0511387
1.25419
-0.0345379
0.950096
-0.0174548
0.605421
-0.00511229
0.288481
0.0686159
-0.00865891
0.139506
-0.0249143
0.434677
-0.0410523
0.770847
-0.0532692
1.09088
-0.0638374
1.3691
-0.0760304
1.64215
-0.0891174
1.94265
-0.101701
2.29632
-0.112008
2.71428
-0.116959
3.20745
-0.113384
3.16584
-0.104861
2.61859
-0.0945831
2.17863
-0.083652
1.82166
-0.0720746
1.52031
-0.0580662
1.24019
-0.0397952
0.931825
-0.0205897
0.586216
-0.00598009
0.273872
0.0626358
-0.0109099
0.150416
-0.0311955
0.454962
-0.051989
0.79164
-0.0684675
1.10736
-0.0833044
1.38393
-0.0991891
1.65804
-0.114759
1.95822
-0.129091
2.31065
-0.139186
2.72437
-0.141794
3.21005
-0.13534
3.15939
-0.124515
2.60777
-0.112124
2.16624
-0.0996759
1.80921
-0.0861775
1.50681
-0.0691588
1.22317
-0.0471546
0.909821
-0.0244041
0.563465
-0.00700298
0.25647
0.0556329
-0.0155197
0.165936
-0.0427673
0.48221
-0.0695102
0.818383
-0.0909081
1.12875
-0.109428
1.40245
-0.128333
1.67694
-0.146893
1.97678
-0.162683
2.32644
-0.173059
2.73475
-0.174794
3.21179
-0.166017
3.15061
-0.151226
2.59297
-0.134694
2.14971
-0.118096
1.79261
-0.10106
1.48978
-0.0807685
1.20288
-0.0553003
0.884353
-0.0286687
0.536834
-0.0080623
0.235864
0.0475706
-0.0193913
0.185327
-0.0546662
0.517485
-0.0899978
0.853715
-0.11764
1.1564
-0.142002
1.42682
-0.166206
1.70115
-0.187432
1.99801
-0.20431
2.34332
-0.213665
2.7441
-0.211547
3.20967
-0.197289
3.13635
-0.178704
2.57439
-0.159869
2.13088
-0.141409
1.77415
-0.121536
1.4699
-0.0963497
1.17769
-0.0649408
0.852944
-0.0328741
0.504767
-0.00886127
0.211851
0.0387093
-0.0326324
0.21796
-0.0800942
0.564947
-0.123835
0.897456
-0.158455
1.19101
-0.188843
1.4572
-0.21584
1.72815
-0.238458
2.02063
-0.254999
2.35986
-0.262529
2.75163
-0.257514
3.20466
-0.240652
3.11949
-0.218737
2.55247
-0.194899
2.10704
-0.170382
1.74963
-0.14433
1.44385
-0.113061
1.14642
-0.0756386
0.815521
-0.0380225
0.467151
-0.0098972
0.183726
0.0288121
-0.0469995
0.264959
-0.11814
0.636087
-0.177077
0.956392
-0.217989
1.23193
-0.252415
1.49163
-0.281349
1.75708
-0.303172
2.04245
-0.316944
2.37363
-0.319639
2.75433
-0.307885
3.1929
-0.283422
3.09503
-0.255297
2.52435
-0.227567
2.07931
-0.200783
1.72285
-0.17096
1.41403
-0.132864
1.10833
-0.0872588
0.769916
-0.0413824
0.421275
-0.00976072
0.152104
0.0190514
-0.032917
0.297876
-0.0929171
0.696088
-0.147139
1.01061
-0.192148
1.27694
-0.233825
1.53331
-0.269351
1.79261
-0.30322
2.07632
-0.33324
2.40365
-0.355046
2.77614
-0.362826
3.20068
-0.352449
3.08465
-0.330636
2.50253
-0.299685
2.04836
-0.258391
1.68155
-0.209124
1.36476
-0.152383
1.05158
-0.0905643
0.708097
-0.0371715
0.367882
-0.0081714
0.123104
0.01088
-0.0114973
0.309374
-0.0433276
0.727918
-0.081742
1.04903
-0.118594
1.31379
-0.154671
1.56938
-0.188408
1.82634
-0.219792
2.1077
-0.246229
2.43009
-0.263866
2.79377
-0.266326
3.20314
-0.250159
3.06848
-0.220345
2.47272
-0.181903
2.00991
-0.1417
1.64135
-0.100591
1.32365
-0.059453
1.01045
-0.0252187
0.673863
-0.0052421
0.347905
-7.98496e-05
0.117942
0.0108001
0.00173977
0.307634
-0.0205405
0.750198
-0.0483186
1.07681
-0.0768298
1.3423
-0.105822
1.59838
-0.134936
1.85546
-0.162739
2.13551
-0.186178
2.45353
-0.201384
2.80898
-0.202605
3.20436
-0.185622
3.0515
-0.155866
2.44296
-0.122045
1.97609
-0.0844823
1.60379
-0.0445586
1.28373
-0.00965716
0.975545
0.0108908
0.653315
0.0124924
0.346303
0.00472233
0.125712
0.0155225
0.00227265
0.305361
-0.00894259
0.761413
-0.0291341
1.097
-0.0526838
1.36585
-0.0768252
1.62252
-0.101358
1.87999
-0.125192
2.15934
-0.145209
2.47355
-0.157344
2.82111
-0.155481
3.2025
-0.136736
3.03276
-0.109864
2.41609
-0.0769062
1.94314
-0.0409323
1.56782
-0.0101783
1.25297
0.0117892
0.953577
0.0212164
0.643888
0.0169761
0.350544
0.00595229
0.136736
0.0214748
0.00467536
0.300686
-0.00324213
0.769331
-0.0201836
1.11394
-0.0394803
1.38515
-0.0597407
1.64278
-0.0808651
1.90111
-0.101679
2.18015
-0.119482
2.49135
-0.130609
2.83224
-0.129353
3.20125
-0.1127
3.0161
-0.0865734
2.38997
-0.0571308
1.91369
-0.0282617
1.53895
-0.00114045
1.22585
0.0179078
0.934529
0.0235847
0.638211
0.0169177
0.357211
0.00564563
0.148008
0.0271204
0.00564044
0.295045
0.000331061
0.77464
-0.0147682
1.12904
-0.0323481
1.40273
-0.0503838
1.66081
-0.0690107
1.91974
-0.0874404
2.19858
-0.103281
2.50719
-0.112574
2.84153
-0.110579
3.19925
-0.0950853
3.00061
-0.0729063
2.36779
-0.0470435
1.88783
-0.0201977
1.5121
0.00155734
1.2041
0.0161721
0.919914
0.0205565
0.633827
0.0135764
0.364191
0.00427791
0.157306
0.0313983
0.00385766
0.291188
1.32586e-05
0.778485
-0.0127651
1.14182
-0.0286165
1.41858
-0.0451889
1.67738
-0.0623688
1.93692
-0.0795696
2.21578
-0.0947039
2.52233
-0.104745
2.85157
-0.104213
3.19872
-0.0895881
2.98598
-0.0676402
2.34584
-0.0445553
1.86475
-0.0235571
1.4911
-0.00298091
1.18352
0.0105808
0.906352
0.0139286
0.630479
0.00951701
0.368602
0.00295455
0.163869
0.0343528
0.00251727
0.288671
-0.000839582
0.781841
-0.0124851
1.15346
-0.0272875
1.43338
-0.0429638
1.69306
-0.0591148
1.95307
-0.0753392
2.23201
-0.0896996
2.53669
-0.0985458
2.86042
-0.0963499
3.19652
-0.0838356
2.97347
-0.0659953
2.328
-0.0458715
1.84462
-0.0249984
1.47023
-0.00878166
1.16731
0.00236448
0.895206
0.00653207
0.626311
0.00395155
0.371183
0.00145257
0.166368
0.0358054
-0.000104067
0.288775
-0.00362921
0.785367
-0.0139825
1.16382
-0.0271763
1.44657
-0.0420707
1.70796
-0.0577579
1.96876
-0.0737459
2.248
-0.0885089
2.55145
-0.0993397
2.87125
-0.102468
3.19965
-0.0918407
2.96284
-0.0731087
2.30927
-0.0520754
1.82359
-0.034485
1.45264
-0.0192455
1.15207
-0.00882345
0.884784
-0.00386657
0.621355
-0.00207539
0.369392
-0.000561452
0.164854
0.035244
-0.000702761
0.289477
-0.00577385
0.790438
-0.0156025
1.17364
-0.0280734
1.45904
-0.0423928
1.72228
-0.0576326
1.984
-0.0734259
2.26379
-0.0881944
2.56622
-0.098485
2.88154
-0.0993611
3.20053
-0.0886096
2.95209
-0.0737839
2.29444
-0.0586633
1.80847
-0.0413573
1.43533
-0.0275574
1.13827
-0.0164118
0.873639
-0.00897608
0.613919
-0.00546096
0.365877
-0.00159416
0.160987
0.0336498
-0.00263101
0.292108
-0.00791282
0.79572
-0.0171675
1.1829
-0.0289926
1.47087
-0.0427867
1.73607
-0.057784
1.999
-0.0735855
2.27959
-0.08883
2.58146
-0.101458
2.89417
-0.10755
3.20662
-0.100821
2.94536
-0.084134
2.27775
-0.0645964
1.78893
-0.0501479
1.42088
-0.0351907
1.12331
-0.0238419
0.86229
-0.0155121
0.605589
-0.00753603
0.357901
-0.00223655
0.155688
0.0314132
-0.00391515
0.296024
-0.00956658
0.801371
-0.0187397
1.19207
-0.0302355
1.48236
-0.0435132
1.74935
-0.0581614
2.01365
-0.0740931
2.29552
-0.0900938
2.59746
-0.103321
2.9074
-0.108399
3.2117
-0.102617
2.93958
-0.0908938
2.26603
-0.0757621
1.7738
-0.0570997
1.40222
-0.0426287
1.10884
-0.0295184
0.849179
-0.0185226
0.594593
-0.00988772
0.349266
-0.00285922
0.148659
0.028554
-0.00439537
0.300419
-0.0107103
0.807686
-0.0197845
1.20115
-0.030911
1.49349
-0.0438693
1.76231
-0.0584161
2.02819
-0.074507
2.31161
-0.0909432
2.6139
-0.105639
2.92209
-0.11636
3.22242
-0.115299
2.93852
-0.101051
2.25178
-0.0811103
1.75386
-0.0643988
1.38551
-0.0480315
1.09247
-0.034811
0.835959
-0.0230134
0.582796
-0.0106582
0.336911
-0.00294356
0.140944
0.0256105
-0.0044998
0.304919
-0.0114489
0.814635
-0.0206617
1.21036
-0.0316311
1.50446
-0.0442708
1.77494
-0.058518
2.04244
-0.0745775
2.32767
-0.0916235
2.63095
-0.107887
2.93836
-0.119031
3.23356
-0.117516
2.93701
-0.107681
2.24195
-0.0924514
1.73863
-0.071094
1.36415
-0.0537558
1.07513
-0.0376518
0.819855
-0.0232228
0.568367
-0.0113419
0.32503
-0.00284138
0.132444
0.0227691
-0.00455283
0.309471
-0.0118562
0.821938
-0.0209461
1.21945
-0.031656
1.51517
-0.0440892
1.78738
-0.0582259
2.05658
-0.0743635
2.34381
-0.0919272
2.64851
-0.109488
2.95592
-0.124141
3.24822
-0.129082
2.94195
-0.118816
2.23168
-0.0986794
1.71849
-0.0788518
1.34433
-0.0572463
1.05353
-0.0400582
0.802667
-0.0254498
0.553758
-0.0107831
0.310363
-0.00240416
0.124065
0.0203649
-0.00461521
0.314087
-0.0120978
0.829421
-0.0211287
1.22848
-0.0316789
1.52572
-0.0438375
1.79954
-0.0576952
2.07043
-0.0737982
2.35991
-0.0917895
2.6665
-0.110532
2.97466
-0.126943
3.26463
-0.132379
2.94738
-0.125562
2.22486
-0.11104
1.70397
-0.0863785
1.31966
-0.062011
1.02916
-0.0385503
0.779206
-0.0199437
0.535152
-0.00849809
0.298917
-0.00154713
0.117114
0.0188178
-0.00464563
0.318732
-0.0120952
0.836871
-0.0208343
1.23722
-0.0310784
1.53596
-0.0430169
1.81148
-0.0567617
2.08418
-0.0728595
2.37601
-0.0911285
2.68477
-0.110748
2.99428
-0.129068
3.28295
-0.140066
2.95838
-0.136458
2.22126
-0.118158
1.68567
-0.0945647
1.29607
-0.0641521
0.998746
-0.0371689
0.752223
-0.0157194
0.513702
-0.00348796
0.286686
-0.00209969
0.115726
0.0167181
-0.00461084
0.323343
-0.011983
0.844243
-0.0205395
1.24578
-0.0305382
1.54596
-0.042149
1.82309
-0.055579
2.09761
-0.0715225
2.39196
-0.0899496
2.7032
-0.110453
3.01478
-0.131287
3.30378
-0.14394
2.97103
-0.143474
2.22079
-0.131676
1.67387
-0.104457
1.26885
-0.0698131
0.964103
-0.0285992
0.711009
0.00926585
0.475837
0.027559
0.268393
0.0227777
0.120507
0.0394958
-0.00448524
0.327828
-0.011673
0.85143
-0.0198815
1.25398
-0.0294987
1.55558
-0.0407956
1.83438
-0.0540166
2.11083
-0.0698221
2.40776
-0.0883859
2.72176
-0.109529
3.03592
-0.131258
3.32551
-0.146729
2.98651
-0.152037
2.2261
-0.139788
1.66162
-0.115367
1.24443
-0.0740049
0.92274
-0.0274258
0.66443
0.0232678
0.425144
0.0395405
0.25212
0.0172416
0.142806
0.0567373
-0.00428904
0.332117
-0.0112965
0.858438
-0.0192691
1.26196
-0.028564
1.56488
-0.0394958
1.84531
-0.0523326
2.12367
-0.0678777
2.42331
-0.0863759
2.74026
-0.107888
3.05744
-0.13209
3.34971
-0.151331
3.00575
-0.158303
2.23307
-0.154561
1.65788
-0.130774
1.22064
-0.0896677
0.881634
-0.019389
0.594151
0.083797
0.321958
0.175535
0.160382
0.176833
0.141508
0.23357
-0.00413069
0.336248
-0.0110024
0.86531
-0.0188323
1.26979
-0.0280621
1.57411
-0.0391811
1.85643
-0.0525168
2.137
-0.0689616
2.43975
-0.0890519
2.76035
-0.113395
3.08178
-0.141411
3.37773
-0.164516
3.02885
-0.179688
2.24824
-0.178595
1.65679
-0.161193
1.20324
-0.117721
0.838162
-0.0688367
0.545266
-0.0991831
0.352304
-0.361922
0.423121
-0.932952
0.712538
0.896419
-1.5958
-0.00392948
0.340178
-0.0106099
0.87199
-0.018291
1.27747
-0.027395
1.58321
-0.0383744
1.86741
-0.0517365
2.15036
-0.0685215
2.45654
-0.0894301
2.78126
-0.115363
3.10771
-0.147127
3.40949
-0.178164
3.05989
-0.197888
2.26797
-0.213326
1.67222
-0.210476
1.20039
-0.197772
0.825458
-0.279057
0.626551
-0.690705
0.763952
-1.4226
1.15502
-2.03453
1.32446
1.21881
-2.35692
-0.00371391
0.343892
-0.0101039
0.87838
-0.0174789
1.28484
-0.0263258
1.59206
-0.0371801
1.87827
-0.0506443
2.16383
-0.0677882
2.47368
-0.0895722
2.80304
-0.117539
3.13568
-0.152963
3.44491
-0.187339
3.09427
-0.217921
2.29855
-0.237707
1.69201
-0.241844
1.20453
-0.329409
0.913023
-0.74994
1.04708
-1.5219
1.53591
-2.09838
1.73149
-2.3407
1.56679
1.33435
-2.45624
-0.00349876
0.34739
-0.0095577
0.884439
-0.0167014
1.29199
-0.0253646
1.60072
-0.0360174
1.88892
-0.0494347
2.17725
-0.0667964
2.49104
-0.0892942
2.82554
-0.11868
3.16507
-0.157197
3.48343
-0.200458
3.13753
-0.236009
2.3341
-0.273569
1.72957
-0.362368
1.29333
-0.695648
1.2463
-1.42201
1.77344
-2.01757
2.13148
-2.25974
1.97367
-2.37444
1.68149
1.40009
-2.44019
-0.00323023
0.350621
-0.00889388
0.890103
-0.0156501
1.29874
-0.0239816
1.60905
-0.0345027
1.89944
-0.047928
2.19067
-0.0655175
2.50863
-0.0886906
2.84871
-0.11984
3.19622
-0.162677
3.52627
-0.210658
3.18551
-0.260054
2.38349
-0.311423
1.78094
-0.490013
1.47192
-1.0825
1.83879
-1.7734
2.46434
-2.10179
2.45986
-2.25279
2.12467
-2.33599
1.7647
1.466
-2.4019
-0.00313453
0.353755
-0.00869203
0.89566
-0.0154743
1.30553
-0.0239026
1.61748
-0.0346422
1.91018
-0.048284
2.20431
-0.0663116
2.52666
-0.0903532
2.87275
-0.123003
3.22887
-0.168375
3.57164
-0.224777
3.24191
-0.277289
2.43601
-0.371141
1.87479
-0.75114
1.85192
-1.47746
2.56511
-1.95878
2.94567
-2.1606
2.66168
-2.26791
2.23198
-2.34518
1.84196
1.53034
-2.40952
-0.00320427
0.356959
-0.00899914
0.901455
-0.0160707
1.3126
-0.0248589
1.62627
-0.0361189
1.92144
-0.0504443
2.21864
-0.0693541
2.54557
-0.0945749
2.89798
-0.129254
3.26355
-0.179517
3.6219
-0.238858
3.30125
-0.307442
2.50459
-0.497888
2.06524
-1.03839
2.39242
-1.66685
3.19356
-1.94955
3.22837
-2.09828
2.81041
-2.21338
2.34709
-2.30745
1.93603
1.59297
-2.37007
-0.00321451
0.360174
-0.00928604
0.907527
-0.0168488
1.32016
-0.0262068
1.63563
-0.037964
1.9332
-0.0528835
2.23356
-0.0725827
2.56527
-0.0990331
2.92443
-0.135459
3.29997
-0.187338
3.67378
-0.252851
3.36676
-0.344056
2.5958
-0.620679
2.34186
-1.25063
3.02237
-1.74695
3.68988
-1.95658
3.43799
-2.09914
2.95297
-2.22465
2.4726
-2.33734
2.04872
1.65245
-2.39683
-0.00317493
0.363349
-0.00951628
0.913868
-0.0174345
1.32808
-0.0272062
1.6454
-0.0395343
1.94553
-0.0552083
2.24923
-0.0758586
2.58592
-0.103479
2.95205
-0.141729
3.33822
-0.198188
3.73024
-0.268964
3.43754
-0.394207
2.72104
-0.770445
2.7181
-1.39785
3.64978
-1.75896
4.051
-1.93463
3.61366
-2.03928
3.05762
-2.13066
2.56398
-2.20043
2.11849
1.64615
-2.19413
-0.00305278
0.366402
-0.0096065
0.920422
-0.0180996
1.33657
-0.0285529
1.65585
-0.0414633
1.95844
-0.0577535
2.26552
-0.0791887
2.60735
-0.108059
2.98092
-0.14808
3.37824
-0.204726
3.78688
-0.28439
3.5172
-0.453824
2.89047
-0.896148
3.16042
-1.45183
4.20546
-1.71904
4.3182
-1.87578
3.7704
-1.97178
3.15362
-1.97623
2.56843
-1.91189
2.05414
1.61838
-1.88412
-0.00275982
0.369161
-0.00963462
0.927296
-0.0184174
1.34535
-0.0291701
1.6666
-0.0425353
1.9718
-0.0593375
2.28232
-0.0812504
2.62927
-0.110361
3.01003
-0.150546
3.41843
-0.208258
3.8446
-0.295866
3.60481
-0.496291
3.0909
-0.9724
3.63653
-1.41938
4.65244
-1.59164
4.49047
-1.66159
3.84036
-1.66869
3.16072
-1.52393
2.42368
-1.02618
1.55639
0.592202
-0.00233798
0.371499
-0.00927525
0.934234
-0.0186892
1.35477
-0.0303532
1.67827
-0.0446959
1.98614
-0.0626523
2.30028
-0.0862228
2.65284
-0.117972
3.04178
-0.162144
3.4626
-0.22421
3.90666
-0.326103
3.70671
-0.577065
3.34186
-1.1064
4.16586
-1.47255
5.01859
-1.57508
4.59299
-1.57554
3.84082
-1.47599
3.06116
-1.23871
2.1864
-0.642268
0.959942
-0.0500657
-0.00189753
0.373397
-0.00882083
0.941157
-0.0184518
1.3644
-0.0305686
1.69038
-0.0458048
2.00138
-0.0651518
2.31963
-0.0906188
2.6783
-0.124796
3.07595
-0.172697
3.5105
-0.242968
3.97693
-0.365735
3.82947
-0.669417
3.64554
-1.21946
4.71591
-1.49119
5.29032
-1.55425
4.65605
-1.5355
3.82207
-1.33602
2.86169
-0.795352
1.64573
-0.114718
0.279308
-0.164784
-0.00116079
0.374558
-0.00760581
0.947602
-0.0177336
1.37453
-0.030816
1.70347
-0.0469559
2.01752
-0.0673464
2.34002
-0.0944
2.70536
-0.131286
3.11284
-0.182924
3.56214
-0.258633
4.05264
-0.402407
3.97325
-0.763621
4.00675
-1.29967
5.25196
-1.4842
5.47485
-1.51476
4.68662
-1.43231
3.73962
-1.11355
2.54293
-0.325355
0.857535
0.0289448
-0.0749925
-0.135839
-0.000366532
0.374924
-0.00610823
0.953344
-0.0162178
1.38464
-0.0295659
1.71681
-0.0463778
2.03433
-0.0680771
2.36172
-0.0968896
2.73417
-0.135783
3.15173
-0.190064
3.61642
-0.27551
4.13809
-0.447
4.14474
-0.865263
4.42502
-1.3397
5.72639
-1.46219
5.59734
-1.46991
4.69434
-1.26034
3.53005
-0.708454
1.99104
-0.0670489
0.21613
0.033035
-0.175076
-0.102804
0.00148539
0.373439
-0.00288643
0.957716
-0.013431
1.39518
-0.0278486
1.73123
-0.0452846
2.05177
-0.067768
2.3842
-0.0977936
2.7642
-0.138823
3.19276
-0.195673
3.67327
-0.288415
4.23083
-0.482067
4.33839
-0.948709
4.89166
-1.33599
6.11367
-1.40754
5.66889
-1.37
4.6568
-1.08354
3.2436
-0.345715
1.25321
-0.00586917
-0.123716
0.0109688
-0.191914
-0.0918352
0.00331334
0.370125
0.000759765
0.960269
-0.00972323
1.40566
-0.0238517
1.74536
-0.0414454
2.06936
-0.0649759
2.40773
-0.0962386
2.79546
-0.138349
3.23487
-0.197355
3.73228
-0.297943
4.33142
-0.516215
4.55666
-1.00906
5.38451
-1.2946
6.39921
-1.33456
5.70884
-1.21578
4.53803
-0.805796
2.83361
-0.0918605
0.539274
0.0450361
-0.260612
0.025894
-0.172772
-0.0659412
0.00569218
0.364433
0.00475617
0.961205
-0.00431071
1.41473
-0.0183541
1.7594
-0.0361778
2.08719
-0.0599158
2.43147
-0.0915016
2.82704
-0.134792
3.27816
-0.19537
3.79285
-0.302029
4.43808
-0.540823
4.79545
-1.01996
5.86365
-1.22107
6.60031
-1.24163
5.72941
-1.04219
4.33858
-0.484852
2.27628
0.00206489
0.0523578
0.0152253
-0.273773
0.0166938
-0.174241
-0.0492474
0.00843474
0.355999
0.0101523
0.959488
0.00333717
1.42155
-0.00921886
1.77196
-0.0269682
2.10494
-0.0508653
2.45537
-0.082552
2.85873
-0.125165
3.32078
-0.186233
3.85392
-0.297198
4.54904
-0.552654
5.05091
-0.996905
6.3079
-1.13041
6.73382
-1.11332
5.71231
-0.87412
4.09939
-0.300707
1.70286
-0.0668454
-0.181503
-0.039391
-0.301227
-0.0110599
-0.202572
-0.0603074
0.0126254
0.343373
0.0187188
0.953394
0.014205
1.42606
0.00301203
1.78315
-0.0150489
2.123
-0.0377418
2.47806
-0.067827
2.88882
-0.109675
3.36262
-0.16949
3.91374
-0.282072
4.66163
-0.537536
5.30637
-0.916042
6.6864
-0.994647
6.81242
-0.955359
5.67303
-0.702624
3.84665
-0.150792
1.15103
-0.0772439
-0.255052
-0.0462237
-0.332247
-0.0170135
-0.231782
-0.0773208
0.017806
0.325567
0.0292751
0.941925
0.0281251
1.42721
0.018573
1.7927
0.00280788
2.13876
-0.0176921
2.49856
-0.0461725
2.9173
-0.084963
3.40141
-0.141363
3.97014
-0.250509
4.77077
-0.487214
5.54308
-0.793466
6.99266
-0.853348
6.8723
-0.770815
5.59049
-0.466392
3.54223
-0.0177277
0.702368
0.0063031
-0.279083
0.00281384
-0.328758
0.00486293
-0.233831
-0.0724579
0.0246307
0.300936
0.043756
0.9228
0.0473971
1.42357
0.0402548
1.79985
0.0277889
2.15123
0.00953478
2.51681
-0.0155734
2.9424
-0.0499558
3.4358
-0.100534
4.02072
-0.198329
4.86857
-0.39631
5.74106
-0.60612
7.20246
-0.658386
6.92457
-0.574362
5.50647
-0.229035
3.1969
0.0921343
0.381199
0.0557632
-0.242712
0.0491858
-0.322181
0.0485458
-0.233191
-0.0239121
0.0327608
0.268176
0.0614954
0.894065
0.071957
1.41311
0.0700452
1.80176
0.0616078
2.15966
0.0465526
2.53187
0.025856
2.9631
-0.00263262
3.46429
-0.0446808
4.06276
-0.118268
4.94215
-0.268364
5.89116
-0.396535
7.33064
-0.458478
6.98651
-0.470258
5.51825
-0.316332
3.04297
-0.264489
0.329356
-0.242629
-0.264571
-0.12212
-0.44269
0.00238003
-0.357691
-0.0215321
0.0421391
0.226037
0.0838332
0.852371
0.103666
1.39327
0.107365
1.79806
0.10351
2.16352
0.0934874
2.54189
0.0800883
2.9765
0.0605742
3.4838
0.031064
4.09227
-0.00180646
4.97502
-0.0709796
5.96033
-0.138507
7.39816
-0.213422
7.06143
-0.339081
5.64391
-0.458629
3.16252
-0.702144
0.572871
-0.698094
-0.268621
-0.497224
-0.64356
-0.235629
-0.619287
-0.257161
0.05183
0.174207
0.110213
0.793988
0.143391
1.3601
0.155712
1.78574
0.158686
2.16055
0.154047
2.54653
0.148527
2.98202
0.141019
3.49131
0.133376
4.09992
0.12562
4.98278
0.172025
5.91393
0.21681
7.35338
0.191988
7.08625
0.0866492
5.74925
-0.219568
3.46874
-0.674688
1.02799
-0.800388
-0.142922
-0.64033
-0.803617
-0.362544
-0.897074
-0.619704
0.0559196
0.118287
0.137815
0.712092
0.189631
1.30828
0.213499
1.76187
0.22472
2.14932
0.228329
2.54292
0.23258
2.97777
0.23913
3.48476
0.257332
4.08172
0.293227
4.94688
0.461726
5.74543
0.709631
7.10547
0.913121
6.88276
1.08618
5.57619
0.82592
3.729
0.24851
1.6054
-0.173964
0.279552
-0.35953
-0.618051
-0.257917
-0.998686
-0.877621
0.0503071
0.0679799
0.164706
0.597693
0.245146
1.22784
0.285133
1.72188
0.306717
2.12774
0.319028
2.53061
0.332986
2.96381
0.354981
3.46276
0.399725
4.03697
0.498454
4.84816
0.7998
5.44408
1.37423
6.53104
1.78202
6.47498
2.1061
5.2521
2.01563
3.81947
1.46921
2.15183
0.960589
0.788169
0.415289
-0.0727516
0.132334
-0.715731
-0.745288
0.0374205
0.0305594
0.191204
0.44391
0.302905
1.11614
0.366901
1.65789
0.401363
2.09328
0.426175
2.5058
0.448684
2.9413
0.484148
3.4273
0.55411
3.96701
0.701914
4.70035
1.09879
5.0472
1.82476
5.80507
2.2352
6.06454
2.46863
5.01867
2.44081
3.84729
1.99848
2.59416
1.46198
1.32467
0.966876
0.422356
0.410861
-0.159716
-0.334427
0.0300056
0.000553787
0.211551
0.262365
0.373525
0.954165
0.464448
1.56697
0.511794
2.04593
0.548128
2.46946
0.576894
2.91254
0.622936
3.38126
0.699835
3.89011
0.851036
4.54915
1.18426
4.71397
1.90958
5.07976
2.29327
5.68084
2.48454
4.8274
2.46604
3.86578
2.15801
2.90219
1.6023
1.88038
1.00765
1.01701
0.414564
0.433365
0.0801374
0.0279911
-0.0274373
0.18969
0.100666
0.429108
0.714746
0.569772
1.4263
0.637366
1.97834
0.68242
2.42441
0.716777
2.87818
0.75583
3.3422
0.81028
3.83566
0.923725
4.43571
1.11571
4.52199
1.66133
4.53414
2.05946
5.28271
2.1254
4.76146
2.05252
3.93866
1.8118
3.14291
1.36027
2.33191
0.854968
1.52231
0.367395
0.920938
0.447533
0.0237817
-0.0512191
0.123361
0.00108617
0.387527
0.450581
0.562177
1.25165
0.640234
1.90028
0.667708
2.39693
0.678929
2.86696
0.669699
3.35143
0.659565
3.84579
0.664415
4.43086
0.708543
4.47786
0.912935
4.32975
1.14552
5.05013
1.14222
4.76476
1.06279
4.0181
0.923731
3.28196
0.701937
2.5537
0.428229
1.79602
0.170534
1.17863
0.618067
0.0166189
-0.067838
0.0676226
-0.0499174
0.236831
0.281373
0.389255
1.09923
0.470988
1.81855
0.502881
2.36504
0.521548
2.84829
0.521922
3.35106
0.520626
3.84709
0.516773
4.43471
0.520762
4.47388
0.639362
4.21115
0.811706
4.87779
0.817885
4.75858
0.742024
4.09396
0.630365
3.39362
0.475445
2.70862
0.281899
1.98957
0.102376
1.35816
0.720443
0.023551
-0.091389
0.0539169
-0.0802834
0.114942
0.220348
0.220936
0.993232
0.2951
1.74439
0.337974
2.32217
0.365823
2.82044
0.383187
3.3337
0.391511
3.83877
0.388198
4.43802
0.37558
4.48649
0.433393
4.15333
0.555204
4.75598
0.56153
4.75225
0.49808
4.15741
0.41077
3.48093
0.29925
2.82014
0.163587
2.12523
0.0442303
1.47751
0.764674
0.0192248
-0.110614
0.0244722
-0.0855307
0.0125014
0.232318
0.060244
0.94549
0.122117
1.68251
0.176968
2.26731
0.219997
2.77741
0.251492
3.3022
0.27005
3.82021
0.276473
4.4316
0.264041
4.49893
0.289406
4.12797
0.366781
4.6786
0.365661
4.75337
0.315117
4.20795
0.243296
3.55275
0.159952
2.90349
0.0682512
2.21693
-0.00454413
1.55031
0.760129
-0.000752998
-0.109861
-0.0310865
-0.0551972
-0.0770061
0.278238
-0.0786731
0.947157
-0.0304334
1.63427
0.0303187
2.20656
0.0872464
2.72049
0.133307
3.25614
0.167042
3.78647
0.185744
4.4129
0.175554
4.50911
0.185874
4.11765
0.231512
4.63296
0.219114
4.76577
0.174762
4.25231
0.120797
3.60672
0.065568
2.95872
0.0111333
2.27137
-0.0260233
1.58746
0.734106
-0.0231266
-0.0867343
-0.0815716
0.0032478