/*--------------------------------*- C++ -*----------------------------------*\
  =========                 |
  \\      /  F ield         | OpenFOAM: The Open Source CFD Toolbox
   \\    /   O peration     | Website:  https://openfoam.org
    \\  /    A nd           | Version:  9
     \\/     M anipulation  |
\*---------------------------------------------------------------------------*/
FoamFile
{
    format      ascii;
    class       volVectorField;
    location    "36";
    object      U;
}
// * * * * * * * * * * * * * * * * * * * * * * * * * * * * * * * * * * * * * //

dimensions      [0 1 -1 0 0 0 0];

internalField   nonuniform List<vector> 
2200
(
(0.878824 -0.0304153 0)
(1.00577 -0.0512861 0)
(1.00325 -0.0354153 0)
(1.00021 -0.0244728 0)
(0.999837 -0.0167239 0)
(1.00003 -0.0108094 0)
(1.00001 -0.00688129 0)
(1.00001 -0.00421028 0)
(0.999992 -0.00224284 0)
(1.00017 -0.0007306 0)
(1.00004 0.000936942 0)
(0.999939 0.0024232 0)
(0.999964 0.00439142 0)
(1.00008 0.00704307 0)
(1.00008 0.0109107 0)
(0.999797 0.0167072 0)
(1.00016 0.0244551 0)
(1.00343 0.0350899 0)
(1.0059 0.051351 0)
(0.878953 0.0303486 0)
(0.712007 -0.0327632 0)
(0.996624 -0.0630205 0)
(1.0333 -0.0561506 0)
(1.02486 -0.0463749 0)
(1.01583 -0.0360492 0)
(1.00967 -0.0263484 0)
(1.00599 -0.0181488 0)
(1.00378 -0.011483 0)
(1.00255 -0.00607825 0)
(1.002 -0.00158771 0)
(1.002 0.00257006 0)
(1.00253 0.0070674 0)
(1.00376 0.0123429 0)
(1.00584 0.0188859 0)
(1.00945 0.0269323 0)
(1.01571 0.0367184 0)
(1.02482 0.0470989 0)
(1.03309 0.057403 0)
(0.996634 0.0631451 0)
(0.711814 0.0329588 0)
(0.535488 -0.0239013 0)
(0.969865 -0.0569725 0)
(1.05645 -0.0547639 0)
(1.0523 -0.0488733 0)
(1.03623 -0.0405105 0)
(1.02436 -0.032261 0)
(1.01586 -0.0240872 0)
(1.01037 -0.0162811 0)
(1.00721 -0.00907336 0)
(1.00573 -0.00245375 0)
(1.0057 0.00390194 0)
(1.00711 0.010455 0)
(1.01016 0.0175276 0)
(1.01544 0.025148 0)
(1.02404 0.0332485 0)
(1.03599 0.0412729 0)
(1.05201 0.0493865 0)
(1.05636 0.0538071 0)
(0.969245 0.0575548 0)
(0.534468 0.0239263 0)
(0.392108 -0.0136699 0)
(0.911592 -0.0464244 0)
(1.05741 -0.0470534 0)
(1.06946 -0.0443577 0)
(1.05494 -0.0382925 0)
(1.03932 -0.0316329 0)
(1.02737 -0.0247894 0)
(1.01893 -0.017554 0)
(1.01356 -0.0100873 0)
(1.01087 -0.00256592 0)
(1.01072 0.00485726 0)
(1.01322 0.0121697 0)
(1.01842 0.0192877 0)
(1.02687 0.0262718 0)
(1.03867 0.0328121 0)
(1.05423 0.0392504 0)
(1.06865 0.0453664 0)
(1.05587 0.0480112 0)
(0.910241 0.0468381 0)
(0.390308 0.0137418 0)
(0.307519 -0.00449853 0)
(0.846672 -0.0323713 0)
(1.04942 -0.039896 0)
(1.07943 -0.0382095 0)
(1.06814 -0.0336358 0)
(1.05168 -0.0281495 0)
(1.03831 -0.0228091 0)
(1.02813 -0.0167953 0)
(1.02114 -0.00994571 0)
(1.01741 -0.0024062 0)
(1.01721 0.00536204 0)
(1.02062 0.0127336 0)
(1.02738 0.0193919 0)
(1.03732 0.0251494 0)
(1.05055 0.030112 0)
(1.06687 0.0353976 0)
(1.07779 0.0397061 0)
(1.04737 0.0413653 0)
(0.843513 0.0328371 0)
(0.304461 0.00468053 0)
(0.263994 9.16217e-05 0)
(0.788516 -0.0201262 0)
(1.03286 -0.0316079 0)
(1.08313 -0.0322706 0)
(1.07694 -0.0290292 0)
(1.06055 -0.0241989 0)
(1.04711 -0.0197388 0)
(1.03627 -0.0146202 0)
(1.02841 -0.00861452 0)
(1.02391 -0.0016112 0)
(1.02363 0.00573241 0)
(1.02762 0.0124494 0)
(1.0351 0.0180601 0)
(1.04552 0.0226658 0)
(1.05874 0.0267711 0)
(1.07508 0.031122 0)
(1.08092 0.0338695 0)
(1.02997 0.0330279 0)
(0.783766 0.0206309 0)
(0.259832 8.13557e-05 0)
(0.239984 0.00104618 0)
(0.737897 -0.0123534 0)
(1.01339 -0.0251012 0)
(1.08383 -0.0269213 0)
(1.08267 -0.0246238 0)
(1.06746 -0.0204876 0)
(1.05404 -0.0166017 0)
(1.04327 -0.0122145 0)
(1.03517 -0.00701613 0)
(1.0303 -0.000848044 0)
(1.02987 0.00571968 0)
(1.034 0.0115918 0)
(1.04142 0.0163128 0)
(1.05199 0.0202671 0)
(1.06514 0.0237041 0)
(1.07985 0.0273145 0)
(1.08033 0.0291277 0)
(1.00833 0.026734 0)
(0.730481 0.012972 0)
(0.234428 -0.000878606 0)
(0.225547 0.000966481 0)
(0.694831 -0.00803313 0)
(0.992456 -0.0207474 0)
(1.0818 -0.0232018 0)
(1.08655 -0.0213613 0)
(1.07303 -0.0178193 0)
(1.05957 -0.0140252 0)
(1.04904 -0.00986825 0)
(1.04118 -0.00512624 0)
(1.03632 0.00035887 0)
(1.03576 0.00622116 0)
(1.03957 0.0113252 0)
(1.04667 0.0154136 0)
(1.05646 0.0189153 0)
(1.06957 0.0218722 0)
(1.0826 0.0248078 0)
(1.0769 0.0259086 0)
(0.985183 0.0227797 0)
(0.68468 0.00887467 0)
(0.218516 -0.000771046 0)
(0.215978 0.00062006 0)
(0.659382 -0.00568282 0)
(0.971819 -0.0176687 0)
(1.07888 -0.0203146 0)
(1.08965 -0.0188881 0)
(1.07764 -0.0158638 0)
(1.06417 -0.0123424 0)
(1.05377 -0.00837043 0)
(1.04609 -0.00382376 0)
(1.04139 0.0012351 0)
(1.0406 0.00656393 0)
(1.04389 0.011107 0)
(1.05058 0.0149638 0)
(1.06027 0.0180675 0)
(1.07341 0.0211556 0)
(1.08449 0.0233743 0)
(1.07223 0.0240476 0)
(0.961571 0.0202351 0)
(0.645392 0.00674242 0)
(0.206879 -0.000395114 0)
(0.208711 0.000278599 0)
(0.630687 -0.0042302 0)
(0.952817 -0.0150801 0)
(1.0755 -0.0181387 0)
(1.09257 -0.0169557 0)
(1.08211 -0.0142392 0)
(1.06851 -0.0108 0)
(1.05789 -0.00688741 0)
(1.05012 -0.00235644 0)
(1.04543 0.00256258 0)
(1.04439 0.00752081 0)
(1.04726 0.0118322 0)
(1.05359 0.0153437 0)
(1.06327 0.018339 0)
(1.07609 0.0205651 0)
(1.08536 0.0223868 0)
(1.06579 0.0223762 0)
(0.938207 0.0180732 0)
(0.612239 0.00548428 0)
(0.197266 -1.66363e-05 0)
(0.202923 8.44779e-05 0)
(0.607564 -0.00303868 0)
(0.934709 -0.0124342 0)
(1.07211 -0.0155234 0)
(1.0954 -0.0146383 0)
(1.08635 -0.0121739 0)
(1.07275 -0.00897097 0)
(1.062 -0.00520225 0)
(1.054 -0.000844291 0)
(1.04892 0.00385859 0)
(1.04752 0.0083617 0)
(1.05022 0.0124219 0)
(1.05652 0.0156472 0)
(1.06596 0.0181388 0)
(1.07882 0.0202885 0)
(1.08609 0.0214748 0)
(1.05974 0.0211216 0)
(0.915961 0.0161313 0)
(0.583884 0.00463092 0)
(0.188535 0.000243663 0)
(0.198601 4.82105e-05 0)
(0.589894 -0.00203251 0)
(0.919343 -0.00965501 0)
(1.06869 -0.0128805 0)
(1.09815 -0.0120762 0)
(1.0905 -0.00978109 0)
(1.07692 -0.00668172 0)
(1.06604 -0.00311574 0)
(1.05784 0.00105541 0)
(1.0525 0.00551517 0)
(1.05089 0.0096671 0)
(1.05321 0.0131837 0)
(1.05908 0.0160401 0)
(1.06835 0.01818 0)
(1.08057 0.0197228 0)
(1.08601 0.0205409 0)
(1.05159 0.0195939 0)
(0.893632 0.0142185 0)
(0.559509 0.00397984 0)
(0.180608 0.00038106 0)
(0.195606 2.44276e-05 0)
(0.576604 -0.00122384 0)
(0.90578 -0.00746829 0)
(1.06588 -0.0103175 0)
(1.10109 -0.00932572 0)
(1.09483 -0.00697252 0)
(1.08124 -0.00405724 0)
(1.06994 -0.000728902 0)
(1.0611 0.00306304 0)
(1.05491 0.00726246 0)
(1.05254 0.0113269 0)
(1.05475 0.0145 0)
(1.06078 0.0165875 0)
(1.07005 0.0180671 0)
(1.08215 0.0191303 0)
(1.08558 0.019762 0)
(1.04426 0.0186121 0)
(0.87328 0.0128306 0)
(0.538421 0.00360082 0)
(0.173252 0.000468188 0)
(0.193747 3.21379e-05 0)
(0.566913 -0.000603918 0)
(0.894227 -0.0051818 0)
(1.06348 -0.00781288 0)
(1.10461 -0.00672899 0)
(1.09948 -0.00410349 0)
(1.08569 -0.00080508 0)
(1.07393 0.00246092 0)
(1.06452 0.00604408 0)
(1.05788 0.00989934 0)
(1.05533 0.0135188 0)
(1.05726 0.0158925 0)
(1.06287 0.0173138 0)
(1.07202 0.0182942 0)
(1.08372 0.0192898 0)
(1.08444 0.0195831 0)
(1.03433 0.0178311 0)
(0.851999 0.0117801 0)
(0.519073 0.00345338 0)
(0.166084 0.000553445 0)
(0.19344 -8.53707e-05 0)
(0.561015 0.000296653 0)
(0.886679 -0.00268363 0)
(1.06208 -0.0047362 0)
(1.10796 -0.00355611 0)
(1.10441 -0.000938494 0)
(1.09067 0.00227704 0)
(1.07863 0.00563428 0)
(1.06886 0.00916536 0)
(1.06152 0.0126703 0)
(1.05782 0.0156398 0)
(1.05895 0.0175565 0)
(1.06446 0.0186195 0)
(1.07364 0.0191587 0)
(1.08383 0.0198658 0)
(1.08274 0.0193225 0)
(1.02606 0.0172501 0)
(0.833654 0.0109281 0)
(0.502417 0.00328973 0)
(0.159237 0.000590248 0)
(0.194439 5.07669e-06 0)
(0.56035 0.00128 0)
(0.880201 -0.000315792 0)
(1.06131 -0.0017108 0)
(1.11195 -0.000369901 0)
(1.10932 0.00226955 0)
(1.09539 0.00559499 0)
(1.08308 0.00906073 0)
(1.0731 0.0127306 0)
(1.06551 0.0162966 0)
(1.06144 0.0189455 0)
(1.06135 0.0203773 0)
(1.06523 0.02086 0)
(1.07376 0.0210713 0)
(1.08318 0.0205916 0)
(1.07912 0.0195661 0)
(1.01363 0.0166788 0)
(0.812732 0.0100199 0)
(0.48593 0.00315076 0)
(0.152321 0.000600416 0)
(0.197553 0.00050531 0)
(0.562014 0.00186215 0)
(0.87871 0.00253768 0)
(1.06188 0.00191799 0)
(1.11517 0.0035987 0)
(1.11367 0.0061282 0)
(1.09971 0.00929285 0)
(1.0868 0.0128955 0)
(1.07602 0.0168339 0)
(1.06722 0.0205067 0)
(1.06155 0.0228972 0)
(1.06061 0.023924 0)
(1.06485 0.0238293 0)
(1.0731 0.022968 0)
(1.08159 0.0216932 0)
(1.07508 0.0200487 0)
(1.00343 0.0165345 0)
(0.795926 0.0096056 0)
(0.472078 0.00317935 0)
(0.145938 0.000607761 0)
(0.20248 0.00069223 0)
(0.567029 0.00295431 0)
(0.880945 0.00510439 0)
(1.06378 0.00561258 0)
(1.11949 0.00795798 0)
(1.1185 0.0108 0)
(1.10405 0.0142217 0)
(1.09034 0.0181618 0)
(1.07847 0.0220015 0)
(1.06844 0.0255712 0)
(1.06211 0.0275794 0)
(1.06031 0.0280626 0)
(1.06292 0.0270701 0)
(1.07043 0.0256623 0)
(1.07807 0.0237118 0)
(1.06779 0.0213235 0)
(0.988306 0.0167418 0)
(0.774776 0.00952591 0)
(0.456173 0.00340717 0)
(0.138765 0.00064813 0)
(0.210734 0.000859218 0)
(0.578963 0.00439811 0)
(0.888067 0.00824792 0)
(1.06841 0.0105133 0)
(1.12404 0.0131948 0)
(1.12382 0.0163316 0)
(1.10932 0.0204245 0)
(1.0951 0.0245655 0)
(1.0821 0.0287786 0)
(1.07032 0.0322636 0)
(1.06194 0.0336425 0)
(1.05878 0.0329188 0)
(1.06124 0.0310871 0)
(1.06808 0.0286287 0)
(1.07395 0.0258347 0)
(1.06107 0.0223743 0)
(0.976316 0.0173401 0)
(0.758959 0.0100371 0)
(0.442729 0.00379134 0)
(0.131864 0.000672877 0)
(0.220151 0.00108939 0)
(0.593379 0.00537212 0)
(0.899057 0.0110761 0)
(1.07568 0.0147968 0)
(1.13063 0.0184267 0)
(1.13078 0.0227302 0)
(1.11583 0.0272565 0)
(1.10088 0.0322483 0)
(1.08685 0.0367275 0)
(1.07348 0.0398708 0)
(1.06317 0.0405338 0)
(1.05809 0.0392842 0)
(1.05797 0.036434 0)
(1.0633 0.0330017 0)
(1.06783 0.029651 0)
(1.05097 0.0251274 0)
(0.958451 0.0190579 0)
(0.736141 0.0111885 0)
(0.424254 0.00440017 0)
(0.123093 0.000731808 0)
(0.233774 0.0014877 0)
(0.615214 0.00713183 0)
(0.916796 0.0148925 0)
(1.08663 0.0204644 0)
(1.1389 0.0251901 0)
(1.13873 0.0299426 0)
(1.12288 0.0357752 0)
(1.10652 0.0412568 0)
(1.09054 0.0463754 0)
(1.07487 0.0498872 0)
(1.06238 0.0503484 0)
(1.05574 0.0474676 0)
(1.05522 0.0433025 0)
(1.0595 0.0386118 0)
(1.06142 0.0338998 0)
(1.04101 0.0284115 0)
(0.943514 0.0216202 0)
(0.718299 0.0131858 0)
(0.407317 0.00522861 0)
(0.114223 0.00080861 0)
(0.250046 0.00204239 0)
(0.640514 0.00876046 0)
(0.93863 0.0186825 0)
(1.10093 0.0262942 0)
(1.14927 0.0323873 0)
(1.14835 0.0395764 0)
(1.1307 0.0461729 0)
(1.11231 0.0527822 0)
(1.0939 0.0583059 0)
(1.07555 0.061288 0)
(1.05992 0.0603801 0)
(1.05069 0.056516 0)
(1.04772 0.0514331 0)
(1.05079 0.0456561 0)
(1.05209 0.0406121 0)
(1.02751 0.0339413 0)
(0.921315 0.0256028 0)
(0.689375 0.0157024 0)
(0.381733 0.00615712 0)
(0.102225 0.000923534 0)
(0.272779 0.00285662 0)
(0.675065 0.0125244 0)
(0.967235 0.0249854 0)
(1.11979 0.034951 0)
(1.16312 0.0431234 0)
(1.15992 0.0511661 0)
(1.13996 0.0595349 0)
(1.11879 0.0670442 0)
(1.09713 0.0729362 0)
(1.07542 0.0758449 0)
(1.05726 0.0743633 0)
(1.04669 0.0692015 0)
(1.04319 0.0621435 0)
(1.0448 0.0545503 0)
(1.04222 0.0477915 0)
(1.01282 0.0394952 0)
(0.900146 0.0300053 0)
(0.664466 0.0185035 0)
(0.357733 0.00719379 0)
(0.0902059 0.000984226 0)
(0.304069 0.00374552 0)
(0.720474 0.0153747 0)
(1.00495 0.0324002 0)
(1.14435 0.0455181 0)
(1.18042 0.0552976 0)
(1.17436 0.0668355 0)
(1.15075 0.0764657 0)
(1.12628 0.0849897 0)
(1.1012 0.0909537 0)
(1.07583 0.0929046 0)
(1.0534 0.0892618 0)
(1.03842 0.0817094 0)
(1.03173 0.0735966 0)
(1.03186 0.0650757 0)
(1.02924 0.0572847 0)
(0.994175 0.047551 0)
(0.870269 0.0354627 0)
(0.624995 0.0216195 0)
(0.322071 0.00801593 0)
(0.074409 0.00100601 0)
(0.340109 0.00724133 0)
(0.777107 0.0245603 0)
(1.05055 0.0448256 0)
(1.17427 0.0614092 0)
(1.2022 0.0745453 0)
(1.19066 0.0875952 0)
(1.16264 0.0984318 0)
(1.13389 0.107241 0)
(1.10434 0.112736 0)
(1.07454 0.113635 0)
(1.04886 0.108725 0)
(1.03304 0.10034 0)
(1.02605 0.0901353 0)
(1.02415 0.0791235 0)
(1.01458 0.0684926 0)
(0.97097 0.0559339 0)
(0.837914 0.0415511 0)
(0.588675 0.0250261 0)
(0.289623 0.00922388 0)
(0.0598019 0.000929527 0)
(0.421143 0.0109444 0)
(0.861853 0.0353877 0)
(1.11147 0.0651486 0)
(1.21119 0.0863161 0)
(1.22706 0.100189 8.33632e-34)
(1.20866 0.116296 -3.68529e-34)
(1.17459 0.127156 0)
(1.1409 0.135285 0)
(1.10665 0.139244 0)
(1.07244 0.137847 0)
(1.04244 0.129768 0)
(1.02137 0.117724 0)
(1.00956 0.105097 0)
(1.00464 0.0929137 0)
(0.994995 0.0810356 0)
(0.943664 0.0664872 0)
(0.796154 0.0483202 0)
(0.534354 0.0288623 0)
(0.24055 0.00931468 0)
(0.040059 0.000731021 0)
(0.490953 0.0261329 6.61769e-20)
(0.960011 0.0590467 -4.98513e-20)
(1.17661 0.098455 0)
(1.24855 0.122597 3.7104e-20)
(1.25363 0.138793 -3.00719e-20)
(1.22557 0.155135 3.88823e-34)
(1.18545 0.16427 0)
(1.14643 0.170555 1.98951e-20)
(1.1067 0.172453 -6.48202e-20)
(1.0668 0.168564 1.3116e-20)
(1.0323 0.158277 0)
(1.01007 0.144731 -3.23091e-20)
(0.998898 0.131049 -3.84179e-20)
(0.991831 0.116037 6.70918e-20)
(0.967928 0.0992811 -5.28919e-20)
(0.898689 0.079438 0)
(0.734628 0.0571046 -1.90533e-20)
(0.464102 0.0319777 0)
(0.186644 0.0107951 -1.04879e-19)
(0.0221802 0.000956984 1.23801e-19)
(0.52467 0.0538811 -8.47211e-21)
(1.01891 0.102565 1.60254e-19)
(1.22273 0.148346 -1.22424e-20)
(1.28031 0.169902 -9.89131e-20)
(1.27656 0.187035 -6.37996e-20)
(1.2402 0.201312 1.03445e-19)
(1.19449 0.208198 0)
(1.15003 0.212364 0)
(1.10478 0.211924 1.03471e-19)
(1.05988 0.205346 0)
(1.02052 0.191705 1.17782e-19)
(0.9914 0.175261 3.46652e-20)
(0.969772 0.157294 3.57564e-22)
(0.950798 0.139138 -7.32807e-20)
(0.9272 0.122057 0)
(0.855583 0.101877 0)
(0.6856 0.0733988 -3.11862e-19)
(0.421543 0.0432318 7.80958e-19)
(0.169854 0.0145231 -4.63399e-19)
(0.016406 0.00220927 -5.46941e-19)
(0.531033 0.0765696 -1.10236e-19)
(1.05384 0.159063 3.98005e-20)
(1.25719 0.209527 1.94548e-20)
(1.30539 0.229177 1.74022e-19)
(1.29418 0.243999 1.41759e-20)
(1.25146 0.253724 -2.71576e-19)
(1.20088 0.256982 9.09857e-20)
(1.1511 0.258205 0)
(1.10033 0.254877 -2.1957e-19)
(1.04913 0.24516 1.90575e-19)
(1.00362 0.229299 -3.17605e-19)
(0.970012 0.209941 1.48187e-19)
(0.947741 0.190963 -9.45436e-20)
(0.931874 0.174115 2.13602e-19)
(0.897069 0.154016 0)
(0.818087 0.128134 -7.76676e-20)
(0.654516 0.0949055 0)
(0.410782 0.0547444 4.30402e-19)
(0.170877 0.0230965 -1.02218e-18)
(0.0213777 0.0024303 6.40256e-19)
(0.522559 0.108269 3.63221e-19)
(1.06883 0.215431 -1.54217e-19)
(1.27638 0.274234 -3.04931e-20)
(1.32155 0.29307 0)
(1.30537 0.305485 -1.26042e-19)
(1.25818 0.310272 1.54369e-19)
(1.20341 0.309168 -9.73445e-20)
(1.14888 0.306631 0)
(1.09319 0.299239 1.5619e-19)
(1.03761 0.285545 -1.3427e-19)
(0.988345 0.265458 2.75044e-19)
(0.949513 0.243151 0)
(0.920147 0.223416 -2.01106e-19)
(0.891659 0.202098 1.13735e-19)
(0.860855 0.181166 2.8456e-19)
(0.789913 0.157552 -2.50313e-19)
(0.639847 0.120764 4.00324e-19)
(0.412313 0.0749578 -8.85921e-19)
(0.186252 0.0339485 5.59582e-19)
(0.0316523 0.0057602 -7.00238e-19)
(0.510013 0.132499 -1.62496e-19)
(1.07552 0.270259 1.18079e-19)
(1.28639 0.340626 -9.97806e-20)
(1.32971 0.358383 1.81479e-19)
(1.30997 0.368291 -1.61011e-19)
(1.25995 0.36841 5.06157e-20)
(1.20219 0.3632 3.65231e-21)
(1.14381 0.356706 -1.83828e-19)
(1.08416 0.345556 -1.64474e-19)
(1.02351 0.328034 -2.88411e-19)
(0.96749 0.304406 -5.91001e-19)
(0.925013 0.279977 -1.79926e-19)
(0.895004 0.257138 2.44105e-21)
(0.872669 0.237341 -3.86338e-19)
(0.834066 0.216422 -6.33116e-21)
(0.760973 0.186881 3.63265e-19)
(0.619923 0.146389 -1.09657e-19)
(0.411343 0.0949162 -6.39105e-20)
(0.199096 0.0465367 0)
(0.040887 0.00976528 1.48365e-18)
(0.491705 0.152979 0)
(1.06758 0.319383 -2.41032e-20)
(1.28747 0.403694 -2.57621e-20)
(1.33129 0.422231 -1.25755e-20)
(1.30916 0.430681 1.6205e-19)
(1.25727 0.426648 -1.14892e-19)
(1.19721 0.417475 1.0753e-19)
(1.13588 0.406997 3.00276e-19)
(1.07264 0.391401 -9.08693e-20)
(1.00784 0.369055 1.44769e-19)
(0.949223 0.342135 3.17472e-19)
(0.904119 0.314578 3.91078e-19)
(0.868795 0.290792 -2.33743e-19)
(0.834617 0.266465 4.17116e-19)
(0.803715 0.244982 -3.29546e-19)
(0.741712 0.218894 0)
(0.613604 0.174522 -8.30406e-19)
(0.417822 0.117911 1.11793e-18)
(0.212107 0.0608006 8.34021e-20)
(0.0489157 0.0143342 -1.56144e-18)
(0.477653 0.173512 -5.15497e-21)
(1.0594 0.367993 1.33548e-19)
(1.28398 0.464599 1.91221e-19)
(1.32792 0.483723 -2.03942e-19)
(1.30385 0.490908 1.26367e-19)
(1.25073 0.483398 -1.14919e-19)
(1.18907 0.470949 2.17342e-19)
(1.12538 0.456893 -9.37865e-20)
(1.05908 0.437522 -3.70221e-19)
(0.99115 0.412484 1.81149e-22)
(0.928892 0.380937 -3.43608e-19)
(0.879614 0.349686 -4.19388e-19)
(0.843991 0.322781 2.56512e-19)
(0.819672 0.301475 -1.49655e-19)
(0.782211 0.278895 3.56519e-19)
(0.717204 0.245793 0)
(0.596932 0.200625 -5.13051e-19)
(0.416914 0.138921 7.57617e-19)
(0.219997 0.0742701 1.43717e-18)
(0.0542898 0.0186131 -1.69101e-18)
(0.463008 0.190916 1.68674e-19)
(1.04579 0.41214 -9.37835e-20)
(1.27643 0.521936 -1.59239e-19)
(1.32104 0.542528 2.14927e-19)
(1.29537 0.548964 1.15729e-20)
(1.24133 0.538355 -2.31415e-19)
(1.17854 0.522833 -1.23159e-19)
(1.11312 0.505345 -1.14668e-19)
(1.04495 0.482206 -2.06259e-19)
(0.974191 0.451663 3.31143e-19)
(0.908751 0.414981 3.50535e-19)
(0.858745 0.383048 6.66501e-19)
(0.822037 0.354772 0)
(0.785394 0.328422 5.95238e-21)
(0.754884 0.303361 -9.7398e-19)
(0.700446 0.27702 2.26635e-19)
(0.588926 0.227017 1.10437e-18)
(0.416331 0.160819 -3.25554e-19)
(0.223538 0.0867812 6.80183e-19)
(0.0572205 0.0222258 -5.68162e-20)
(0.454017 0.209714 5.9246e-21)
(1.03457 0.455516 -5.57874e-20)
(1.26684 0.576762 -1.00789e-19)
(1.31159 0.59848 2.98992e-19)
(1.28447 0.604055 -3.19915e-19)
(1.22972 0.590752 2.35623e-19)
(1.16588 0.572727 1.28428e-19)
(1.09886 0.55228 3.48198e-19)
(1.02788 0.525944 4.19882e-19)
(0.953169 0.492851 -3.76146e-19)
(0.885967 0.455987 0)
(0.834105 0.417283 -2.49176e-19)
(0.795217 0.386503 2.86077e-19)
(0.771443 0.360394 3.56346e-19)
(0.734394 0.33586 -2.06142e-19)
(0.675403 0.30016 -5.013e-19)
(0.568665 0.251079 -1.49688e-19)
(0.406505 0.178004 -1.39117e-21)
(0.218736 0.0968637 0)
(0.0568081 0.0241899 0)
(0.445721 0.225434 2.71247e-20)
(1.02193 0.495559 0)
(1.25557 0.628196 -9.2014e-20)
(1.30023 0.651726 2.46411e-20)
(1.27191 0.656657 3.51603e-19)
(1.21663 0.640872 -9.17566e-20)
(1.15212 0.620507 1.31672e-19)
(1.08405 0.597413 -2.38437e-19)
(1.01218 0.568071 3.20934e-19)
(0.938129 0.531259 -1.18839e-19)
(0.868927 0.486898 1.99945e-19)
(0.814151 0.446888 7.90601e-19)
(0.774348 0.414365 1.37619e-20)
(0.736046 0.384825 -3.72581e-19)
(0.707871 0.35716 6.84904e-19)
(0.658129 0.327915 4.388e-21)
(0.557432 0.27177 1.60146e-19)
(0.39786 0.194419 -7.64324e-19)
(0.211512 0.103532 7.81657e-19)
(0.0540986 0.0257228 -9.26758e-19)
(0.439624 0.244465 3.76427e-23)
(1.01062 0.534203 0)
(1.2434 0.6768 0)
(1.28762 0.701905 -4.11873e-20)
(1.25825 0.706067 -1.14696e-19)
(1.20256 0.688147 1.18725e-19)
(1.1375 0.665844 -2.55898e-19)
(1.06856 0.64035 0)
(0.994722 0.608295 -4.70192e-19)
(0.915342 0.568694 5.4276e-19)
(0.840788 0.522907 5.63011e-19)
(0.786399 0.479285 -2.89132e-19)
(0.748261 0.441474 -3.46572e-19)
(0.722987 0.413497 8.10949e-19)
(0.687907 0.385673 -2.43258e-19)
(0.633349 0.344691 -2.90167e-19)
(0.535417 0.290067 -1.73751e-19)
(0.383523 0.205682 -8.23218e-19)
(0.202062 0.107792 1.19046e-19)
(0.0500873 0.0262618 9.99327e-19)
(0.436122 0.262884 1.23263e-21)
(0.999867 0.570588 1.52273e-20)
(1.23056 0.722557 2.34026e-20)
(1.27417 0.749551 -1.02185e-22)
(1.24396 0.753029 -8.63804e-20)
(1.18798 0.733006 2.17364e-19)
(1.12248 0.708873 0)
(1.05251 0.681348 1.41601e-19)
(0.977114 0.647126 -1.11654e-19)
(0.897595 0.604643 9.06897e-19)
(0.825902 0.554431 -1.28075e-19)
(0.768311 0.507819 1.44529e-19)
(0.724175 0.470074 0)
(0.688323 0.43412 -4.38204e-19)
(0.660277 0.401571 5.28092e-19)
(0.614852 0.368634 0)
(0.520585 0.304114 -3.75012e-19)
(0.367646 0.21561 1.10209e-18)
(0.190531 0.109937 1.29748e-19)
(0.0451657 0.0259059 -1.22927e-18)
(0.43418 0.279708 -1.29813e-20)
(0.990071 0.605237 1.73523e-20)
(1.21759 0.765428 0)
(1.26043 0.794039 -7.41807e-20)
(1.22945 0.796887 0)
(1.17314 0.775189 -2.57448e-19)
(1.10711 0.749555 0)
(1.03637 0.720201 0)
(0.959829 0.68395 -1.41052e-19)
(0.877799 0.639329 -8.59877e-19)
(0.798888 0.588021 -1.03792e-18)
(0.737358 0.537114 1.66768e-19)
(0.698601 0.491992 5.9742e-19)
(0.672864 0.458107 4.80604e-19)
(0.640081 0.426107 -1.69452e-18)
(0.588679 0.378714 -6.79926e-19)
(0.495618 0.317106 3.97852e-19)
(0.34902 0.220196 0)
(0.178084 0.110231 1.11676e-18)
(0.0400681 0.0246027 -1.3238e-18)
(0.432887 0.295405 2.70937e-20)
(0.980644 0.637914 -3.00868e-20)
(1.20467 0.805726 0)
(1.24651 0.836182 -1.06264e-20)
(1.21481 0.838518 3.78604e-20)
(1.15823 0.815115 0)
(1.09191 0.787988 7.80302e-20)
(1.02055 0.757026 9.3862e-20)
(0.942846 0.719324 -2.71971e-19)
(0.85891 0.672886 1.1669e-19)
(0.779206 0.616706 0)
(0.719535 0.562132 6.92892e-19)
(0.673865 0.517532 4.64159e-21)
(0.636865 0.475391 2.59038e-19)
(0.611186 0.435723 3.07045e-19)
(0.568407 0.398112 0)
(0.478553 0.32399 -6.52069e-19)
(0.330753 0.224036 1.28009e-18)
(0.165086 0.108753 -1.35518e-18)
(0.0351342 0.0229061 2.85053e-18)
(0.431856 0.31049 0)
(0.971891 0.669179 0)
(1.19206 0.84335 -4.78703e-21)
(1.23277 0.875303 0)
(1.2004 0.877186 0)
(1.14362 0.852542 -2.45813e-19)
(1.077 0.824291 8.07737e-20)
(1.005 0.791913 1.74367e-20)
(0.925777 0.752601 -6.43214e-20)
(0.839278 0.70446 0)
(0.756569 0.648177 -1.56181e-19)
(0.690466 0.59163 -5.6398e-19)
(0.645479 0.538658 -6.74765e-19)
(0.620421 0.495798 -2.69818e-19)
(0.589478 0.457344 3.3285e-19)
(0.541317 0.400699 -7.84884e-19)
(0.451759 0.33141 1.40288e-18)
(0.309988 0.222652 3.99065e-21)
(0.152166 0.105768 -1.30106e-18)
(0.0307361 0.0209805 -1.92317e-19)
(0.430903 0.325223 0)
(0.963603 0.698912 -3.09723e-20)
(1.1798 0.878832 1.55336e-20)
(1.21924 0.91242 0)
(1.18626 0.913902 0)
(1.12929 0.887921 5.08612e-19)
(1.06243 0.858458 0)
(0.989793 0.824876 0)
(0.909474 0.784492 -5.99787e-19)
(0.821386 0.735492 1.55575e-19)
(0.735424 0.675793 -1.39859e-18)
(0.667937 0.614101 0)
(0.620998 0.562333 -7.29214e-19)
(0.581536 0.511462 1.10071e-20)
(0.556702 0.460306 -1.0679e-18)
(0.51833 0.414265 4.22419e-19)
(0.434281 0.329373 2.44834e-21)
(0.293747 0.220677 -1.47919e-18)
(0.141254 0.10182 7.01333e-19)
(0.0268121 0.0191323 2.0587e-19)
(0.430027 0.339574 0)
(0.955946 0.72729 -6.92816e-20)
(1.16797 0.911951 1.58897e-20)
(1.20611 0.946723 -5.68664e-20)
(1.17256 0.947821 -5.56209e-20)
(1.11546 0.920955 5.86605e-20)
(1.04841 0.89074 -6.15119e-20)
(0.97521 0.856045 6.25555e-19)
(0.893752 0.814696 6.41602e-19)
(0.803962 0.764588 1.20629e-18)
(0.716538 0.704633 1.16232e-18)
(0.644281 0.644581 2.01699e-19)
(0.590507 0.583457 1.04833e-18)
(0.562044 0.528855 6.42381e-19)
(0.532241 0.47888 7.66317e-19)
(0.489165 0.406914 -4.62328e-19)
(0.406453 0.327629 -5.41178e-19)
(0.274957 0.209392 6.33571e-19)
(0.131983 0.0971745 -3.75484e-19)
(0.0270193 0.0224302 6.66165e-19)
(0.429198 0.353459 1.12569e-19)
(0.948659 0.754121 1.05281e-19)
(1.1565 0.943234 1.28687e-20)
(1.19333 0.979323 1.63043e-20)
(1.15929 0.980054 1.46373e-19)
(1.10208 0.952156 -1.43498e-19)
(1.03491 0.921017 6.20274e-20)
(0.961336 0.885546 -2.09221e-20)
(0.879053 0.84342 -7.49609e-19)
(0.787158 0.792791 -1.3057e-18)
(0.694152 0.731611 8.17567e-20)
(0.617366 0.666087 0)
(0.56535 0.606119 0)
(0.51945 0.545324 -3.35332e-19)
(0.492826 0.475555 -1.24939e-18)
(0.459831 0.412634 9.95683e-19)
(0.391507 0.305372 5.92266e-19)
(0.277889 0.191068 0)
(0.142287 0.0741576 1.19765e-18)
(0.0207955 -0.0015106 -7.12936e-19)
(0.428429 0.366707 -5.89545e-20)
(0.94182 0.779539 5.38709e-20)
(1.14546 0.972377 -4.0987e-20)
(1.18104 1.00931 -1.18477e-21)
(1.14654 1.00965 3.62598e-20)
(1.08931 0.981129 -4.24977e-20)
(1.02213 0.949567 0)
(0.948169 0.913316 -7.89797e-19)
(0.864863 0.870752 9.2272e-20)
(0.771552 0.819775 0)
(0.67932 0.759087 0)
(0.600571 0.69605 1.26325e-19)
(0.533595 0.629504 1.66958e-19)
(0.496634 0.561361 -3.6116e-19)
(0.462244 0.494889 8.96631e-19)
(0.420841 0.393492 -1.08289e-18)
(0.35352 0.287518 -1.26648e-18)
(0.271322 0.166814 1.11972e-18)
(0.18665 0.105894 -4.27768e-19)
(0.114476 0.0834924 2.49647e-19)
(0.427541 0.379163 8.46944e-20)
(0.935158 0.803384 0)
(1.13476 0.999852 0)
(1.16915 1.03784 6.91542e-21)
(1.13428 1.03782 -5.59849e-21)
(1.07705 1.00847 -2.09898e-20)
(1.00987 0.976232 2.60507e-19)
(0.935735 0.939545 8.28601e-19)
(0.85184 0.896465 1.37052e-18)
(0.75691 0.845193 -9.69288e-20)
(0.65799 0.784493 1.97137e-19)
(0.569832 0.717979 -1.13708e-18)
(0.509076 0.653042 -1.11602e-18)
(0.449783 0.582912 -1.93239e-19)
(0.409207 0.488742 0)
(0.374798 0.400632 -1.00303e-20)
(0.321397 0.226091 6.92454e-19)
(0.280116 0.0663983 -1.1755e-18)
(0.24013 -0.0671282 8.96326e-19)
(0.080809 -0.0954338 7.49145e-19)
(0.426608 0.391121 -1.90951e-19)
(0.928789 0.825959 -9.03436e-20)
(1.12444 1.02553 6.80475e-21)
(1.15768 1.06417 2.08005e-20)
(1.12242 1.06382 0)
(1.06521 1.03408 -2.42024e-19)
(0.998125 1.00175 -3.61081e-19)
(0.923735 0.9647 1.03081e-20)
(0.839026 0.921705 -7.21734e-19)
(0.7426 0.871008 -9.52333e-20)
(0.644095 0.811355 8.84542e-20)
(0.559141 0.748762 9.97841e-19)
(0.4768 0.681004 1.08961e-18)
(0.423677 0.601328 1.87599e-19)
(0.373134 0.520344 9.51745e-19)
(0.303902 0.377535 0)
(0.19048 0.213785 0)
(0.0194939 0.23359 8.08743e-19)
(-0.0750288 0.628902 -3.19819e-20)
(0.00421778 1.52536 -9.78547e-19)
(0.425498 0.402426 1.07455e-19)
(0.922566 0.847244 2.32082e-19)
(1.11437 1.04995 -2.75754e-19)
(1.14649 1.08966 9.20111e-20)
(1.11088 1.08916 2.14605e-20)
(1.05367 1.05895 -2.25092e-19)
(0.986562 1.02634 0)
(0.912046 0.989378 -7.028e-19)
(0.826778 0.946453 0)
(0.728928 0.895824 1.37564e-18)
(0.624793 0.836578 -1.04374e-19)
(0.525509 0.773751 1.1703e-19)
(0.45273 0.709798 1.24167e-18)
(0.37054 0.640253 -4.032e-19)
(0.281729 0.525972 -4.84369e-19)
(0.206396 0.436783 0)
(0.0977713 0.538759 0)
(0.0298811 1.29806 0)
(0.0744934 2.44922 -4.60767e-19)
(0.103366 2.90395 -2.81692e-19)
(0.424228 0.413169 0)
(0.916627 0.867347 0)
(1.10472 1.07284 1.03951e-19)
(1.13577 1.11319 -6.89174e-20)
(1.09978 1.11258 -2.24134e-20)
(1.04257 1.08233 2.17555e-19)
(0.97556 1.05002 4.50676e-20)
(0.900821 1.01324 -3.50892e-20)
(0.814997 0.971138 9.99815e-20)
(0.715614 0.922192 -1.57934e-18)
(0.610542 0.86587 1.92335e-19)
(0.518188 0.8083 9.94163e-19)
(0.420105 0.747128 -1.23927e-18)
(0.343831 0.663019 -1.33991e-18)
(0.270678 0.589846 4.50557e-19)
(0.20013 0.715058 0)
(0.131356 1.52832 6.29433e-19)
(0.130682 2.68361 7.03301e-19)
(0.138334 3.08457 -7.86852e-19)
(0.12937 3.22059 8.53779e-19)
(0.422783 0.423443 0)
(0.910794 0.88613 2.29014e-19)
(1.09531 1.09448 -2.48523e-20)
(1.12537 1.13598 1.31724e-19)
(1.08907 1.13545 2.35265e-20)
(1.03188 1.10502 0)
(0.964825 1.07274 0)
(0.889999 1.0364 0)
(0.803585 0.994884 5.95797e-19)
(0.703143 0.94659 7.59094e-20)
(0.594995 0.891072 0)
(0.486136 0.834743 -9.9135e-19)
(0.404041 0.779058 0)
(0.294631 0.716706 9.60477e-19)
(0.211499 0.788896 -6.45068e-19)
(0.162956 1.45494 -5.18388e-19)
(0.165696 2.67237 -1.22441e-18)
(0.186317 3.12639 -6.5137e-19)
(0.17689 3.26906 -9.1055e-19)
(0.162266 3.30963 7.13424e-19)
(0.421299 0.4329 -8.32446e-20)
(0.90527 0.903863 1.54203e-20)
(1.08637 1.11481 -2.93088e-20)
(1.1155 1.15695 -9.39969e-20)
(1.07882 1.1565 0)
(1.02164 1.1263 0)
(0.95469 1.09465 0)
(0.879694 1.05888 4.86154e-20)
(0.793057 1.01866 -7.50214e-19)
(0.691732 0.973105 0)
(0.581772 0.922588 0)
(0.484277 0.873096 0)
(0.370696 0.821176 0)
(0.307359 0.806221 7.04968e-19)
(0.276775 1.17874 1.725e-18)
(0.260433 2.36342 5.11597e-19)
(0.271466 3.08256 1.04928e-18)
(0.265326 3.28669 -8.17042e-19)
(0.215672 3.35335 3.04866e-19)
(0.182365 3.36592 0)
(0.41967 0.44199 8.73247e-20)
(0.899599 0.920755 -5.25951e-19)
(1.07739 1.13451 -1.32801e-19)
(1.1057 1.1779 -2.55857e-20)
(1.06875 1.17774 -8.36882e-21)
(1.01162 1.14758 1.68047e-19)
(0.944647 1.11614 -2.22153e-20)
(0.869658 1.08105 -6.12456e-19)
(0.782526 1.04181 0)
(0.68042 0.997344 -9.15969e-20)
(0.569375 0.947302 8.33243e-20)
(0.454351 0.898646 0)
(0.371214 0.861638 0)
(0.32196 0.987191 -8.8149e-19)
(0.283686 1.84911 1.17122e-19)
(0.278916 2.93807 -3.94483e-19)
(0.298984 3.29145 8.34321e-19)
(0.272252 3.39125 6.27915e-19)
(0.205372 3.41614 -8.94643e-19)
(0.180046 3.42517 4.46287e-19)
(0.417713 0.45123 1.7664e-19)
(0.893697 0.938228 5.2343e-19)
(1.06813 1.15472 1.55201e-19)
(1.09563 1.19866 0)
(1.05838 1.19859 0)
(1.00135 1.1687 -1.27022e-19)
(0.934598 1.13799 2.14642e-19)
(0.859658 1.10363 5.49669e-19)
(0.772845 1.0659 3.2757e-20)
(0.670674 1.02477 1.2191e-18)
(0.557998 0.981504 -1.36577e-18)
(0.453788 0.93926 0)
(0.374376 0.944879 0)
(0.341684 1.34803 -6.10714e-19)
(0.343923 2.47081 -7.29174e-19)
(0.386655 3.19915 0)
(0.411738 3.37561 -8.94964e-19)
(0.341826 3.43929 1.73176e-20)
(0.270198 3.48355 5.12434e-19)
(0.246816 3.50911 -1.93706e-19)
(0.415295 0.46087 -3.39574e-19)
(0.886861 0.956227 -2.53877e-19)
(1.05781 1.1758 0)
(1.08462 1.22104 0)
(1.04725 1.22123 0)
(0.99045 1.19122 0)
(0.923875 1.16053 -2.38796e-19)
(0.849245 1.1267 5.27957e-19)
(0.762212 1.08997 0)
(0.659769 1.04996 -1.11208e-18)
(0.549023 1.00667 2.46021e-18)
(0.438625 0.972284 9.87106e-20)
(0.384174 1.0565 1.27191e-19)
(0.39133 1.73907 1.00433e-18)
(0.411468 2.89238 -5.51721e-19)
(0.448404 3.32487 0)
(0.430577 3.45139 2.58871e-19)
(0.343839 3.53924 9.44214e-20)
(0.264872 3.60486 1.18686e-19)
(0.189498 3.58448 4.72836e-20)
(0.412388 0.470838 1.63247e-19)
(0.879507 0.975623 -2.69706e-19)
(1.04687 1.1982 0)
(1.07296 1.24363 -3.30482e-20)
(1.03539 1.24367 9.39691e-20)
(0.978858 1.21372 0)
(0.912799 1.18364 0)
(0.83862 1.15044 -9.35071e-19)
(0.752573 1.11505 -7.61617e-20)
(0.651283 1.07842 1.11807e-18)
(0.536095 1.04249 -1.17438e-18)
(0.449821 1.02802 6.69973e-19)
(0.413706 1.2434 0)
(0.43539 2.17529 -5.3651e-19)
(0.476406 3.14458 3.45586e-19)
(0.53756 3.43048 2.36345e-19)
(0.531015 3.52885 0)
(0.466095 3.61431 -1.16771e-20)
(0.393591 3.65716 -3.63584e-19)
(0.311638 3.62808 -8.02183e-20)
(0.408741 0.481117 -3.3493e-19)
(0.870788 0.995349 3.88766e-19)
(1.03452 1.22129 2.50362e-19)
(1.06011 1.26799 -5.9422e-20)