/*--------------------------------*- C++ -*----------------------------------*\
  =========                 |
  \\      /  F ield         | OpenFOAM: The Open Source CFD Toolbox
   \\    /   O peration     | Website:  https://openfoam.org
    \\  /    A nd           | Version:  9
     \\/     M anipulation  |
\*---------------------------------------------------------------------------*/
FoamFile
{
    format      ascii;
    class       volScalarField;
    location    "44";
    object      p;
}
// * * * * * * * * * * * * * * * * * * * * * * * * * * * * * * * * * * * * * //

dimensions      [0 2 -2 0 0 0 0];

internalField   nonuniform List<scalar> 
2200
(
0.780299
0.758798
0.742888
0.727215
0.712597
0.700068
0.689697
0.68158
0.675861
0.672871
0.673308
0.677087
0.683387
0.691922
0.702585
0.715334
0.730108
0.745995
0.762018
0.783521
0.712731
0.709471
0.706544
0.702423
0.696958
0.690479
0.683852
0.67788
0.67335
0.670913
0.67136
0.674623
0.679762
0.686186
0.693141
0.699871
0.705514
0.70963
0.712507
0.715853
0.672821
0.673039
0.675096
0.676437
0.676819
0.675955
0.673964
0.671267
0.668694
0.667166
0.667669
0.670069
0.673317
0.676515
0.67884
0.679848
0.679569
0.678521
0.676816
0.676573
0.650373
0.651824
0.654412
0.656851
0.659281
0.661284
0.66242
0.662625
0.662223
0.661895
0.662471
0.663789
0.664948
0.665306
0.664597
0.662914
0.660747
0.658535
0.655937
0.654526
0.636045
0.638017
0.640828
0.643659
0.646511
0.649329
0.651767
0.653602
0.654792
0.655552
0.656217
0.656621
0.656321
0.655167
0.653266
0.650862
0.648289
0.645563
0.642779
0.64085
0.628723
0.630321
0.632521
0.635047
0.637704
0.640356
0.642923
0.645318
0.64729
0.648738
0.649525
0.649477
0.648592
0.647022
0.645081
0.642895
0.640543
0.638186
0.63608
0.634504
0.625367
0.626388
0.627654
0.62951
0.631636
0.633776
0.635932
0.638174
0.640331
0.642098
0.64304
0.642965
0.642124
0.640864
0.639436
0.637851
0.636128
0.634535
0.63341
0.632392
0.622797
0.623468
0.624093
0.625381
0.626979
0.628641
0.630357
0.632223
0.634211
0.636076
0.637211
0.637416
0.637008
0.63633
0.635488
0.634495
0.633401
0.632451
0.631991
0.631315
0.619647
0.620097
0.62049
0.62147
0.62271
0.624064
0.625524
0.627137
0.628912
0.63077
0.632158
0.632825
0.632974
0.632818
0.632451
0.631905
0.631267
0.630692
0.630484
0.630023
0.615658
0.615951
0.616311
0.617184
0.618298
0.619558
0.620957
0.622498
0.624198
0.626076
0.627773
0.62893
0.629579
0.629845
0.629816
0.629585
0.629216
0.628835
0.628681
0.628362
0.611104
0.611304
0.611671
0.612495
0.613582
0.61488
0.616377
0.618058
0.619922
0.622005
0.624094
0.625733
0.626762
0.627302
0.627474
0.627416
0.627213
0.626957
0.626817
0.62659
0.606108
0.606254
0.60663
0.607439
0.608573
0.60999
0.611684
0.613648
0.615876
0.618401
0.620962
0.623003
0.624324
0.625064
0.625427
0.625506
0.625432
0.625299
0.625192
0.625014
0.600663
0.600768
0.601144
0.601971
0.603211
0.604818
0.606765
0.609058
0.611745
0.614832
0.617968
0.620449
0.622097
0.623102
0.623668
0.623949
0.624049
0.624045
0.623974
0.623823
0.594868
0.594927
0.595309
0.596162
0.597496
0.599257
0.601453
0.604122
0.60732
0.611067
0.614919
0.618008
0.620126
0.621512
0.622384
0.622902
0.623189
0.623301
0.623272
0.623142
0.588679
0.588713
0.589123
0.59001
0.59145
0.593382
0.595834
0.598907
0.602749
0.607332
0.612046
0.61584
0.618514
0.620377
0.621656
0.622493
0.623021
0.623274
0.623295
0.623175
0.581937
0.581893
0.582312
0.58329
0.584952
0.587124
0.58989
0.59343
0.597929
0.603432
0.609204
0.61395
0.617373
0.619876
0.621681
0.6229
0.623675
0.624061
0.624134
0.62401
0.574338
0.574318
0.574742
0.575844
0.577726
0.580226
0.583436
0.587534
0.592757
0.599288
0.606318
0.612356
0.616872
0.620133
0.622485
0.624106
0.625131
0.625671
0.625801
0.625675
0.56582
0.565834
0.566243
0.567418
0.569634
0.572568
0.576386
0.581287
0.587554
0.59542
0.604068
0.611542
0.617135
0.62125
0.62423
0.62627
0.627602
0.628297
0.628474
0.628345
0.555986
0.55595
0.556497
0.557949
0.560491
0.563987
0.568683
0.574791
0.582586
0.592271
0.602733
0.611701
0.618449
0.623348
0.626928
0.629509
0.631186
0.632045
0.632279
0.632144
0.54427
0.544183
0.54484
0.546694
0.549855
0.554184
0.559988
0.56758
0.577314
0.589289
0.601933
0.612584
0.62054
0.626549
0.630974
0.634084
0.636114
0.637143
0.637432
0.637283
0.530482
0.530349
0.531084
0.53327
0.537115
0.542464
0.549645
0.558994
0.570922
0.585521
0.600869
0.613756
0.623499
0.630768
0.636108
0.639965
0.642466
0.643705
0.644056
0.643878
0.513624
0.513524
0.514486
0.517112
0.521796
0.528447
0.537412
0.549028
0.563695
0.581436
0.599989
0.615527
0.627247
0.636055
0.642599
0.647311
0.650355
0.651827
0.652232
0.652012
0.492581
0.492416
0.493691
0.497127
0.5032
0.511861
0.523448
0.538278
0.556548
0.578081
0.600144
0.618491
0.632315
0.6427
0.650468
0.656175
0.659817
0.661507
0.661948
0.661667
0.465088
0.465094
0.467151
0.472013
0.480398
0.492219
0.507653
0.526788
0.549584
0.575652
0.601663
0.62297
0.638896
0.650906
0.659996
0.66657
0.670714
0.672581
0.673027
0.672692
0.428272
0.428519
0.43205
0.439821
0.452182
0.468929
0.48962
0.514144
0.542288
0.573535
0.60394
0.628474
0.646763
0.660561
0.670939
0.678443
0.683046
0.685022
0.685428
0.685022
0.378881
0.379303
0.386294
0.399266
0.417985
0.441777
0.469395
0.5005
0.534835
0.571849
0.607011
0.634954
0.655669
0.671342
0.683202
0.691666
0.696605
0.698512
0.698734
0.698342
0.313186
0.316018
0.331184
0.352452
0.380016
0.41254
0.44816
0.486673
0.527917
0.571302
0.61183
0.643827
0.667741
0.685924
0.699662
0.709577
0.715126
0.717009
0.717048
0.716863
0.238202
0.247802
0.273079
0.304124
0.341744
0.383291
0.42709
0.473383
0.52201
0.5724
0.619072
0.655931
0.683398
0.70446
0.720662
0.732148
0.738302
0.73994
0.739884
0.739917
0.171106
0.186006
0.217668
0.257557
0.304704
0.355144
0.406975
0.461047
0.517019
0.574211
0.626503
0.667821
0.698793
0.722475
0.740466
0.753252
0.76007
0.762177
0.762552
0.762584
0.120069
0.133414
0.170392
0.216376
0.270819
0.32869
0.387902
0.449182
0.511979
0.575566
0.633651
0.679107
0.713087
0.739051
0.758752
0.773019
0.780206
0.782732
0.78304
0.783111
0.0779028
0.0905165
0.131177
0.181048
0.240882
0.304626
0.370219
0.437991
0.507208
0.577187
0.640472
0.689596
0.726186
0.754003
0.774952
0.789918
0.797747
0.80062
0.800998
0.801104
0.0414929
0.0543209
0.0977246
0.15051
0.214635
0.283103
0.354107
0.427542
0.50237
0.577749
0.645572
0.698515
0.737409
0.766663
0.788742
0.804127
0.812348
0.815595
0.816077
0.816187
0.00970946
0.0227155
0.0681267
0.123472
0.191231
0.263676
0.339253
0.417486
0.497264
0.577774
0.650738
0.706469
0.747021
0.77759
0.799996
0.815774
0.824517
0.827952
0.828598
0.82868
-0.0188836
-0.00579881
0.0412792
0.0990462
0.169971
0.245778
0.325245
0.407691
0.492172
0.577635
0.654306
0.712672
0.75521
0.786447
0.809433
0.825534
0.834522
0.838233
0.838974
0.83904
-0.0449932
-0.0319248
0.0163842
0.0765077
0.150171
0.228925
0.311855
0.398099
0.486666
0.576199
0.656577
0.718288
0.761931
0.794176
0.817629
0.833798
0.843253
0.847012
0.847882
0.847871
-0.0694918
-0.0561392
-0.00691604
0.0553604
0.131413
0.212791
0.29876
0.388279
0.480415
0.574131
0.658911
0.722826
0.768139
0.801189
0.825071
0.84141
0.85064
0.854601
0.855361
0.855186
-0.0925802
-0.0789637
-0.0289825
0.0352068
0.113351
0.19707
0.285678
0.378104
0.473697
0.571338
0.659634
0.726499
0.774009
0.807745
0.831907
0.848143
0.857336
0.861135
0.861981
0.861838
-0.114354
-0.100709
-0.0500214
0.015793
0.0957422
0.181569
0.272578
0.367704
0.466465
0.567595
0.659925
0.730467
0.779585
0.814144
0.838408
0.854532
0.863513
0.867272
0.868019
0.86794
-0.135174
-0.121451
-0.0701793
-0.00301114
0.0784774
0.166212
0.259418
0.356984
0.458544
0.563169
0.65956
0.733245
0.784723
0.820665
0.844999
0.860839
0.86964
0.873121
0.873839
0.873733
-0.155506
-0.141309
-0.089598
-0.0212864
0.0615192
0.15094
0.2461
0.345848
0.44999
0.55797
0.658303
0.735546
0.789969
0.827249
0.852048
0.867519
0.875647
0.878842
0.879345
0.879247
-0.175479
-0.160508
-0.108409
-0.0390931
0.0448308
0.135715
0.232598
0.33434
0.440931
0.55202
0.656151
0.737246
0.79485
0.834414
0.859863
0.874672
0.881953
0.884256
0.88459
0.884454
-0.195003
-0.179248
-0.12673
-0.0564723
0.0284213
0.120561
0.218962
0.322556
0.431453
0.545309
0.652828
0.738188
0.799598
0.842
0.868798
0.88297
0.888593
0.88943
0.889345
0.889228
-0.213942
-0.197586
-0.144587
-0.0734341
0.0123108
0.105541
0.205285
0.310542
0.421434
0.537657
0.64836
0.738021
0.803635
0.849961
0.87923
0.893184
0.896635
0.894259
0.893557
0.894392
-0.232251
-0.215465
-0.161956
-0.0899573
-0.00344485
0.0907267
0.191615
0.298272
0.410847
0.529184
0.642896
0.736479
0.806862
0.857961
0.891242
0.906432
0.907817
0.901272
0.895966
0.894334
-0.249908
-0.232779
-0.178758
-0.105993
-0.018802
0.0761616
0.177982
0.285784
0.39981
0.520042
0.636242
0.733319
0.80867
0.865638
0.904589
0.923571
0.926977
0.914559
0.912795
0.917098
-0.266913
-0.249447
-0.194931
-0.121487
-0.033706
0.0619004
0.16445
0.273179
0.388461
0.510303
0.628359
0.728563
0.808696
0.87185
0.918269
0.94436
0.952742
0.924604
0.882917
0.845669
-0.283209
-0.265472
-0.210495
-0.1365
-0.0482602
0.0478179
0.150892
0.260324
0.376581
0.499628
0.619161
0.721767
0.8058
0.875479
0.930908
0.967883
0.990822
0.977138
0.993959
1.05036
-0.298754
-0.280903
-0.225551
-0.151174
-0.0626385
0.0337092
0.137072
0.246901
0.363688
0.487466
0.608155
0.712119
0.799023
0.873659
0.934154
0.975243
0.991728
0.974389
0.935219
0.948516
-0.313523
-0.29572
-0.240056
-0.165454
-0.0767611
0.0196831
0.123125
0.233051
0.349945
0.474019
0.595292
0.699554
0.78664
0.862067
0.922553
0.962231
0.954522
0.903738
0.841106
0.829256
-0.327508
-0.309919
-0.254019
-0.179349
-0.0906242
0.00574696
0.109066
0.218806
0.335435
0.45929
0.580248
0.683586
0.768324
0.838799
0.893091
0.905384
0.872734
0.798151
0.724679
0.704426
-0.340746
-0.323494
-0.267449
-0.192874
-0.104254
-0.00812218
0.0948842
0.204189
0.320212
0.443254
0.563041
0.664334
0.743202
0.801836
0.831414
0.820789
0.7664
0.666112
0.579564
0.558581
-0.353694
-0.336852
-0.280748
-0.206407
-0.118008
-0.0222428
0.0803036
0.188979
0.304094
0.425767
0.543517
0.640963
0.7125
0.755427
0.751037
0.717709
0.609748
0.488626
0.382087
0.356006
-0.36725
-0.350787
-0.294608
-0.220568
-0.13247
-0.0371097
0.0649056
0.172825
0.286777
0.40654
0.521337
0.613547
0.67796
0.696854
0.663454
0.577851
0.423216
0.271647
0.143421
0.116691
-0.381938
-0.365707
-0.309366
-0.235608
-0.14782
-0.0528524
0.0485987
0.155663
0.268237
0.385651
0.496552
0.582778
0.636159
0.627947
0.575118
0.427152
0.227971
0.0159003
-0.163721
-0.2113
-0.397866
-0.381706
-0.325063
-0.251536
-0.164042
-0.0694488
0.0314061
0.137517
0.248522
0.363135
0.469073
0.549831
0.588672
0.549044
0.461876
0.274319
0.0428113
-0.246285
-0.568181
-0.714756
-0.415113
-0.398873
-0.34184
-0.268457
-0.181185
-0.0869554
0.0132604
0.118318
0.227598
0.339147
0.439306
0.51383
0.535741
0.465116
0.329143
0.122939
-0.112243
-0.457483
-1.04668
-1.61991
-0.433756
-0.417308
-0.359741
-0.286408
-0.199273
-0.105374
-0.0058054
0.0981577
0.205653
0.313976
0.408257
0.475206
0.478792
0.391019
0.200403
-0.0347759
-0.239199
-0.476273
-1.03693
-2.56424
-0.453814
-0.43707
-0.378897
-0.30554
-0.218461
-0.124893
-0.0260221
0.0767551
0.182324
0.287323
0.375835
0.433506
0.417528
0.332731
0.106281
-0.133714
-0.283289
-0.322406
-0.315193
-0.705901
-0.47522
-0.458354
-0.399443
-0.326118
-0.239152
-0.146017
-0.0480063
0.0533652
0.1567
0.257805
0.340769
0.388331
0.356893
0.284352
0.0562836
-0.14868
-0.261031
-0.269823
-0.217236
-0.258121
-0.497792
-0.481002
-0.421413
-0.348238
-0.261419
-0.168849
-0.0718941
0.0278237
0.128543
0.225256
0.303522
0.341199
0.303034
0.232037
0.0237871
-0.139747
-0.222595
-0.230094
-0.277818
-0.282857
-0.521536
-0.504817
-0.44466
-0.371851
-0.28525
-0.193422
-0.0977316
8.55809e-05
0.0978758
0.190027
0.26367
0.29216
0.256056
0.172309
-0.0038778
-0.130043
-0.201433
-0.175717
-0.197153
-0.198777
-0.546238
-0.529347
-0.469145
-0.396912
-0.310488
-0.21963
-0.125415
-0.0297238
0.064843
0.152437
0.221428
0.239691
0.214739
0.104756
-0.038443
-0.124736
-0.167197
-0.211013
-0.186878
-0.195022
-0.571594
-0.554308
-0.494661
-0.423164
-0.33691
-0.247329
-0.154772
-0.0613853
0.0295871
0.112913
0.17784
0.186132
0.17254
0.0437363
-0.0754362
-0.141103
-0.123489
-0.182757
-0.162019
-0.166796
-0.596777
-0.579257
-0.521102
-0.450295
-0.364174
-0.276237
-0.185468
-0.0945353
-0.00763128
0.0717409
0.133852
0.134521
0.12147
-0.00890098
-0.103631
-0.157055
-0.14153
-0.161081
-0.165316
-0.164277
-0.621312
-0.603951
-0.547588
-0.477493
-0.391943
-0.305993
-0.217115
-0.128762
-0.0462603
0.0293436
0.0899617
0.086313
0.0652875
-0.0532051
-0.119442
-0.151899
-0.18403
-0.161438
-0.167911
-0.163497
-0.644283
-0.627625
-0.573145
-0.504009
-0.419828
-0.336001
-0.249105
-0.163449
-0.0853782
-0.0139076
0.0458749
0.041019
0.00994145
-0.09116
-0.137002
-0.128016
-0.193675
-0.151213
-0.163613
-0.156718
-0.664944
-0.649397
-0.596741
-0.52883
-0.447343
-0.365462
-0.280759
-0.197955
-0.123971
-0.0574752
0.00173865
-0.00198463
-0.0400135
-0.1119
-0.153271
-0.118316
-0.169276
-0.14148
-0.146571
-0.144473
-0.681829
-0.667869
-0.617669
-0.551511
-0.4734
-0.393353
-0.311166
-0.231362
-0.160922
-0.100477
-0.0427245
-0.045565
-0.0815652
-0.117457
-0.148211
-0.136517
-0.142848
-0.142856
-0.140874
-0.139753
-0.694028
-0.682111
-0.634885
-0.571081
-0.496438
-0.418695
-0.339329
-0.262704
-0.195303
-0.141526
-0.0857033
-0.0891091
-0.127864
-0.122789
-0.116804
-0.124861
-0.122341
-0.14582
-0.143263
-0.146939
-0.700199
-0.690617
-0.64734
-0.586391
-0.515034
-0.440289
-0.364088
-0.290639
-0.22594
-0.178251
-0.123845
-0.129962
-0.185802
-0.159527
-0.0703922
-0.082684
-0.090592
-0.126093
-0.141639
-0.152965
-0.700117
-0.692634
-0.653438
-0.59591
-0.528139
-0.456829
-0.383997
-0.313692
-0.25174
-0.207945
-0.157031
-0.164927
-0.248809
-0.286667
-0.252247
-0.306947
-0.315367
-0.307621
-0.301794
-0.295636
-0.6928
-0.685536
-0.651384
-0.598333
-0.534618
-0.467136
-0.397776
-0.330126
-0.269977
-0.227888
-0.18302
-0.193424
-0.324066
-0.54088
-0.813611
-0.952705
-0.984057
-0.938727
-0.863382
-0.802488
-0.673839
-0.665886
-0.638869
-0.592344
-0.533753
-0.470311
-0.40433
-0.338425
-0.277913
-0.23406
-0.193549
-0.191386
-0.34734
-0.635573
-0.996081
-1.14622
-1.15447
-1.06956
-0.997975
-0.939839
-0.635466
-0.628096
-0.614598
-0.577981
-0.525246
-0.466044
-0.403135
-0.337444
-0.272982
-0.222016
-0.178142
-0.137023
-0.168402
-0.23694
-0.35173
-0.353544
-0.27928
-0.207137
-0.114816
-0.057901
-0.590777
-0.587246
-0.584432
-0.55625
-0.511064
-0.455842
-0.394469
-0.327377
-0.255749
-0.187562
-0.125442
-0.0103696
0.144467
0.402881
0.628052
0.834239
1.00328
1.10622
1.15673
1.18636
-0.563275
-0.563997
-0.556523
-0.5356
-0.495913
-0.442597
-0.380258
-0.310468
-0.229499
-0.137057
-0.0396871
0.118432
0.375709
0.768112
1.15209
1.46738
1.68027
1.80343
1.85963
1.87826
-0.531103
-0.532358
-0.525931
-0.516862
-0.482491
-0.430239
-0.364753
-0.291027
-0.203724
-0.0980579
0.0168591
0.153851
0.424376
0.773907
1.11703
1.40966
1.62341
1.7516
1.81058
1.82813
-0.502267
-0.501049
-0.500238
-0.497303
-0.470099
-0.419968
-0.352326
-0.274169
-0.184611
-0.0771368
0.0376213
0.135171
0.368375
0.666297
0.949152
1.19431
1.3891
1.50828
1.56253
1.57762
-0.489923
-0.487242
-0.489067
-0.484051
-0.46249
-0.411341
-0.341738
-0.26172
-0.174423
-0.0749653
0.0329037
0.0996979
0.280702
0.526041
0.751345
0.944402
1.10208
1.20005
1.2434
1.25447
-0.486966
-0.485358
-0.488536
-0.487235
-0.464858
-0.405595
-0.333035
-0.253071
-0.170291
-0.0843964
0.0166491
0.0677033
0.197058
0.392918
0.571481
0.717247
0.833399
0.908611
0.941934
0.950553
-0.4798
-0.480332
-0.486649
-0.486294
-0.46068
-0.39512
-0.321864
-0.243882
-0.166403
-0.0947586
-0.00120991
0.0441958
0.128469
0.279186
0.418337
0.526067
0.609242
0.664055
0.687365
0.692421
-0.440785
-0.442648
-0.448899
-0.44814
-0.422638
-0.363636
-0.298496
-0.22785
-0.157681
-0.0989858
-0.0158439
0.0273193
0.0793452
0.192371
0.297115
0.375346
0.434859
0.474568
0.490537
0.495844
-0.354476
-0.357684
-0.362368
-0.362165
-0.342472
-0.302167
-0.254728
-0.1999
-0.140561
-0.0941834
-0.0252674
0.0141529
0.0464337
0.132947
0.209304
0.264543
0.307423
0.338727
0.349961
0.353004
-0.243192
-0.245608
-0.248076
-0.248664
-0.23892
-0.218892
-0.192342
-0.158082
-0.11542
-0.081082
-0.0289463
0.0048683
0.0258859
0.0934878
0.147641
0.184783
0.215706
0.235588
0.2448
0.247622
-0.138096
-0.139482
-0.141402
-0.143752
-0.142567
-0.137321
-0.127377
-0.110758
-0.0860284
-0.0629872
-0.0277787
-0.00191655
0.0138037
0.0663523
0.10291
0.128652
0.148037
0.159269
0.164036
0.164961
-0.0570291
-0.0579292
-0.0596098
-0.0634989
-0.0681396
-0.071837
-0.0724563
-0.0679108
-0.0570052
-0.0443351
-0.0231969
-0.00504839
0.00749125
0.0444218
0.0691181
0.0858927
0.0968526
0.101745
0.102523
0.101949
-0.00353899
-0.00426296
-0.00592596
-0.0109254
-0.0189031
-0.0270774
-0.0331276
-0.0353576
-0.0328997
-0.0284773
-0.0167737
-0.00483941
0.00560407
0.0272864
0.0425293
0.0523108
0.0575594
0.0587313
0.0577036
0.0564569
0.0258074
0.0252564
0.0237724
0.0187089
0.00982144
-2.37427e-05
-0.00853109
-0.0143098
-0.0161778
-0.0166363
-0.01061
-0.00376295
0.00307466
0.0148754
0.0229793
0.027309
0.0288076
0.0280946
0.0263825
0.0249026
0.0388288
0.0383999
0.0371419
0.032684
0.024537
0.0149469
0.00583931
-0.00167206
-0.00561567
-0.0081949
-0.00536748
-0.00230246
0.000103931
0.0057454
0.00892291
0.0100266
0.00978549
0.00801878
0.00585398
0.00437651
0.0419345
0.0416271
0.0406467
0.0371953
0.0306555
0.0225835
0.0142281
0.00644269
0.0016597
-0.00214924
-0.000902784
-0.000817504
-0.00135738
0.00128716
0.00142948
0.000984986
-0.000654525
-0.00304606
-0.00505955
-0.00643101
0.0398568
0.0396182
0.0388523
0.0363332
0.0315613
0.0255482
0.0188291
0.0119746
0.0071316
0.00240647
0.00236797
0.00163829
-0.000229163
0.000792135
0.000232664
-0.00123373
-0.0032191
-0.00534249
-0.00706593
-0.00837732
0.0358101
0.0356264
0.0350686
0.0332972
0.0299075
0.0255753
0.0204522
0.014874
0.0106545
0.00568603
0.0047717
0.00411183
0.0027151
0.00301619
0.00245051
0.000634769
-0.00131946
-0.00305201
-0.00434972
-0.00548742
0.0313279
0.0311874
0.0307765
0.0295194
0.0271375
0.0239225
0.0200759
0.0157312
0.0123708
0.00789351
0.00705612
0.00665527
0.00595669
0.00604407
0.00531979
0.00391602
0.0023126
0.00130358
0.000751697
-0.000257429
0.0271004
0.0270028
0.026736
0.0258596
0.0241029
0.021667
0.0187013
0.0151854
0.0127536
0.00923866
0.00863209
0.00844021
0.00827139
0.00867875
0.00790262
0.00719062
0.00700321
0.00707888
0.00707034
0.00605138
0.0230401
0.0229786
0.0227712
0.0222257
0.0210129
0.0191912
0.0170018
0.0142352
0.0123268
0.00948117
0.00923259
0.00910404
0.00851955
0.00946959
0.00996989
0.0107643
0.0108993
0.0106613
0.0108935
0.0101164
0.019048
0.0189973
0.0188437
0.0184924
0.0176406
0.0164004
0.014798
0.0126881
0.0113943
0.00898807
0.00858631
0.00843778
0.00813215
0.00911615
0.0102674
0.0120423
0.0131107
0.0135775
0.0139986
0.0133255
0.0152725
0.0152151
0.0150879
0.0148878
0.0143277
0.0135899
0.012494
0.0108651
0.00989936
0.00775064
0.00728527
0.00553211
0.0052344
0.00800095
0.0105715
0.0130761
0.0154269
0.0167887
0.0173545
0.0166328
0.0117891
0.0117288
0.0116267
0.0114981
0.0111622
0.0107304
0.0100328
0.00891391
0.00810774
0.00633012
0.00597142
0.00370677
0.0024326
0.00590445
0.0107141
0.0145174
0.0175342
0.0193085
0.0199117
0.0190421
0.00882685
0.00873426
0.00864966
0.00855256
0.00830837
0.00806229
0.00754445
0.00669742
0.0062597
0.00473773
0.00444094
0.00236363
0.00202753
0.00548845
0.0101098
0.0144171
0.0178543
0.0193909
0.0198473
0.0191629
0.00617032
0.00610172
0.0060676
0.00600175
0.00582621
0.00559678
0.00534153
0.00482738
0.00471406
0.00336685
0.00368635
0.00133886
0.00137668
0.00469062
0.00811627
0.0120318
0.0158342
0.0180545
0.018541
0.0175527
0.0036751
0.00358107
0.00352836
0.00343638
0.00335943
0.00328447
0.00316213
0.00281662
0.00325122
0.0021313
0.00272396
0.00148751
0.00189073
0.00276161
0.00488056
0.00772888
0.0107793
0.0131204
0.0141998
0.0130586
0.00152764
0.00144151
0.00134924
0.00126906
0.00130175
0.00144443
0.00171545
0.0015277
0.00193925
0.00103242
0.000967766
0.00162775
0.00340253
0.00213697
0.0017024
0.000640042
-7.96946e-05
-0.000487996
0.000520392
0.000242948
-1.07656
-0.23155
0.0385466
0.316403
0.500107
0.658263
0.787581
0.91917
1.06255
1.14309
-0.0916928
0.317259
0.335515
0.524951
0.651005
0.763987
0.861448
0.948015
0.975837
0.933345
0.288735
0.503979
0.540809
0.677977
0.765323
0.846348
0.913071
0.963071
0.965428
0.979194
0.52045
0.664858
0.700519
0.803674
0.860799
0.919578
0.964771
0.997332
1.00653
1.03011
0.70016
0.802716
0.832536
0.901311
0.945736
0.98745
1.01982
1.04421
1.05411
1.08562
0.844635
0.914106
0.944542
0.988009
1.0243
1.05471
1.0792
1.1
1.11426
1.14249
0.964535
1.01546
1.04113
1.06937
1.09727
1.12121
1.14132
1.16063
1.1756
1.20205
1.06874
1.10591
1.12711
1.14793
1.16891
1.18844
1.20592
1.22407
1.23896
1.2626
1.16302
1.19225
1.20868
1.22408
1.24032
1.25646
1.27204
1.28896
1.30255
1.32485
1.25156
1.27208
1.28701
1.30027
1.31389
1.32768
1.34116
1.35572
1.36726
1.3869
1.33724
1.35307
1.36692
1.37874
1.39063
1.40223
1.41334
1.42502
1.43269
1.44951
1.42259
1.43517
1.44886
1.46055
1.47112
1.48089
1.4897
1.49797
1.50153
1.5128
1.51132
1.52214
1.53558
1.54506
1.5526
1.55987
1.56707
1.57358
1.57464
1.58203
1.60965
1.6142
1.62239
1.62716
1.63056
1.63504
1.64104
1.64873
1.6526
1.66248
1.72286
1.70974
1.70246
1.69675
1.69404
1.69539
1.70178
1.71415
1.72895
1.75861
1.84482
1.78881
1.7578
1.74061
1.7324
1.73237
1.74116
1.76075
1.79263
1.86186
)
;

boundaryField
{
    wall-4
    {
        type            zeroGradient;
    }
    pressure-outlet-7
    {
        type            fixedValue;
        value           uniform 0;
    }
    velocity-inlet-6
    {
        type            zeroGradient;
    }
    velocity-inlet-5
    {
        type            zeroGradient;
    }
    frontAndBackPlanes
    {
        type            empty;
    }
}


// ************************************************************************* //
