/*--------------------------------*- C++ -*----------------------------------*\
  =========                 |
  \\      /  F ield         | OpenFOAM: The Open Source CFD Toolbox
   \\    /   O peration     | Website:  https://openfoam.org
    \\  /    A nd           | Version:  9
     \\/     M anipulation  |
\*---------------------------------------------------------------------------*/
FoamFile
{
    format      ascii;
    class       surfaceScalarField;
    location    "44";
    object      phi;
}
// * * * * * * * * * * * * * * * * * * * * * * * * * * * * * * * * * * * * * //

dimensions      [0 3 -1 0 0 0 0];

internalField   nonuniform List<scalar> 
4262
(
0.107137
0.470851
0.0955664
0.705156
0.0693733
0.858496
0.0473523
1.02078
0.0309881
1.21488
0.0198147
1.44939
0.0124465
1.73323
0.0072902
2.07619
0.00337418
2.48916
-0.000197948
2.98586
-0.00380415
2.9859
-0.00777438
2.48921
-0.0129315
2.07619
-0.0201411
1.73307
-0.031107
1.44919
-0.0472284
1.21464
-0.0690331
1.02057
-0.095277
0.858547
-0.107088
0.705396
0.470901
0.112899
0.357952
0.135332
0.682724
0.12046
0.873368
0.0979393
1.04331
0.0746994
1.23812
0.0529683
1.47112
0.0345369
1.75166
0.0202493
2.09048
0.00888128
2.50053
-0.00135167
2.9961
-0.0115334
2.99608
-0.0226337
2.50031
-0.0365915
2.09015
-0.0547377
1.75122
-0.0764316
1.47088
-0.100004
1.23821
-0.122997
1.04356
-0.136777
0.872327
-0.113487
0.682107
0.357413
0.0920854
0.265866
0.125054
0.649756
0.12122
0.877202
0.104956
1.05957
0.0863001
1.25678
0.0671852
1.49024
0.0483405
1.77051
0.0304043
2.10842
0.0139992
2.51693
-0.00179344
3.01189
-0.0174126
3.0117
-0.0334809
2.51638
-0.0510347
2.10771
-0.0697058
1.76989
-0.0882991
1.48947
-0.105778
1.25569
-0.120249
1.05803
-0.125318
0.877396
-0.0923568
0.649145
0.265056
0.0640111
0.201855
0.104886
0.60888
0.106709
0.875379
0.0953718
1.07091
0.0814711
1.27068
0.0667055
1.505
0.0505392
1.78667
0.033399
2.12556
0.0156927
2.53464
-0.00304564
3.03063
-0.0215081
3.03016
-0.0386172
2.53349
-0.0550886
2.12418
-0.0703431
1.78514
-0.0842144
1.50334
-0.0978962
1.26937
-0.109596
1.06973
-0.106723
0.874524
-0.0647607
0.607183
0.200296
0.0375445
0.164311
0.0809011
0.565524
0.0912582
0.865022
0.0841392
1.07803
0.0716196
1.2832
0.0598393
1.51678
0.0468364
1.79968
0.0319247
2.14047
0.0151469
2.55142
-0.00385803
3.04963
-0.022599
3.0489
-0.0387779
2.54967
-0.0528576
2.13826
-0.0651659
1.79745
-0.076511
1.51469
-0.0884509
1.28131
-0.0947691
1.07605
-0.083045
0.8628
-0.0383247
0.562462
0.161971
0.0195208
0.14479
0.0573495
0.527695
0.0727852
0.849586
0.0707206
1.08009
0.0620299
1.29189
0.0512901
1.52752
0.040143
1.81082
0.0275423
2.15307
0.0124377
2.56652
-0.00524949
3.06732
-0.0225014
3.06615
-0.0367036
2.56387
-0.0482672
2.14982
-0.0582978
1.80748
-0.0680093
1.5244
-0.0756628
1.28896
-0.0766078
1.077
-0.0597077
0.8459
-0.0202959
0.523051
0.141675
0.0106599
0.13413
0.0424895
0.495865
0.0587656
0.83331
0.0591471
1.07971
0.0530036
1.29803
0.0436678
1.53686
0.0334667
1.82103
0.0222557
2.16428
0.00927756
2.5795
-0.00645933
3.08306
-0.0219179
3.08161
-0.0339487
2.5759
-0.0438209
2.15969
-0.0525949
1.81626
-0.0607383
1.53254
-0.0655365
1.29376
-0.0637475
1.07521
-0.0455509
0.827703
-0.0115968
0.489096
0.130078
0.00662265
0.127507
0.0331019
0.469386
0.0494017
0.817011
0.0509581
1.07815
0.0459767
1.30301
0.0376965
1.54514
0.028196
1.83053
0.017461
2.17501
0.0054558
2.5915
-0.00833673
3.09685
-0.0214732
3.09475
-0.0321104
2.58654
-0.0413609
2.16894
-0.0492024
1.8241
-0.0558269
1.53917
-0.0591607
1.2971
-0.0557346
1.07178
-0.0368754
0.808844
-0.0077793
0.46
0.122299
0.0047885
0.122719
0.0268571
0.447318
0.0429449
0.800923
0.0452117
1.07589
0.040661
1.30756
0.0331377
1.55266
0.0242079
1.83946
0.0139319
2.18529
0.00249083
2.60295
-0.0101942
3.10953
-0.022143
3.1067
-0.0321076
2.59651
-0.0403584
2.17719
-0.0473227
1.83106
-0.0529821
1.54483
-0.0555049
1.29962
-0.0507286
1.067
-0.0314168
0.789532
-0.00619359
0.434777
0.116105
0.00385151
0.118867
0.0219747
0.429194
0.0373747
0.785523
0.0403986
1.07286
0.0362868
1.31167
0.0291077
1.55984
0.0204255
1.84814
0.0104375
2.19528
-0.000770078
2.61415
-0.0129142
3.12168
-0.0242227
3.11801
-0.0333551
2.60564
-0.0409552
2.18479
-0.0470874
1.8372
-0.0517043
1.54944
-0.0531086
1.30102
-0.0469557
1.06085
-0.0275186
0.770095
-0.00554792
0.412806
0.110558
0.00305624
0.115811
0.0175796
0.414671
0.0316295
0.771473
0.034877
1.06961
0.0311875
1.31536
0.0245871
1.56644
0.0165104
1.85621
0.00687127
2.20492
-0.00416441
2.62519
-0.016017
3.13353
-0.026774
3.12876
-0.035309
2.61417
-0.0419734
2.19146
-0.0472356
1.84246
-0.0509726
1.55318
-0.0513671
1.30142
-0.0439262
1.05341
-0.0245212
0.75069
-0.00519956
0.393485
0.105358
0.00241964
0.113391
0.0140717
0.403019
0.0269371
0.758607
0.0302696
1.06628
0.0264883
1.31915
0.0197495
1.57318
0.0116791
1.86429
0.00247855
2.21412
-0.00783947
2.63551
-0.0193476
3.14504
-0.0297591
3.13918
-0.0375079
2.62192
-0.0431121
2.19706
-0.047293
1.84664
-0.0501902
1.55608
-0.0496554
1.30088
-0.0412381
1.04499
-0.0221585
0.73161
-0.00494726
0.376274
0.100411
0.00173064
0.111661
0.0105081
0.394242
0.0214293
0.747686
0.024324
1.06339
0.0205669
1.3229
0.0138968
1.57985
0.00586221
1.87232
-0.00317931
2.22316
-0.0134667
2.64579
-0.0246005
3.15617
-0.0338315
3.14841
-0.0400649
2.62815
-0.0446264
2.20162
-0.0483046
1.85032
-0.0503521
1.55813
-0.0491312
1.29966
-0.0396424
1.0355
-0.0205905
0.712558
-0.00480953
0.360493
0.0956011
0.000889726
0.110771
0.0071518
0.387979
0.0164106
0.738428
0.0187873
1.06101
0.0145928
1.3271
0.00760913
1.58684
-0.000472105
1.8804
-0.00942636
2.23211
-0.0189822
2.65535
-0.0292027
3.16639
-0.0378691
3.15707
-0.0434337
2.63372
-0.046995
2.20518
-0.049849
1.85317
-0.051021
1.5593
-0.0490579
1.2977
-0.038359
1.0248
-0.0193743
0.693574
-0.00470393
0.345822
0.0908972
9.3327e-05
0.110678
0.00389896
0.384174
0.0106574
0.731669
0.0121939
1.05947
0.00798142
1.33131
0.000870401
1.59395
-0.00762556
1.8889
-0.0168056
2.24129
-0.0268612
2.66541
-0.0372101
3.17674
-0.0448127
3.16468
-0.0488996
2.63781
-0.0514904
2.20778
-0.0531497
1.85483
-0.0529933
1.55914
-0.049496
1.2942
-0.0376544
1.01296
-0.018601
0.67452
-0.00462821
0.331849
0.086269
-0.000781264
0.111459
0.000448272
0.382944
0.00531059
0.726807
0.00591302
1.05887
0.00101634
1.33621
-0.00668504
1.60165
-0.015718
1.89793
-0.0255846
2.25116
-0.0353963
2.67522
-0.0441681
3.18551
-0.0505008
3.17101
-0.0541099
2.64142
-0.0559003
2.20957
-0.0567787
1.85571
-0.0559195
1.55828
-0.0510445
1.28933
-0.0376723
0.999591
-0.0183584
0.655206
-0.00469489
0.318186
0.0815741
-0.00168116
0.11314
-0.00280333
0.384066
-0.00128539
0.725289
-0.00248823
1.06007
-0.00798503
1.3417
-0.0159926
1.60966
-0.0255268
1.90746
-0.0358488
2.26148
-0.0463183
2.68569
-0.0554997
3.1947
-0.0611296
3.17664
-0.0633488
2.64363
-0.0635511
2.20977
-0.0623988
1.85456
-0.0596295
1.55551
-0.0530919
1.28279
-0.0385153
0.985015
-0.0187467
0.635438
-0.00494635
0.304386
0.0766278
-0.00301463
0.116155
-0.00651282
0.387565
-0.00833586
0.727112
-0.0111817
1.06292
-0.017775
1.3483
-0.0268748
1.61876
-0.0371168
1.91771
-0.0480724
2.27244
-0.0585318
2.69615
-0.0666475
3.20281
-0.0704544
3.18044
-0.0711987
2.64438
-0.070063
2.20863
-0.0684938
1.85299
-0.0648936
1.55191
-0.0564214
1.27432
-0.0399577
0.968551
-0.0193666
0.614847
-0.00520519
0.290224
0.0714226
-0.00443852
0.120593
-0.0110586
0.394185
-0.0163807
0.732434
-0.0223093
1.06885
-0.0301071
1.35609
-0.0400782
1.62873
-0.0512837
1.92891
-0.0629244
2.28408
-0.0741104
2.70733
-0.0830341
3.21174
-0.0868011
3.18421
-0.0860444
2.64362
-0.0827173
2.20531
-0.0778113
1.84808
-0.0714015
1.5455
-0.0608781
1.26379
-0.0424
0.950073
-0.0205901
0.593037
-0.00564641
0.275281
0.0657762
-0.00586069
0.126454
-0.0161223
0.404446
-0.0255782
0.74189
-0.033845
1.07712
-0.0437118
1.36596
-0.056063
1.64108
-0.0689991
1.94185
-0.0818507
2.29693
-0.0930761
2.71856
-0.100171
3.21883
-0.100433
3.18447
-0.0967161
2.63991
-0.0917343
2.20032
-0.0867009
1.84305
-0.0793478
1.53815
-0.0662315
1.25068
-0.0451721
0.929013
-0.0219443
0.569809
-0.00606076
0.259397
0.0597154
-0.00835273
0.134807
-0.0237214
0.419815
-0.0390474
0.757216
-0.0511868
1.08926
-0.0625769
1.37735
-0.0760952
1.6546
-0.0906642
1.95642
-0.104869
2.31114
-0.116587
2.73028
-0.123287
3.22553
-0.122875
3.18406
-0.117913
2.63494
-0.110238
2.19265
-0.100671
1.83348
-0.0893579
1.52684
-0.0731411
1.23446
-0.0493272
0.905199
-0.0241592
0.544641
-0.00668287
0.241921
0.0530325
-0.0108216
0.145628
-0.0309824
0.439976
-0.0518246
0.778058
-0.0682955
1.10573
-0.0831774
1.39223
-0.0999778
1.6714
-0.116752
1.97319
-0.132304
2.32669
-0.14418
2.74215
-0.149044
3.2304
-0.144685
3.1797
-0.135029
2.62529
-0.124273
2.18189
-0.113925
1.82313
-0.101441
1.51435
-0.0819878
1.21501
-0.054689
0.877901
-0.0268688
0.516821
-0.00730567
0.222358
0.0457269
-0.0154885
0.161117
-0.0429023
0.46739
-0.0702682
0.805424
-0.0919031
1.12736
-0.110288
1.41062
-0.12987
1.69098
-0.149221
1.99254
-0.166493
2.34396
-0.178741
2.7544
-0.182433
3.23409
-0.17611
3.17338
-0.164838
2.61401
-0.151699
2.16875
-0.136146
1.80758
-0.118033
1.49624
-0.0939487
1.19092
-0.0622871
0.846239
-0.0305914
0.485125
-0.00810864
0.199875
0.0376182
-0.0196257
0.180743
-0.055769
0.503533
-0.0924491
0.842104
-0.120869
1.15578
-0.144772
1.43452
-0.169157
1.71536
-0.190948
2.01433
-0.208528
2.36154
-0.219067
2.76494
-0.219102
3.23412
-0.208151
3.16243
-0.191727
2.59759
-0.173672
2.1507
-0.156574
1.79048
-0.136679
1.47635
-0.108125
1.16237
-0.0710746
0.809189
-0.0343977
0.448448
-0.00878938
0.174266
0.0288288
-0.032763
0.213506
-0.0818669
0.552637
-0.128279
0.888516
-0.163643
1.19115
-0.193554
1.46443
-0.221252
1.74306
-0.244241
2.03732
-0.261396
2.37869
-0.269675
2.77322
-0.265004
3.22945
-0.248276
3.1457
-0.227941
2.57726
-0.207678
2.13044
-0.185575
1.76838
-0.158787
1.44956
-0.123888
1.12747
-0.0806602
0.765961
-0.0383598
0.406148
-0.00928351
0.14519
0.0195453
-0.0474228
0.260929
-0.120746
0.62596
-0.182609
0.950379
-0.225794
1.23433
-0.261118
1.49976
-0.290195
1.77214
-0.311336
2.05846
-0.324207
2.39156
-0.325686
2.7747
-0.313648
3.21741
-0.290947
3.123
-0.265272
2.55158
-0.23863
2.10379
-0.212465
1.74222
-0.182734
1.41983
-0.141527
1.08626
-0.0898944
0.714328
-0.0404582
0.356712
-0.00915271
0.113885
0.0103926
-0.033859
0.294788
-0.0963862
0.688487
-0.153259
1.00725
-0.199665
1.28074
-0.242017
1.54211
-0.278637
1.80876
-0.312435
2.09226
-0.341862
2.42099
-0.362994
2.79583
-0.369644
3.22406
-0.356257
3.10961
-0.33247
2.52779
-0.305531
2.07685
-0.271847
1.70853
-0.226897
1.37487
-0.16737
1.02674
-0.0976598
0.644618
-0.0388123
0.297864
-0.00853512
0.0836074
0.00185749
-0.0124634
0.307251
-0.0468087
0.722832
-0.0879641
1.04841
-0.126729
1.3195
-0.164623
1.58
-0.198034
1.84217
-0.228679
2.12291
-0.253795
2.44611
-0.26867
2.8107
-0.266849
3.22224
-0.249153
3.09192
-0.2225
2.50114
-0.189534
2.04389
-0.154789
1.67379
-0.117225
1.33731
-0.0743491
0.98386
-0.0340253
0.604294
-0.00993107
0.27377
-0.00182186
0.0754982
3.5636e-05
0.000633938
0.306617
-0.0234472
0.746913
-0.0526284
1.07759
-0.0826606
1.34953
-0.113683
1.61102
-0.143902
1.87239
-0.171254
2.15026
-0.193148
2.468
-0.205869
2.82343
-0.205334
3.22171
-0.18579
3.07237
-0.155421
2.47077
-0.12353
2.012
-0.0888362
1.63909
-0.0508039
1.29928
-0.0149732
0.948029
0.00661216
0.582709
0.00841294
0.271969
0.00268805
0.0812231
0.00272369
0.00111134
0.305506
-0.0121376
0.760162
-0.0338811
1.09933
-0.0587468
1.3744
-0.0844072
1.63668
-0.109452
1.89743
-0.132723
2.17353
-0.15114
2.48642
-0.16063
2.83292
-0.154899
3.21598
-0.134412
3.05189
-0.108775
2.44513
-0.077235
1.98046
-0.0421745
1.60403
-0.012395
1.2695
0.00948897
0.926145
0.0189316
0.573266
0.0142172
0.276684
0.0046356
0.0908047
0.00735929
0.00422274
0.301283
-0.00464809
0.769033
-0.0229165
1.1176
-0.0439561
1.39544
-0.0659047
1.65863
-0.0876229
1.91915
-0.107928
2.19383
-0.12437
2.50286
-0.133911
2.84246
-0.131281
3.21335
-0.114444
3.03505
-0.0877925
2.41848
-0.0567355
1.9494
-0.0275359
1.57483
0.00191284
1.24005
0.0221295
0.905928
0.0256101
0.569786
0.0166441
0.28565
0.00519688
0.102252
0.0125562
0.00530932
0.295974
-0.000662296
0.775004
-0.0169094
1.13385
-0.0357724
1.4143
-0.0552409
1.6781
-0.0743862
1.9383
-0.092586
2.21203
-0.10767
2.51795
-0.115669
2.85045
-0.111914
3.20959
-0.096252
3.01939
-0.0747272
2.39696
-0.0480954
1.92277
-0.017824
1.54456
0.00627172
1.21596
0.0219213
0.890279
0.0242541
0.567453
0.015129
0.294775
0.00473507
0.112646
0.0172912
0.00393012
0.292043
-0.000326015
0.779261
-0.0138236
1.14734
-0.0309134
1.43139
-0.0486781
1.69587
-0.0664422
1.95606
-0.0834127
2.229
-0.0975864
2.53212
-0.106106
2.85897
-0.105879
3.20937
-0.0922148
3.00572
-0.0678748
2.37262
-0.0429901
1.89788
-0.0199869
1.52156
0.00380793
1.19216
0.0180572
0.87603
0.0192089
0.566301
0.0119388
0.302045
0.00365865
0.120926
0.0209499
0.00269293
0.289351
-0.000837506
0.782791
-0.013139
1.15965
-0.0287342
1.44699
-0.0454258
1.71256
-0.0619742
1.97261
-0.0779768
2.24501
-0.091993
2.54614
-0.101339
2.86832
-0.10047
3.2085
-0.0866987
2.99195
-0.0690082
2.35493
-0.0468993
1.87577
-0.0212758
1.49594
-0.00185831
1.17274
0.00983118
0.86434
0.0128095
0.563323
0.00758906
0.307265
0.00235922
0.126156
0.0233091
0.000180264
0.28917
-0.00328731
0.786259
-0.0140941
1.17045
-0.0279861
1.46088
-0.0435737
1.72815
-0.0595343
1.98857
-0.0754556
2.26093
-0.0899073
2.56059
-0.100011
2.87842
-0.100793
3.20928
-0.0914244
2.98258
-0.0729128
2.33642
-0.0504533
1.85332
-0.0300948
1.47558
-0.0110512
1.1537
0.0014614
0.851828
0.00391757
0.560867
0.00287859
0.308304
0.00112788
0.127907
0.024437
-0.000453925
0.289624
-0.00508857
0.790893
-0.0151617
1.18053
-0.0282124
1.47393
-0.0431569
1.74309
-0.0585902
2.004
-0.0742619
2.2766
-0.0887594
2.57508
-0.0993954
2.88906
-0.102799
3.21268
-0.0933921
2.97318
-0.0763723
2.3194
-0.0570602
1.834
-0.0360013
1.45452
-0.0200613
1.13776
-0.0092737
0.84104
-0.00294765
0.554541
-0.00203408
0.307391
-0.000500469
0.126373
0.0239365
-0.00206375
0.291688
-0.00733696
0.796167
-0.0167607
1.18995
-0.0288687
1.48604
-0.0429854
1.75721
-0.0580614
2.01908
-0.0738067
2.29235
-0.0891604
2.59044
-0.101951
2.90185
-0.107405
3.21814
-0.0988027
2.96457
-0.082559
2.30315
-0.0628231
1.81427
-0.0456327
1.43733
-0.0283449
1.12047
-0.0157954
0.82849
-0.00921767
0.547963
-0.00420717
0.30238
-0.00109131
0.123257
0.0228452
-0.00351937
0.295207
-0.00881198
0.801459
-0.0179481
1.19909
-0.0296681
1.49776
-0.0432814
1.77082
-0.0579659
2.03376
-0.0737748
2.30815
-0.0896207
2.60628
-0.102758
2.91499
-0.109109
3.22449
-0.104103
2.95957
-0.0889968
2.28805
-0.0717648
1.79704
-0.051775
1.41734
-0.0360467
1.10474
-0.0234335
0.815877
-0.0135269
0.538056
-0.00695944
0.295813
-0.00188706
0.118185
0.0209581
-0.0042084
0.299416
-0.0102205
0.807471
-0.019195
1.20806
-0.030347
1.50891
-0.0433701
1.78384
-0.0578098
2.0482
-0.0737597
2.3241
-0.0902436
2.62277
-0.105524
2.93027
-0.115749
3.23471
-0.112266
2.95608
-0.0984647
2.27425
-0.0774974
1.77607
-0.0593045
1.39914
-0.0417255
1.08716
-0.0277675
0.801919
-0.0176438
0.527933
-0.00784804
0.286017
-0.00208574
0.112422
0.0188724
-0.00434736
0.303763
-0.0108672
0.813991
-0.0198657
1.21706
-0.030805
1.51985
-0.0435294
1.79657
-0.0576796
2.06235
-0.0736345
2.34006
-0.0906306
2.63976
-0.106699
2.94634
-0.117558
3.24557
-0.117145
2.95567
-0.105432
2.26253
-0.0877595
1.7584
-0.0651692
1.37655
-0.0472642
1.06926
-0.0322157
0.786871
-0.0186835
0.5144
-0.00866198
0.275995
-0.00206806
0.105829
0.0168043
-0.00442401
0.308187
-0.0114824
0.821049
-0.0204201
1.226
-0.0309704
1.5304
-0.043265
1.80886
-0.0571906
2.07628
-0.0732035
2.35607
-0.0907328
2.65729
-0.108538
2.96414
-0.12321
3.26024
-0.126112
2.95857
-0.114853
2.25127
-0.0931877
1.73673
-0.0720175
1.35538
-0.0500584
1.0473
-0.0328039
0.769616
-0.0197556
0.501352
-0.00795415
0.264194
-0.00169133
0.0995657
0.015113
-0.00447723
0.312664
-0.0116534
0.828226
-0.0204487
1.23479
-0.0308203
1.54077
-0.0428893
1.82093
-0.0565655
2.08995
-0.0725369
2.37204
-0.0904887
2.67525
-0.109068
2.98272
-0.124477
3.27565
-0.12971
2.9638
-0.120975
2.24254
-0.104472
1.72023
-0.078139
1.32905
-0.0532204
1.02238
-0.0316429
0.748039
-0.0149097
0.484619
-0.00551152
0.254796
-0.000661683
0.0947159
0.0144513
-0.00455726
0.317222
-0.0118453
0.835514
-0.0204238
1.24337
-0.0304168
1.55076
-0.0420843
1.8326
-0.0555437
2.10341
-0.0715203
2.38802
-0.0897824
2.69351
-0.109541
3.00248
-0.128184
3.2943
-0.137377
2.973
-0.131349
2.23651
-0.110866
1.69974
-0.0853811
1.30357
-0.0538408
0.990841
-0.0267457
0.720944
-0.00816167
0.466035
-8.25809e-05
0.246717
-0.00188895
0.0965222
0.0125623
-0.00454392
0.321766
-0.0117006
0.84267
-0.0200096
1.25168
-0.0297551
1.56051
-0.0411742
1.84402
-0.0543794
2.11662
-0.070208
2.40385
-0.0886334
2.71193
-0.108954
3.0228
-0.128594
3.31394
-0.139629
2.98403
-0.137116
2.234
-0.123306
1.68593
-0.09344
1.2737
-0.0567451
0.954146
-0.0171822
0.681381
0.0178347
0.431018
0.0328236
0.231728
0.0242964
0.105049
0.0368588
-0.00446027
0.326226
-0.0115553
0.849765
-0.0196102
1.25973
-0.0289469
1.56985
-0.0399234
1.85499
-0.0528393
2.12954
-0.0685206
2.41953
-0.0870448
2.73046
-0.108192
3.04395
-0.130185
3.33593
-0.144511
2.99836
-0.147127
2.23661
-0.131082
1.66989
-0.103394
1.24601
-0.0585202
0.909272
-0.0109509
0.633811
0.0358649
0.384202
0.0438167
0.223776
0.0191444
0.129722
0.0560031
-0.00427837
0.330504
-0.0111556
0.856643
-0.0189008
1.26748
-0.0279245
1.57887
-0.0386306
1.8657
-0.0512329
2.14214
-0.0666627
2.43496
-0.0851807
2.74897
-0.106616
3.06538
-0.129395
3.35871
-0.14618
3.01514
-0.151566
2.242
-0.145157
1.66348
-0.117154
1.21801
-0.0717247
0.863843
0.00195954
0.560127
0.102737
0.283424
0.185844
0.140669
0.180052
0.135514
0.236056
-0.00414831
0.334652
-0.010988
0.863482
-0.0186932
1.27518
-0.027649
1.58783
-0.0384347
1.87649
-0.0514593
2.15516
-0.067785
2.45129
-0.0878542
2.76904
-0.112027
3.08955
-0.139735
3.38642
-0.162712
3.03812
-0.174918
2.2542
-0.169005
1.65757
-0.146057
1.19506
-0.0959855
0.813771
-0.0426039
0.506746
-0.0827532
0.323573
-0.359621
0.417537
-0.938289
0.714181
0.898669
-1.6009
-0.00395977
0.338612
-0.0105765
0.870099
-0.0180553
1.28266
-0.0268871
1.59666
-0.0376308
1.88723
-0.0507616
2.16829
-0.0674572
2.46798
-0.0883881
2.78998
-0.114175
3.11534
-0.144808
3.41705
-0.172796
3.06611
-0.189969
2.27138
-0.202338
1.66994
-0.192587
1.18531
-0.172796
0.793981
-0.259315
0.593265
-0.692642
0.7569
-1.43419
1.15909
-2.04374
1.32373
1.21766
-2.36274
-0.00375828
0.342371
-0.0101665
0.876507
-0.0174441
1.28994
-0.026039
1.60525
-0.0365771
1.89777
-0.0497593
2.18148
-0.0668125
2.48503
-0.0885686
2.81173
-0.116295
3.14307
-0.15106
3.45181
-0.18515
3.1002
-0.213095
2.29932
-0.227053
1.68389
-0.224403
1.18266
-0.311475
0.881052
-0.752914
1.0347
-1.53465
1.53864
-2.1052
1.72964
-2.34575
1.56428
1.33244
-2.46053
-0.00356234
0.345933
-0.00960617
0.882551
-0.0165701
1.29691
-0.0249761
1.61366
-0.0354095
1.9082
-0.0486288
2.19469
-0.0659337
2.50234
-0.0884481
2.83425
-0.117758
3.17238
-0.155602
3.48966
-0.196144
3.14074
-0.229039
2.33222
-0.262431
1.71729
-0.347706
1.26794
-0.691522
1.22487
-1.43095
1.77413
-2.02314
2.13083
-2.26383
1.97033
-2.37763
1.67808
1.39735
-2.44253
-0.00330181
0.349235
-0.00901221
0.888261
-0.0156937
1.30359
-0.0238032
1.62177
-0.0340348
1.91843
-0.0472144
2.20787
-0.0647405
2.51987
-0.087932
2.85744
-0.118963
3.20341
-0.16083
3.53153
-0.2079
3.18781
-0.254678
2.379
-0.302068
1.76468
-0.482551
1.44842
-1.08999
1.83231
-1.78211
2.46624
-2.10593
2.45465
-2.25518
2.11959
-2.33761
1.7605
1.46312
-2.40338
-0.0032292
0.352464
-0.00880675
0.893839
-0.0154176
1.3102
-0.023596
1.62995
-0.0341259
1.92896
-0.0476125
2.22136
-0.0656265
2.53788
-0.0897424
2.88155
-0.122391
3.23606
-0.167473
3.57661
-0.221749
3.24209
-0.271711
2.42896
-0.364328
1.85729
-0.750891
1.83498
-1.48553
2.56695
-1.96186
2.94256
-2.1623
2.6551
-2.26887
2.22616
-2.34594
1.83757
1.52694
-2.40977
-0.00332401
0.355788
-0.00919254
0.899708
-0.016209
1.31721
-0.0247771
1.63852
-0.035731
1.93992
-0.0498338
2.23546
-0.0687288
2.55677
-0.0940682
2.90689
-0.128753
3.27074
-0.178047
3.6259
-0.23582
3.29986
-0.30124
2.49438
-0.491845
2.0479
-1.04429
2.38743
-1.67408
3.19675
-1.95253
3.22101
-2.10005
2.80262
-2.21421
2.34032
-2.30783
1.93119
1.58888
-2.36976
-0.00336855
0.359156
-0.00949938
0.905838
-0.0168612
1.32458
-0.0259405
1.64759
-0.0374963
1.95147
-0.0523017
2.25027
-0.0720694
2.57654
-0.0986764
2.9335
-0.135152
3.30722
-0.18752
3.67827
-0.252177
3.36452
-0.341918
2.58412
-0.622548
2.32853
-1.26031
3.02519
-1.75146
3.6879
-1.95915
3.4287
-2.09997
2.94343
-2.22413
2.46448
-2.33524
2.0423
1.64765
-2.39401
-0.00335634
0.362513
-0.00981036
0.912292
-0.0177128
1.33248
-0.0272739
1.65716
-0.0392805
1.96348
-0.0547429
2.26573
-0.0754493
2.59725
-0.103308
2.96136
-0.141759
3.34567
-0.197331
3.73384
-0.265647
3.43283
-0.391496
2.70997
-0.774531
2.71156
-1.40604
3.6567
-1.76223
4.04409
-1.93607
3.60254
-2.03875
3.04611
-2.12803
2.55377
-2.1961
2.11036
1.64074
-2.18918
-0.00327726
0.36579
-0.00995627
0.918971
-0.0182199
1.34074
-0.0283678
1.6673
-0.0411039
1.97621
-0.0573456
2.28197
-0.0789524
2.61886
-0.108087
2.99049
-0.148223
3.38581
-0.205611
3.79123
-0.285877
3.5131
-0.456657
2.88075
-0.904879
3.15979
-1.46001
4.21183
-1.72339
4.30747
-1.87665
3.75581
-1.97058
3.14004
-1.97304
2.55623
-1.90557
2.04289
1.60808
-1.87291
-0.00306293
0.368853
-0.0100335
0.925942
-0.0188694
1.34958
-0.029448
1.67788
-0.0424938
1.98926
-0.0591175
2.2986
-0.0811664
2.6409
-0.110656
3.01998
-0.151248
3.4264
-0.207842
3.84782
-0.293757
3.59901
-0.498037
3.08503
-0.983585
3.64533
-1.4265
4.65474
-1.59416
4.47513
-1.66243
3.82408
-1.66769
3.1453
-1.52094
2.40948
-1.0214
1.54334
0.586681
-0.00263624
0.371489
-0.00980326
0.933109
-0.0189716
1.35875
-0.0302947
1.68921
-0.0445033
2.00347
-0.0625198
2.31661
-0.0863924
2.66478
-0.118554
3.05214
-0.162957
3.4708
-0.226257
3.91112
-0.330919
3.70367
-0.584395
3.33851
-1.11917
4.18011
-1.48022
5.01579
-1.58063
4.57554
-1.57904
3.82248
-1.47675
3.04301
-1.23775
2.17049
-0.63621
0.9418
-0.0495294
-0.00212048
0.37361
-0.00932324
0.940312
-0.0191284
1.36855
-0.0311373
1.70121
-0.0460713
2.0184
-0.0652839
2.33583
-0.0910106
2.6905
-0.125773
3.08691
-0.174572
3.5196
-0.243726
3.98028
-0.365536
3.82548
-0.67756
3.65053
-1.2348
4.73736
-1.49968
5.28067
-1.55967
4.63553
-1.53904
3.80185
-1.33723
2.8412
-0.788136
1.62139
-0.111194
0.264859
-0.160724
-0.00156486
0.375175
-0.0084179
0.947165
-0.0182482
1.37838
-0.0309362
1.7139
-0.0470159
2.03448
-0.0676188
2.35643
-0.0951826
2.71807
-0.132718
3.12444
-0.184869
3.57175
-0.262639
4.05805
-0.411811
3.97466
-0.780639
4.01936
-1.31488
5.2716
-1.49396
5.45975
-1.52526
4.66683
-1.4383
3.71488
-1.10678
2.50968
-0.318038
0.832653
0.0264469
-0.079626
-0.134277
-0.000610202
0.375785
-0.00677508
0.95333
-0.0171428
1.38875
-0.0304946
1.72725
-0.0470771
2.05107
-0.0687265
2.37808
-0.0980035
2.74734
-0.137813
3.16425
-0.192949
3.62689
-0.278742
4.14384
-0.451406
4.14732
-0.883178
4.45113
-1.35704
5.74546
-1.47611
5.57882
-1.47998
4.67069
-1.26129
3.49619
-0.695538
1.94393
-0.0640225
0.201138
0.0314639
-0.175112
-0.102813
0.000719422
0.375065
-0.00421716
0.958266
-0.0143091
1.39884
-0.0282126
1.74116
-0.0456956
2.06855
-0.0686109
2.40099
-0.0994725
2.77821
-0.14151
3.20629
-0.199324
3.6847
-0.294186
4.2387
-0.496042
4.34918
-0.976943
4.93203
-1.35516
6.12368
-1.42064
5.64429
-1.37795
4.62801
-1.08891
3.20716
-0.33136
1.18638
0.00186821
-0.13209
0.0139028
-0.187147
-0.0889102
0.00307991
0.371985
0.00013337
0.961213
-0.0107562
1.40973
-0.0251793
1.75558
-0.0426397
2.08601
-0.0663116
2.42466
-0.098333
2.81023
-0.141914
3.24987
-0.202497
3.74529
-0.305149
4.34135
-0.527808
4.57184
-1.03367
5.43789
-1.31394
6.40396
-1.35597
5.68632
-1.22288
4.49491
-0.785515
2.76979
-0.0781518
0.479015
0.046869
-0.257111
0.0261583
-0.166436
-0.0627518
0.00512008
0.366865
0.00370775
0.962625
-0.0052971
1.41874
-0.0189716
1.76925
-0.0369083
2.10395
-0.0614403
2.4492
-0.0943763
2.84316
-0.139253
3.29475
-0.201736
3.80777
-0.311657
4.45127
-0.566162
4.82634
-1.05666
5.92838
-1.25044
6.59774
-1.26336
5.69924
-1.0498
4.28136
-0.469186
2.18918
-0.00870718
0.0185371
0.00299715
-0.268815
0.0113175
-0.174757
-0.0514344
0.00834189
0.358523
0.00958312
0.961384
0.00223675
1.42608
-0.010877
1.78237
-0.028535
2.1216
-0.0529965
2.47366
-0.0859089
2.87608
-0.130731
3.33957
-0.194691
3.87173
-0.310739
4.56732
-0.580284
5.09589
-1.02891
6.37701
-1.1541
6.72293
-1.14307
5.6882
-0.891707
4.03
-0.272817
1.57029
-0.0636549
-0.190625
-0.0355481
-0.296922
-0.0110249
-0.19928
-0.0624592
0.0120311
0.346492
0.0174349
0.95598
0.0131367
1.43038
0.00250836
1.793
-0.015831
2.13994
-0.0397289
2.49756
-0.0720207
2.90837
-0.116471
3.38402
-0.18013
3.93539
-0.298418
4.68561
-0.57786
5.37533
-0.96354
6.76269
-1.03471
6.7941
-0.971146
5.62464
-0.698927
3.75778
-0.108831
0.980194
-0.0342053
-0.26525
-0.0284706
-0.302657
-0.0108954
-0.216855
-0.0733546
0.0179216
0.328571
0.0290473
0.944854
0.0273983
1.43203
0.0172895
1.80311
0.000833577
2.1564
-0.0205898
2.51898
-0.0508872
2.93867
-0.0930709
3.4262
-0.154513
3.99683
-0.272237
4.80333
-0.533363
5.63645
-0.84467
7.074
-0.882226
6.83165
-0.788808
5.53122
-0.46497
3.43394
0.0224766
0.492747
0.0405474
-0.283321
0.0244962
-0.286605
0.0072027
-0.199561
-0.0661519
0.0244455
0.304125
0.0430858
0.926214
0.0469443
1.42817
0.0402483
1.8098
0.0276721
2.16898
0.00760522
2.53905
-0.0204705
2.96674
-0.0591798
3.46491
-0.116253
4.0539
-0.224907
4.91199
-0.451902
5.86345
-0.679361
7.30146
-0.724138
6.87643
-0.614852
5.42193
-0.284663
3.10375
0.0201442
0.18794
0.0298724
-0.293049
0.0359602
-0.292693
0.0195618
-0.183163
-0.0465902
0.0338134
0.270312
0.0627173
0.89731
0.0728649
1.41802
0.0701883
1.81248
0.0610537
2.17811
0.0443466
2.55575
0.0206182
2.99047
-0.0131593
3.49869
-0.0621771
4.10292
-0.15223
5.00204
-0.325107
6.03633
-0.474222
7.45058
-0.521888
6.9241
-0.444313
5.34436
-0.136756
2.79619
-0.0167556
0.0679404
-0.0107835
-0.299021
0.0230873
-0.326564
0.0413465
-0.201422
-0.00524362
0.0434146
0.226897
0.0854692
0.855256
0.105741
1.39775
0.110239
1.80798
0.106274
2.18208
0.0941725
2.56785
0.0768379
3.0078
0.0513007
3.52423
0.00865967
4.14556
-0.048764
5.05946
-0.161464
6.14903
-0.24039
7.5295
-0.265879
6.94958
-0.293936
5.37241
-0.192799
2.69506
-0.332422
0.207564
-0.303204
-0.328239
-0.163737
-0.466031
-0.00688215
-0.358277
-0.0121258
0.0549087
0.171989
0.114816
0.795348
0.149037
1.36353
0.161047
1.79597
0.162821
2.1803
0.156247
2.57443
0.146561
3.01749
0.131798
3.53899
0.111633
4.16572
0.0825567
5.08854
0.0734234
6.15816
0.0596818
7.54324
-0.0115002
7.02077
-0.176991
5.53791
-0.411873
2.92994
-0.723816
0.519506
-0.70835
-0.343705
-0.512049
-0.662332
-0.234299
-0.636027
-0.246425
0.0584737
0.113515
0.144353
0.70947
0.198381
1.3095
0.224336
1.77001
0.235935
2.1687
0.23734
2.57302
0.236551
3.01828
0.234216
3.54132
0.23407
4.16587
0.241707
5.0809
0.34173
6.05814
0.451158
7.43382
0.439541
7.03238
0.348523
5.62892
-0.0353733
3.31383
-0.533303
1.01744
-0.76353
-0.113478
-0.647117
-0.778746
-0.360898
-0.922246
-0.607323
0.0510282
0.0624867
0.174092
0.586406
0.261261
1.22233
0.302939
1.72834
0.323923
2.14772
0.334963
2.56198
0.343455
3.00979
0.35752
3.52726
0.385491
4.1379
0.440955
5.02544
0.67704
5.82205
1.02621
7.08464
1.32222
6.73638
1.53499
5.41615
1.20129
3.64753
0.560019
1.65871
0.0549741
0.391567
-0.202652
-0.521119
-0.212217
-0.912681
-0.81954
0.0365702
0.0259165
0.205219
0.417758
0.323597
1.10395
0.394997
1.65694
0.432833
2.10988
0.456628
2.53819
0.473193
2.99322
0.500032
3.50042
0.553201
4.08473
0.672459
4.90618
1.03452
5.45999
1.6798
6.43936
2.07356
6.34261
2.33268
5.15703
2.19764
3.78258
1.64398
2.21237
1.13265
0.902899
0.552705
0.058824
0.183006
-0.542983
-0.636533
0.0312989
-0.00538237
0.226393
0.222664
0.408918
0.921428
0.507758
1.5581
0.558803
2.05884
0.595915
2.50108
0.623208
2.96593
0.662879
3.46075
0.740658
4.00695
0.896407
4.75043
1.31286
5.04354
2.0815
5.67072
2.47984
5.94428
2.68497
4.95189
2.62471
3.84284
2.14489
2.69219
1.54194
1.50584
0.975319
0.625448
0.429141
0.00319434
-0.207392
0.0282957
-0.0336781
0.181408
0.0695515
0.460637
0.642199
0.629946
1.38879
0.709336
1.97945
0.755677
2.45474
0.794016
2.92759
0.832944
3.42182
0.904467
3.93543
1.04731
4.60759
1.34366
4.74719
2.06349
4.95089
2.42153
5.58623
2.55739
4.81604
2.48852
3.91171
2.16105
3.01966
1.59909
2.0678
1.0147
1.20984
0.416948
0.600949
0.209557
0.0117032
-0.0453813
0.0964028
-0.015148
0.403627
0.334975
0.628681
1.16373
0.736924
1.87121
0.769525
2.42213
0.779981
2.91714
0.769712
3.43209
0.764404
3.94074
0.798665
4.57332
0.879334
4.66652
1.18794
4.64229
1.4175
5.35667
1.41705
4.81649
1.34025
3.98852
1.17175
3.18815
0.874122
2.36543
0.545195
1.53877
0.228961
0.917184
0.438518
-0.00161159
-0.0437698
0.0397978
-0.0565574
0.243581
0.131192
0.47072
0.936594
0.580608
1.76132
0.619311
2.38343
0.636378
2.90007
0.633301
3.43517
0.621967
3.95207
0.622149
4.57314
0.658083
4.63059
0.838566
4.4618
1.05309
5.14215
1.05388
4.8157
0.984648
4.05775
0.857366
3.31543
0.651434
2.57137
0.396615
1.79358
0.156442
1.15736
0.594959
0.014848
-0.0586178
0.0560803
-0.0977897
0.152255
0.0350174
0.334121
0.754728
0.435191
1.66025
0.474235
2.34439
0.488562
2.88574
0.49285
3.43088
0.486597
3.95832
0.481072
4.57867
0.488889
4.62277
0.598324
4.35237
0.752233
4.98824
0.754173
4.81376
0.685705
4.12622
0.582536
3.4186
0.437271
2.71663
0.25799
1.97286
0.0921162
1.32323
0.687076
0.0349519
-0.0935697
0.0818862
-0.144724
0.11285
0.00405381
0.202545
0.665034
0.279416
1.58338
0.322896
2.30091
0.34353
2.86511
0.357988
3.41642
0.364636
3.95168
0.364525
4.57878
0.357934
4.62936
0.413733
4.29657
0.51861
4.88336
0.516487
4.81588
0.45392
4.18879
0.373356
3.49916
0.271448
2.81854
0.148904
2.09541
0.0384393
1.4337
0.725515
0.0373149
-0.130885
0.0705953
-0.178004
0.0423212
0.032328
0.0521199
0.655235
0.105238
1.53026
0.155256
2.25089
0.193834
2.82653
0.2253
3.38495
0.251455
3.92552
0.261862
4.56837
0.255177
4.63605
0.278338
4.27341
0.340507
4.82119
0.334334
4.82205
0.284684
4.23844
0.219399
3.56445
0.142854
2.89508
0.0584808
2.17978
-0.00635761
1.49853
0.719157
0.0214587
-0.152343
0.014461