/*--------------------------------*- C++ -*----------------------------------*\
  =========                 |
  \\      /  F ield         | OpenFOAM: The Open Source CFD Toolbox
   \\    /   O peration     | Website:  https://openfoam.org
    \\  /    A nd           | Version:  9
     \\/     M anipulation  |
\*---------------------------------------------------------------------------*/
FoamFile
{
    format      ascii;
    class       volVectorField;
    location    "44";
    object      U;
}
// * * * * * * * * * * * * * * * * * * * * * * * * * * * * * * * * * * * * * //

dimensions      [0 1 -1 0 0 0 0];

internalField   nonuniform List<vector> 
2200
(
(0.878851 -0.0304134 0)
(1.0058 -0.0512803 0)
(1.0033 -0.0353944 0)
(1.00028 -0.0244289 0)
(0.999872 -0.0166555 0)
(1.00005 -0.010734 0)
(1.00005 -0.00686563 0)
(1.00004 -0.00423781 0)
(1.00003 -0.00227042 0)
(1.00017 -0.0007216 0)
(1.00005 0.000889864 0)
(1.00001 0.00247276 0)
(1.00003 0.00446188 0)
(1.00013 0.00706969 0)
(1.00013 0.0108335 0)
(0.999918 0.0166638 0)
(1.00028 0.0244045 0)
(1.00349 0.0349895 0)
(1.00595 0.0513606 0)
(0.879008 0.0303268 0)
(0.711998 -0.0327685 0)
(0.996636 -0.0630307 0)
(1.03331 -0.0561783 0)
(1.02491 -0.0464638 0)
(1.01587 -0.036155 0)
(1.00961 -0.0264346 0)
(1.00589 -0.0181804 0)
(1.00372 -0.0114492 0)
(1.00253 -0.0060618 0)
(1.00198 -0.00151335 0)
(1.00199 0.00270082 0)
(1.00254 0.00718984 0)
(1.00369 0.0124235 0)
(1.00564 0.0189957 0)
(1.00933 0.0271648 0)
(1.01562 0.0368968 0)
(1.0247 0.0473012 0)
(1.03309 0.0576547 0)
(0.99666 0.0631579 0)
(0.711786 0.0329924 0)
(0.53547 -0.0239004 0)
(0.969866 -0.0569539 0)
(1.05641 -0.0547738 0)
(1.0522 -0.0487952 0)
(1.0362 -0.0404783 0)
(1.0244 -0.0322835 0)
(1.01585 -0.0240634 0)
(1.01038 -0.0162151 0)
(1.00721 -0.00899089 0)
(1.00571 -0.00240006 0)
(1.00563 0.00392005 0)
(1.00705 0.010403 0)
(1.0101 0.0174465 0)
(1.01556 0.0251255 0)
(1.02414 0.0333214 0)
(1.03603 0.0412804 0)
(1.05206 0.049359 0)
(1.05633 0.0536387 0)
(0.969221 0.0575705 0)
(0.534419 0.0239342 0)
(0.392209 -0.0136516 0)
(0.91174 -0.0464102 0)
(1.05741 -0.0469168 0)
(1.06956 -0.0443638 0)
(1.05492 -0.0382399 0)
(1.03936 -0.0315695 0)
(1.02752 -0.0247339 0)
(1.01905 -0.0175261 0)
(1.01369 -0.0100515 0)
(1.01105 -0.00249 0)
(1.01095 0.00507589 0)
(1.01341 0.012448 0)
(1.01857 0.0196188 0)
(1.02695 0.0265698 0)
(1.03856 0.0329065 0)
(1.05403 0.0393898 0)
(1.06839 0.0454614 0)
(1.05571 0.0481096 0)
(0.910113 0.0469139 0)
(0.390151 0.0137529 0)
(0.307501 -0.00452553 0)
(0.846493 -0.0324283 0)
(1.04922 -0.0400287 0)
(1.0793 -0.0383126 0)
(1.06807 -0.0336769 0)
(1.05163 -0.0281183 0)
(1.03826 -0.0227437 0)
(1.02804 -0.0166704 0)
(1.021 -0.00980109 0)
(1.01715 -0.00227996 0)
(1.01687 0.00556742 0)
(1.02032 0.0128945 0)
(1.02719 0.0194802 0)
(1.03718 0.0251695 0)
(1.05046 0.0302743 0)
(1.06687 0.0355787 0)
(1.07788 0.0399494 0)
(1.04731 0.0415635 0)
(0.843178 0.0329281 0)
(0.304109 0.00470935 0)
(0.264001 9.11039e-05 0)
(0.788674 -0.020118 0)
(1.0332 -0.0315488 0)
(1.08343 -0.0321177 0)
(1.0772 -0.0288668 0)
(1.06072 -0.0240476 0)
(1.04717 -0.019594 0)
(1.03627 -0.0145129 0)
(1.02841 -0.00844414 0)
(1.02401 -0.00144851 0)
(1.02378 0.00593877 0)
(1.02766 0.012597 0)
(1.03496 0.0182546 0)
(1.04552 0.0229028 0)
(1.05871 0.0268212 0)
(1.07493 0.0311867 0)
(1.08054 0.0339517 0)
(1.02955 0.033095 0)
(0.783277 0.0206731 0)
(0.259338 9.48885e-05 0)
(0.239974 0.00106018 0)
(0.737889 -0.0123142 0)
(1.01343 -0.0250873 0)
(1.08383 -0.0269329 0)
(1.08275 -0.0246574 0)
(1.06763 -0.0205047 0)
(1.0542 -0.0165587 0)
(1.04339 -0.0121096 0)
(1.03527 -0.00681991 0)
(1.03037 -0.000553942 0)
(1.02977 0.00610435 0)
(1.03381 0.0121129 0)
(1.0414 0.0168469 0)
(1.05176 0.0207171 0)
(1.06498 0.0241253 0)
(1.0798 0.0277183 0)
(1.08036 0.0294026 0)
(1.00815 0.0269758 0)
(0.729831 0.0130515 0)
(0.233822 -0.000864077 0)
(0.225577 0.000952204 0)
(0.694838 -0.00808269 0)
(0.992469 -0.0208206 0)
(1.08185 -0.0231881 0)
(1.08669 -0.0214006 0)
(1.07316 -0.0178747 0)
(1.05966 -0.0140848 0)
(1.04911 -0.00988073 0)
(1.04118 -0.00498294 0)
(1.03641 0.000646927 0)
(1.03597 0.00653986 0)
(1.03964 0.0116748 0)
(1.04652 0.0159222 0)
(1.05635 0.0194471 0)
(1.06954 0.022526 0)
(1.08225 0.0253223 0)
(1.07613 0.0263832 0)
(0.984148 0.023161 0)
(0.683243 0.00902465 0)
(0.217624 -0.00073234 0)
(0.215896 0.000609651 0)
(0.659307 -0.00573902 0)
(0.972243 -0.0178267 0)
(1.0792 -0.0205215 0)
(1.0898 -0.0189763 0)
(1.07789 -0.0158695 0)
(1.0645 -0.0122883 0)
(1.05405 -0.00819844 0)
(1.04623 -0.00348816 0)
(1.04121 0.00170919 0)
(1.04016 0.00705883 0)
(1.04354 0.0117628 0)
(1.05046 0.0156489 0)
(1.06014 0.0188272 0)
(1.073 0.0216337 0)
(1.08419 0.0239231 0)
(1.07198 0.024509 0)
(0.960761 0.0206321 0)
(0.643703 0.00691018 0)
(0.205764 -0.000365268 0)
(0.208506 0.000274379 0)
(0.63017 -0.00428302 0)
(0.952293 -0.0151932 0)
(1.07563 -0.0182347 0)
(1.093 -0.0170297 0)
(1.08254 -0.01419 0)
(1.069 -0.0106406 0)
(1.05852 -0.00657634 0)
(1.05078 -0.00196942 0)
(1.04599 0.00305903 0)
(1.04507 0.00801743 0)
(1.04798 0.0124161 0)
(1.05389 0.0159827 0)
(1.06322 0.0189893 0)
(1.07609 0.0214086 0)
(1.08499 0.0231301 0)
(1.06474 0.0231483 0)
(0.936169 0.0186165 0)
(0.609422 0.00571891 0)
(0.195674 7.21685e-06 0)
(0.20268 8.65047e-05 0)
(0.607162 -0.00317042 0)
(0.935073 -0.0125886 0)
(1.0726 -0.0157288 0)
(1.09585 -0.0147191 0)
(1.08689 -0.0122165 0)
(1.07349 -0.00889053 0)
(1.06288 -0.00502895 0)
(1.05495 -0.000434652 0)
(1.04973 0.00451301 0)
(1.04809 0.00921908 0)
(1.05068 0.0133446 0)
(1.05705 0.0167 0)
(1.06623 0.0192584 0)
(1.07856 0.0213869 0)
(1.08572 0.0226266 0)
(1.05895 0.0221194 0)
(0.913663 0.0169105 0)
(0.580311 0.00496749 0)
(0.186559 0.000276346 0)
(0.197913 7.76536e-06 0)
(0.588308 -0.00232259 0)
(0.918361 -0.0104372 0)
(1.06885 -0.0137137 0)
(1.09896 -0.0127773 0)
(1.0915 -0.0101356 0)
(1.07793 -0.00680253 0)
(1.06701 -0.00298775 0)
(1.05871 0.00125749 0)
(1.05316 0.00598457 0)
(1.0514 0.0105944 0)
(1.05364 0.0145468 0)
(1.05904 0.017426 0)
(1.06825 0.0196176 0)
(1.08055 0.0212208 0)
(1.08552 0.0221439 0)
(1.04955 0.0211593 0)
(0.889495 0.0153986 0)
(0.553807 0.00448816 0)
(0.177741 0.000433998 0)
(0.194377 6.26133e-06 0)
(0.573776 -0.00156441 0)
(0.904524 -0.00809145 0)
(1.06632 -0.0111772 0)
(1.10221 -0.0101721 0)
(1.09604 -0.00765893 0)
(1.08242 -0.00419859 0)
(1.07115 -0.00058127 0)
(1.06235 0.00369067 0)
(1.05618 0.00833651 0)
(1.05383 0.012738 0)
(1.05596 0.0159749 0)
(1.06194 0.0182955 0)
(1.07084 0.0200817 0)
(1.08252 0.0215969 0)
(1.08495 0.0220936 0)
(1.04234 0.020622 0)
(0.868042 0.0143631 0)
(0.530823 0.00422622 0)
(0.169493 0.00052632 0)
(0.192147 3.26065e-05 0)
(0.563275 -0.000783354 0)
(0.892438 -0.00599643 0)
(1.06348 -0.00882178 0)
(1.10579 -0.00770751 0)
(1.10124 -0.00488567 0)
(1.08742 -0.00149631 0)
(1.0757 0.00222597 0)
(1.06654 0.00620074 0)
(1.05997 0.010469 0)
(1.05685 0.0145463 0)
(1.05805 0.0176715 0)
(1.0631 0.0196126 0)
(1.0723 0.0209146 0)
(1.08366 0.0220257 0)
(1.0836 0.0222856 0)
(1.03067 0.0202801 0)
(0.84374 0.0134909 0)
(0.508329 0.00405623 0)
(0.161123 0.000576107 0)
(0.191284 9.09237e-05 0)
(0.555774 -0.00015711 0)
(0.882579 -0.00367442 0)
(1.06187 -0.00600796 0)
(1.10953 -0.00476425 0)
(1.10627 -0.00206986 0)
(1.09245 0.00162054 0)
(1.08023 0.00526001 0)
(1.07031 0.0094503 0)
(1.063 0.0139428 0)
(1.05955 0.0179543 0)
(1.06051 0.0203708 0)
(1.06563 0.0217421 0)
(1.07452 0.022645 0)
(1.08434 0.0231525 0)
(1.08169 0.0227459 0)
(1.02125 0.020186 0)
(0.822701 0.01289 0)
(0.48872 0.00397773 0)
(0.153338 0.000590818 0)
(0.191887 1.27772e-05 0)
(0.552028 0.000878732 0)
(0.875859 -0.00154487 0)
(1.06036 -0.00339687 0)
(1.11316 -0.00187222 0)
(1.11155 0.0012292 0)
(1.09764 0.00489873 0)
(1.08504 0.00900582 0)
(1.07472 0.0132976 0)
(1.06663 0.0173483 0)
(1.06166 0.0205042 0)
(1.06132 0.0227132 0)
(1.06574 0.0238588 0)
(1.07449 0.0243044 0)
(1.08363 0.0245607 0)
(1.07753 0.0238229 0)
(1.00662 0.0204616 0)
(0.797693 0.0126001 0)
(0.467858 0.00403603 0)
(0.145017 0.000618718 0)
(0.193959 0.000242331 0)
(0.55249 0.00151104 0)
(0.871456 0.000827429 0)
(1.06109 0.000109655 0)
(1.11779 0.00201971 0)
(1.11704 0.00502432 0)
(1.10318 0.00907735 0)
(1.09016 0.0133346 0)
(1.07908 0.0178717 0)
(1.06997 0.0222148 0)
(1.06485 0.0253596 0)
(1.06433 0.0269682 0)
(1.06788 0.0275097 0)
(1.07557 0.0273842 0)
(1.08276 0.0264639 0)
(1.07343 0.0250293 0)
(0.994583 0.02098 0)
(0.776395 0.0127699 0)
(0.449353 0.00424349 0)
(0.137056 0.000671609 0)
(0.197957 0.000653269 0)
(0.555411 0.00232537 0)
(0.872056 0.00356599 0)
(1.06295 0.00344357 0)
(1.12286 0.00596519 0)
(1.12323 0.00961544 0)
(1.10909 0.0138377 0)
(1.09563 0.0184889 0)
(1.08387 0.0232435 0)
(1.07371 0.0273546 0)
(1.06628 0.0297257 0)
(1.06327 0.0306551 0)
(1.06576 0.0306681 0)
(1.07339 0.0298477 0)
(1.08014 0.0292127 0)
(1.06664 0.0268828 0)
(0.977313 0.0219271 0)
(0.750088 0.013106 0)
(0.428036 0.00446125 0)
(0.127935 0.000720353 0)
(0.204603 0.000860357 0)
(0.562914 0.00358164 0)
(0.876254 0.00611492 0)
(1.06753 0.00783461 0)
(1.12893 0.0111725 0)
(1.12985 0.0150014 0)
(1.11534 0.0197634 0)
(1.10075 0.0247176 0)
(1.08742 0.0297283 0)
(1.07537 0.0342055 0)
(1.06725 0.0369754 0)
(1.06486 0.0375859 0)
(1.06677 0.0366439 0)
(1.07317 0.0349848 0)
(1.077 0.0323361 0)
(1.05908 0.0292106 0)
(0.961638 0.0234384 0)
(0.726959 0.0137786 0)
(0.40853 0.00484147 0)
(0.119012 0.00078857 0)
(0.212985 0.00101179 0)
(0.5744 0.00489273 0)
(0.884542 0.00937007 0)
(1.07416 0.0124039 0)
(1.13615 0.0164682 0)
(1.13756 0.0215178 0)
(1.12195 0.0271131 0)
(1.10611 0.0326728 0)
(1.09123 0.0379575 0)
(1.07745 0.0421532 0)
(1.06686 0.0437491 0)
(1.06118 0.0427675 0)
(1.0616 0.0409435 0)
(1.0679 0.0383268 0)
(1.07199 0.0364189 0)
(1.04922 0.0321605 0)
(0.940272 0.0250898 0)
(0.697678 0.014577 0)
(0.385008 0.00523911 0)
(0.108491 0.000826984 0)
(0.225775 0.001392 0)
(0.594021 0.00697385 0)
(0.900591 0.0141649 0)
(1.08491 0.0193058 0)
(1.14528 0.0244116 0)
(1.1466 0.0297103 0)
(1.13003 0.0361212 0)
(1.11261 0.0423577 0)
(1.09568 0.0480809 0)
(1.07928 0.0522022 0)
(1.06667 0.0535548 0)
(1.06157 0.0524018 0)
(1.06207 0.0494924 0)
(1.06651 0.0458997 0)
(1.06536 0.041313 0)
(1.03674 0.0357215 0)
(0.919492 0.0274454 0)
(0.671248 0.0159229 0)
(0.3628 0.00585738 0)
(0.0980549 0.000866668 0)
(0.24186 0.00197945 0)
(0.618998 0.00876051 0)
(0.922224 0.0186951 0)
(1.09937 0.0260134 0)
(1.15639 0.032398 0)
(1.15754 0.0394398 0)
(1.13921 0.0469206 0)
(1.12011 0.0539368 0)
(1.10125 0.0600375 0)
(1.08282 0.0639773 0)
(1.06731 0.0639756 0)
(1.05762 0.0609229 0)
(1.05402 0.0561353 0)
(1.05745 0.0514042 0)
(1.05765 0.0470333 0)
(1.02273 0.0404056 0)
(0.892671 0.03036 0)
(0.637213 0.0177638 0)
(0.334665 0.00652214 0)
(0.0854691 0.000873928 0)
(0.264315 0.002836 0)
(0.653339 0.0125197 0)
(0.951152 0.0252972 0)
(1.11832 0.0353116 0)
(1.17033 0.0433613 0)
(1.16991 0.0517 0)
(1.14947 0.060297 0)
(1.12763 0.0683461 0)
(1.10553 0.0750309 0)
(1.08325 0.0788083 0)
(1.06464 0.0781281 0)
(1.05463 0.0741516 0)
(1.0527 0.0687349 0)
(1.05459 0.0627052 0)
(1.0471 0.0552445 0)
(1.00408 0.046402 0)
(0.865025 0.0346238 0)
(0.604633 0.0203341 0)
(0.306548 0.00737942 0)
(0.0728058 0.000877348 0)
(0.295979 0.00372265 0)
(0.699619 0.0156628 0)
(0.990083 0.0332858 0)
(1.14332 0.0466367 0)
(1.18709 0.0568012 0)
(1.1843 0.0677518 0)
(1.16016 0.0779151 0)
(1.13496 0.0866227 0)
(1.10939 0.0930108 0)
(1.084 0.0956581 0)
(1.06251 0.0931808 0)
(1.04848 0.08726 0)
(1.04129 0.0794638 0)
(1.04009 0.0712391 0)
(1.03416 0.0639528 0)
(0.983367 0.0537909 0)
(0.829376 0.0395234 0)
(0.560945 0.0232972 0)
(0.269743 0.00812708 0)
(0.0574148 0.000857164 0)
(0.332572 0.00716223 0)
(0.758108 0.024798 0)
(1.03795 0.0464188 0)
(1.17396 0.063754 0)
(1.2084 0.0763433 0)
(1.20053 0.0897685 0)
(1.17181 0.10087 0)
(1.14232 0.109867 0)
(1.1122 0.115711 0)
(1.08184 0.116951 0)
(1.05617 0.112172 0)
(1.04082 0.103952 0)
(1.03534 0.0946174 0)
(1.03469 0.0855123 0)
(1.01831 0.0750329 0)
(0.956274 0.0616891 0)
(0.791468 0.0452785 0)
(0.51751 0.0263971 0)
(0.233625 0.00882318 0)
(0.0426733 0.000724954 0)
(0.413198 0.0108448 0)
(0.845328 0.0359081 0)
(1.10257 0.0671024 0)
(1.2124 0.0891413 0)
(1.23334 0.104075 6.61813e-34)
(1.21877 0.119811 -2.9688e-34)
(1.18401 0.130994 0)
(1.14982 0.138738 0)
(1.11527 0.142365 0)
(1.08095 0.140235 0)
(1.05223 0.132525 0)
(1.03316 0.121577 0)
(1.02218 0.109994 0)
(1.01518 0.0975576 0)
(0.998963 0.0861031 0)
(0.926457 0.0712443 0)
(0.743069 0.0513236 0)
(0.458756 0.0291376 0)
(0.185184 0.00865046 0)
(0.0250029 0.00070282 0)
(0.48474 0.026075 4.97063e-20)
(0.946591 0.0596388 -3.76015e-20)
(1.17087 0.100824 0)
(1.25181 0.126586 2.88455e-20)
(1.26067 0.142143 -2.33876e-20)
(1.2362 0.159639 3.13232e-34)
(1.19458 0.168923 0)
(1.15481 0.174642 1.65377e-20)
(1.11435 0.175971 -5.42376e-20)
(1.07443 0.171708 1.1047e-20)
(1.04065 0.160525 0)
(1.01915 0.145931 -2.7898e-20)
(1.00926 0.131762 -3.33794e-20)
(1.00392 0.119099 5.83647e-20)
(0.971659 0.104113 -4.61036e-20)
(0.878177 0.0838351 0)
(0.674764 0.0592168 -1.66696e-20)
(0.383619 0.0307924 0)
(0.132326 0.00894984 -9.1811e-20)
(0.00742976 0.000750159 1.08225e-19)
(0.520396 0.0537998 -6.507e-21)
(1.01005 0.102563 1.14465e-19)
(1.22046 0.151175 -6.93563e-21)
(1.28494 0.174416 -7.25152e-20)
(1.28451 0.191531 -4.95692e-20)
(1.25093 0.206931 8.05995e-20)
(1.20323 0.213608 0)
(1.15801 0.216916 0)
(1.11269 0.215495 8.6463e-20)
(1.06796 0.207077 0)
(1.02948 0.191993 1.01088e-19)
(1.00335 0.176151 2.99333e-20)
(0.986537 0.160436 3.66802e-22)
(0.96853 0.143866 -6.37869e-20)
(0.935906 0.127485 0)
(0.833065 0.104867 0)
(0.616461 0.0715713 -2.72877e-19)
(0.332491 0.0367617 6.84503e-19)
(0.109174 0.0103534 -4.0576e-19)
(-0.000728891 0.000431338 -4.78122e-19)
(0.527645 0.0763433 -6.79642e-20)
(1.04643 0.159473 2.56673e-20)
(1.25647 0.211182 1.36586e-20)
(1.31132 0.232992 1.26802e-19)
(1.30332 0.248662 1.43026e-20)
(1.26215 0.260021 -2.10563e-19)
(1.20866 0.262934 7.15307e-20)
(1.15742 0.262984 0)
(1.10515 0.25827 -1.83179e-19)
(1.05305 0.24702 1.62036e-19)
(1.00949 0.231237 -2.72921e-19)
(0.979801 0.210717 1.27871e-19)
(0.963007 0.193398 -8.28042e-20)
(0.95101 0.177222 1.86474e-19)
(0.905899 0.157299 0)
(0.794625 0.126515 -6.83152e-20)
(0.584635 0.0862912 0)
(0.322572 0.0436596 3.7754e-19)
(0.109215 0.0147108 -8.95047e-19)
(0.000868696 -0.00017051 5.60656e-19)
(0.522383 0.108226 1.96972e-19)
(1.06641 0.216424 -8.56783e-20)
(1.27839 0.276744 -1.79636e-20)
(1.32865 0.297889 0)
(1.31537 0.311182 -9.34717e-20)
(1.26871 0.317136 1.15143e-19)
(1.21054 0.315256 -7.65788e-20)
(1.15455 0.31142 0)
(1.09826 0.302548 1.30232e-19)
(1.04403 0.287688 -1.13915e-19)
(0.996265 0.265608 2.36754e-19)
(0.961999 0.245362 0)
(0.938694 0.226556 -1.76048e-19)
(0.912317 0.206046 9.91919e-20)
(0.872515 0.184277 2.50537e-19)
(0.768009 0.153741 -2.20448e-19)
(0.569462 0.10807 3.51756e-19)
(0.324294 0.0586056 -7.78589e-19)
(0.121975 0.0216088 4.91639e-19)
(0.00850788 0.00130436 -6.15038e-19)
(0.510294 0.132569 -7.30694e-20)
(1.0735 0.270315 5.25212e-20)
(1.28947 0.342327 -5.95417e-20)
(1.33812 0.363109 1.16251e-19)
(1.32121 0.374223 -1.08361e-19)
(1.27076 0.375455 3.6648e-20)
(1.20896 0.369168 3.64954e-21)
(1.14876 0.361172 -1.48599e-19)
(1.08764 0.348504 -1.36709e-19)
(1.02585 0.329928 -2.44851e-19)
(0.971831 0.306419 -5.08986e-19)
(0.935322 0.283343 -1.56624e-19)
(0.912296 0.261732 2.40634e-21)
(0.894059 0.241948 -3.39966e-19)
(0.845777 0.21892 -6.19213e-21)
(0.739765 0.179594 3.20871e-19)
(0.554029 0.128746 -9.69689e-20)
(0.327426 0.0741535 -5.62741e-20)
(0.135045 0.030384 0)
(0.016577 0.0037708 1.30805e-18)
(0.49348 0.15332 0)
(1.06789 0.320236 -6.38184e-21)
(1.29201 0.405826 -1.13e-20)
(1.34083 0.42719 -1.27414e-20)
(1.32128 0.436983 1.05637e-19)
(1.26814 0.4337 -8.50134e-20)
(1.20351 0.423071 8.37604e-20)
(1.13992 0.411176 2.4375e-19)
(1.07526 0.39447 -7.59729e-20)
(1.0113 0.371431 1.21506e-19)
(0.956887 0.344711 2.73556e-19)
(0.916296 0.318982 3.41285e-19)
(0.885126 0.296816 -2.05336e-19)
(0.855035 0.271918 3.67758e-19)
(0.813856 0.246312 -2.91348e-19)
(0.719556 0.209548 0)
(0.549481 0.153416 -7.35738e-19)
(0.337043 0.0931984 9.90263e-19)
(0.15003 0.0415439 7.39108e-20)
(0.0251591 0.00719473 -1.38148e-18)
(0.479052 0.173627 -5.13638e-21)
(1.06 0.368575 1.94796e-20)
(1.28978 0.466841 8.26767e-20)
(1.33887 0.489001 -1.03394e-19)
(1.31708 0.497486 8.63448e-20)
(1.2619 0.49039 -8.28367e-20)
(1.19519 0.476234 1.66484e-19)
(1.12923 0.46056 -7.36358e-20)
(1.06218 0.440095 -3.06755e-19)
(0.995273 0.414183 2.91026e-23)
(0.934596 0.384386 -2.96999e-19)
(0.889927 0.355044 -3.66587e-19)
(0.861115 0.327509 2.26434e-19)
(0.836979 0.306281 -1.32227e-19)
(0.78926 0.2789 3.16166e-19)
(0.694891 0.234128 0)
(0.536249 0.176718 -4.55897e-19)
(0.339612 0.110874 6.73278e-19)
(0.159831 0.0526402 1.2757e-18)
(0.0314872 0.0106415 -1.50072e-18)
(0.464598 0.191129 -2.97002e-20)
(1.04699 0.412872 8.43517e-21)
(1.28301 0.524298 -5.93521e-20)
(1.33286 0.548059 1.07253e-19)
(1.30929 0.555941 1.18134e-20)
(1.2527 0.545296 -1.6298e-19)
(1.18448 0.527611 -9.6023e-20)
(1.11657 0.508466 -9.32135e-20)
(1.04653 0.484318 -1.72512e-19)
(0.975189 0.454477 2.77953e-19)
(0.911955 0.419244 3.00649e-19)
(0.867366 0.387064 5.81751e-19)
(0.834437 0.361886 0)
(0.801453 0.333149 6.15866e-21)
(0.76027 0.303169 -8.66898e-19)
(0.677384 0.263711 2.02073e-19)
(0.530466 0.200723 9.83884e-19)
(0.343936 0.130247 -2.90244e-19)
(0.167766 0.0638184 6.04897e-19)
(0.0362273 0.0140631 -5.04646e-20)
(0.454972 0.20957 5.90578e-21)
(1.03581 0.456154 3.2159e-20)
(1.27424 0.579488 -2.92698e-20)
(1.32421 0.604593 1.25463e-19)
(1.29913 0.611389 -1.80983e-19)
(1.24141 0.597573 1.62377e-19)
(1.17199 0.577165 9.94296e-20)
(1.10246 0.555113 2.79299e-19)
(1.0307 0.528155 3.47404e-19)
(0.95847 0.495322 -3.19573e-19)
(0.895872 0.457948 0)
(0.845888 0.423782 -2.19355e-19)
(0.809767 0.391853 2.51842e-19)
(0.784308 0.363932 3.17193e-19)
(0.737982 0.334314 -1.83336e-19)
(0.654058 0.285331 -4.47659e-19)
(0.515035 0.222812 -1.33725e-19)
(0.339783 0.146124 -1.5201e-21)
(0.169257 0.0730372 0)
(0.0384225 0.0164762 0)
(0.446567 0.225315 -5.88113e-20)
(1.02295 0.495884 0)
(1.26309 0.630893 -1.52692e-20)
(1.31326 0.658017 -6.73612e-21)
(1.28702 0.664259 2.0342e-19)
(1.22851 0.647645 -5.20743e-20)
(1.1581 0.624524 1.00838e-19)
(1.08729 0.599595 -1.89311e-19)
(1.01391 0.569401 2.63064e-19)
(0.938476 0.532443 -1.04014e-19)
(0.868753 0.490963 1.71699e-19)
(0.818247 0.451816 6.94892e-19)
(0.785694 0.42001 1.40518e-20)
(0.74862 0.388511 -3.30592e-19)
(0.70992 0.353629 6.11981e-19)
(0.63462 0.312299 4.22764e-21)
(0.503841 0.242649 1.43066e-19)
(0.333409 0.160733 -6.8271e-19)
(0.165223 0.0801624 7.01909e-19)
(0.0381123 0.0178238 -8.28817e-19)
(0.439827 0.243224 3.03232e-23)
(1.01142 0.534506 0)
(1.25128 0.680034 0)
(1.30105 0.708871 -7.86176e-21)
(1.27379 0.714038 -6.16874e-20)
(1.21459 0.694848 7.67894e-20)
(1.14363 0.669631 -1.89536e-19)
(1.0721 0.642388 0)
(0.997225 0.61015 -3.8763e-19)
(0.919902 0.571617 4.6207e-19)
(0.851548 0.52791 4.87773e-19)
(0.801589 0.484481 -2.55049e-19)
(0.758821 0.447394 -3.07839e-19)
(0.73274 0.415091 7.21423e-19)
(0.687884 0.382184 -2.17308e-19)
(0.611332 0.327995 -2.5961e-19)
(0.485581 0.259901 -1.5549e-19)
(0.324076 0.172015 -7.35846e-19)
(0.159711 0.0845179 1.06989e-19)
(0.0362433 0.0187429 8.93694e-19)
(0.435492 0.26161 -3.12008e-20)
(0.99997 0.570463 -3.91666e-20)
(1.23834 0.72559 2.36385e-20)
(1.2877 0.756579 -1.43863e-22)
(1.25968 0.761217 -5.86779e-20)
(1.20009 0.739761 1.27196e-19)
(1.12861 0.712414 0)
(1.05608 0.682982 1.13627e-19)
(0.979604 0.648145 -8.95959e-20)
(0.900603 0.605887 7.69418e-19)
(0.827217 0.556585 -1.1141e-19)
(0.770113 0.510386 1.26371e-19)
(0.735827 0.472349 0)
(0.697708 0.436422 -3.90414e-19)
(0.660048 0.3964 4.72382e-19)
(0.591324 0.350914 0)
(0.471554 0.273632 -3.35394e-19)
(0.311344 0.181497 9.85961e-19)
(0.15142 0.0868731 1.16233e-19)
(0.0330574 0.0188809 -1.09972e-18)
(0.433088 0.27853 -8.17167e-20)
(0.990103 0.605272 1.04945e-19)
(1.22543 0.769021 0)
(1.274 0.801751 2.28362e-21)
(1.24527 0.805458 0)
(1.18523 0.78192 -1.61451e-19)
(1.1134 0.752921 0)
(1.04029 0.721689 0)
(0.962786 0.685273 -1.17585e-19)
(0.881428 0.641811 -7.31159e-19)
(0.806543 0.591476 -9.00658e-19)
(0.751279 0.541307 1.47407e-19)
(0.708183 0.496716 5.31093e-19)
(0.681092 0.458251 4.29427e-19)
(0.639008 0.421186 -1.51542e-18)
(0.567774 0.360797 -6.0884e-19)
(0.449998 0.285501 3.56336e-19)
(0.296665 0.186219 0)
(0.141991 0.0874593 9.99194e-19)
(0.029494 0.0180981 -1.18446e-18)
(0.431464 0.294203 9.98764e-20)
(0.980136 0.63747 -1.23834e-19)
(1.21213 0.809101 0)
(1.25986 0.843821 -1.09334e-20)
(1.23054 0.847197 4.99255e-21)
(1.17032 0.821931 0)
(1.09823 0.791276 5.78368e-20)
(1.02447 0.75834 7.80045e-20)
(0.945657 0.720146 -2.21763e-19)
(0.862571 0.673715 9.7078e-20)
(0.784369 0.618337 0)
(0.723284 0.565097 6.10301e-19)
(0.684266 0.519792 4.81199e-21)
(0.645679 0.476608 2.3158e-19)
(0.61033 0.429152 2.75052e-19)
(0.546091 0.378926 0)
(0.433693 0.292591 -5.83347e-19)
(0.280917 0.189628 1.14538e-18)
(0.132035 0.0864624 -1.21117e-18)
(0.0258699 0.0169589 2.55033e-18)
(0.430254 0.3091 0)
(0.971204 0.668694 0)
(1.19934 0.847219 -5.9273e-20)
(1.24592 0.883573 0)
(1.21604 0.886224 0)
(1.15555 0.859353 -1.3609e-19)
(1.08336 0.827451 5.91936e-20)
(1.00922 0.793177 1.75324e-20)
(0.929348 0.753756 -5.08852e-20)
(0.843569 0.706461 0)
(0.76235 0.65065 -1.36714e-19)
(0.701157 0.594287 -4.97724e-19)
(0.654611 0.540809 -5.9889e-19)
(0.627833 0.494039 -2.40542e-19)
(0.588197 0.450362 2.98135e-19)
(0.522156 0.381287 -7.03058e-19)
(0.410315 0.298107 1.25518e-18)
(0.264458 0.188532 2.85068e-21)
(0.122036 0.0842489 -1.16217e-18)
(0.0227306 0.0155728 -1.72011e-19)
(0.429121 0.323645 0)
(0.962371 0.697928 -1.0245e-19)
(1.18659 0.882368 7.38822e-20)
(1.23196 0.920429 0)
(1.20161 0.92292 0)
(1.14109 0.894804 2.73982e-19)
(1.06886 0.861664 0)
(0.994146 0.82606 0)
(0.912874 0.78536 -4.8557e-19)
(0.825593 0.736193 1.33383e-19)
(0.742148 0.676735 -1.21231e-18)
(0.675109 0.616098 0)
(0.631152 0.562755 -6.48933e-19)
(0.59007 0.510209 1.07018e-20)
(0.556944 0.451241 -9.57196e-19)
(0.498719 0.393032 3.78419e-19)
(0.394405 0.296653 1.85241e-21)
(0.250639 0.186035 -1.32235e-18)
(0.113945 0.0809053 6.26859e-19)
(0.0195962 0.013951 1.84035e-19)
(0.428135 0.337841 0)
(0.954513 0.726298 -1.45732e-19)
(1.17453 0.915917 7.81797e-20)
(1.21852 0.955316 9.29212e-20)
(1.18769 0.95717 -1.62893e-20)
(1.12703 0.927825 2.7664e-20)
(1.05479 0.893802 -3.66179e-20)
(0.979704 0.857262 4.70057e-19)
(0.897428 0.81565 5.19423e-19)
(0.807645 0.765798 1.01708e-18)
(0.720493 0.706467 1.00732e-18)
(0.651427 0.644112 1.76727e-19)
(0.598449 0.582871 9.33636e-19)
(0.569872 0.524376 5.7588e-19)
(0.532024 0.468582 6.87205e-19)
(0.473462 0.385027 -4.14497e-19)
(0.370967 0.292219 -4.83138e-19)
(0.238233 0.175255 5.66211e-19)
(0.109644 0.079927 -3.35972e-19)
(0.0217575 0.0189325 5.95584e-19)
(0.427207 0.35163 2.07491e-19)
(0.946864 0.752813 2.27853e-19)
(1.16262 0.946851 4.61252e-20)
(1.20527 0.987552 1.62794e-20)
(1.17404 0.989295 1.92003e-20)
(1.11343 0.959065 -7.62027e-20)
(1.04123 0.924156 3.54455e-20)
(0.965723 0.88665 -2.04656e-20)
(0.882475 0.844248 -6.03659e-19)
(0.791656 0.793542 -1.10342e-18)
(0.702058 0.732229 6.99748e-20)
(0.627134 0.666511 0)
(0.576004 0.604964 0)
(0.528266 0.540579 -3.00062e-19)
(0.494868 0.462201 -1.12345e-18)
(0.444919 0.3874 8.92858e-19)
(0.359979 0.270987 5.28994e-19)
(0.244326 0.157321 0)
(0.122176 0.0549728 1.07154e-18)
(0.0153015 -0.006287 -6.3665e-19)
(0.426412 0.36481 -1.09965e-19)
(0.939917 0.778274 9.75097e-20)
(1.15137 0.976415 -1.12171e-19)
(1.19264 1.01814 -8.72975e-20)
(1.16101 1.01926 -9.20703e-21)
(1.10036 0.988059 -2.42584e-20)
(1.02828 0.952573 0)
(0.952633 0.914516 -5.90335e-19)
(0.868591 0.871558 7.43529e-20)
(0.775105 0.820421 0)
(0.681163 0.759057 0)
(0.603863 0.693663 1.12304e-19)
(0.540533 0.625695 1.50715e-19)
(0.504358 0.553354 -3.23758e-19)
(0.463479 0.478725 8.06605e-19)
(0.410107 0.364994 -9.72878e-19)
(0.327932 0.249623 -1.13158e-18)
(0.246385 0.135518 1.0014e-18)
(0.17424 0.0933663 -3.81973e-19)
(0.113159 0.0806751 2.22382e-19)
(0.425514 0.377229 1.39521e-19)
(0.933061 0.801934 0)
(1.14029 1.00355 0)
(1.18026 1.04625 -2.33694e-20)
(1.14835 1.04729 1.89186e-20)
(1.08785 1.01547 -2.08995e-20)
(1.01598 0.979394 1.55491e-19)
(0.940076 0.940692 6.04877e-19)
(0.855212 0.897267 1.09454e-18)
(0.76086 0.84586 -8.27626e-20)
(0.6656 0.784462 1.70715e-19)
(0.581798 0.717486 -1.00399e-18)
(0.519241 0.649634 -9.98256e-19)
(0.457972 0.573705 -1.7353e-19)
(0.41233 0.468497 0)
(0.366175 0.368438 -8.20991e-21)
(0.300601 0.184288 6.22271e-19)
(0.268224 0.0343822 -1.04879e-18)
(0.229554 -0.0829122 7.97464e-19)
(0.0830962 -0.0968088 6.619e-19)
(0.424612 0.389176 -3.08828e-19)
(0.926615 0.824535 -1.3987e-19)
(1.12976 1.02962 6.97743e-21)
(1.16845 1.0732 5.30799e-20)
(1.13621 1.0737 0)
(1.07574 1.04119 -8.42069e-20)
(1.00406 1.00486 -2.22648e-19)
(0.928096 0.966007 -1.32443e-21)
(0.842461 0.922416 -5.7359e-19)
(0.745622 0.87097 -8.11606e-20)
(0.645878 0.810036 7.53836e-20)
(0.558604 0.74483 8.81819e-19)
(0.481327 0.673684 9.74382e-19)
(0.429782 0.588517 1.68737e-19)
(0.37433 0.496039 8.63315e-19)
(0.295401 0.3382 0)
(0.179003 0.170629 0)
(0.00825064 0.213423 7.24053e-19)
(-0.0772209 0.629556 -3.05397e-20)
(0.00607474 1.53362 -8.8841e-19)
(0.423552 0.400492 1.709e-19)
(0.920313 0.84575 3.90028e-19)
(1.11936 1.05372 -5.30838e-19)
(1.1568 1.0982 2.6165e-19)
(1.12427 1.09887 -4.87919e-21)
(1.06396 1.06616 -3.8894e-20)
(0.992462 1.02969 0)
(0.916198 0.990706 -5.04469e-19)
(0.829853 0.947305 0)
(0.73252 0.896562 1.14488e-18)
(0.631542 0.837085 -9.13278e-20)
(0.537651 0.772673 1.02404e-19)
(0.462034 0.704416 1.11249e-18)
(0.376121 0.625346 -3.65528e-19)
(0.282773 0.495208 -4.39854e-19)
(0.200171 0.395235 0)
(0.0911794 0.515174 0)
(0.0269933 1.32062 0)
(0.0730135 2.45866 -4.11471e-19)
(0.100919 2.90857 -2.52875e-19)
(0.422344 0.41123 0)
(0.9143 0.865849 0)
(1.1095 1.07696 1.94085e-19)
(1.14576 1.12236 -2.11945e-19)
(1.11289 1.12273 8.9421e-20)
(1.05257 1.08968 4.47228e-20)
(0.981239 1.05338 2.85074e-20)
(0.904975 1.01482 -2.21954e-20)
(0.818112 0.971982 8.06083e-20)
(0.718291 0.921934 -1.31389e-18)
(0.612153 0.863237 1.65751e-19)
(0.515565 0.802561 8.78475e-19)
(0.4212 0.736099 -1.10864e-18)
(0.346102 0.64393 -1.21347e-18)
(0.268225 0.557515 4.08934e-19)
(0.193548 0.688831 0)
(0.125055 1.54829 5.68782e-19)
(0.125453 2.69035 6.27075e-19)
(0.133572 3.08693 -7.0127e-19)
(0.124963 3.22171 7.55332e-19)
(0.420986 0.421599 0)
(0.908484 0.884684 3.47881e-19)
(1.09982 1.0983 -4.85797e-20)
(1.13494 1.14457 3.01479e-19)
(1.10178 1.14535 -9.38619e-20)
(1.04162 1.11246 0)
(0.970469 1.0764 0)
(0.893979 1.03812 0)
(0.806533 0.996069 4.55757e-19)
(0.706363 0.947535 6.07896e-20)
(0.599906 0.892038 0)
(0.496427 0.834097 -8.73982e-19)
(0.410617 0.77249 0)
(0.296237 0.695046 8.68708e-19)
(0.206887 0.763414 -5.84348e-19)
(0.157326 1.46027 -4.70637e-19)
(0.159515 2.67843 -1.1061e-18)
(0.180902 3.1267 -5.8384e-19)
(0.171725 3.26784 -7.96049e-19)
(0.157546 3.30819 6.08911e-19)
(0.419581 0.431103 -1.21936e-19)
(0.902874 0.902363 1.53863e-20)
(1.09069 1.11895 -5.42872e-20)
(1.12477 1.16622 -2.32268e-19)
(1.09125 1.16688 0)
(1.03109 1.13391 0)
(0.960086 1.09832 0)
(0.883686 1.06088 3.5097e-20)
(0.795914 1.0199 -5.75945e-19)
(0.693654 0.972778 0)
(0.582777 0.918807 0)
(0.480262 0.865031 0)
(0.367828 0.805448 0)
(0.305917 0.78642 6.3381e-19)
(0.272719 1.17 1.55876e-18)
(0.252147 2.37825 4.62577e-19)
(0.264815 3.0831 9.34639e-19)
(0.25926 3.28418 -7.16705e-19)
(0.21021 3.35014 2.65639e-19)
(0.177466 3.36278 0)
(0.418066 0.440325 1.25701e-19)
(0.897311 0.919434 -7.74955e-19)
(1.08148 1.13836 -2.07446e-19)
(1.11455 1.18649 -4.5289e-20)
(1.08078 1.18778 2.1748e-20)
(1.02082 1.15523 -6.53651e-20)
(0.950033 1.12014 -4.20581e-21)
(0.873478 1.08324 -3.95533e-19)
(0.785251 1.04343 0)
(0.68311 0.99854 -7.66084e-20)
(0.572893 0.949035 6.969e-20)
(0.462532 0.898768 0)
(0.375238 0.855243 0)
(0.319961 0.971955 -7.92791e-19)
(0.276441 1.85433 9.74725e-20)
(0.272207 2.94196 -3.47116e-19)
(0.294013 3.28854 7.24774e-19)
(0.266701 3.38733 5.27337e-19)
(0.200742 3.41186 -7.17891e-19)
(0.175827 3.42126 3.56536e-19)
(0.416195 0.449721 2.47924e-19)
(0.891275 0.936748 7.56924e-19)
(1.072 1.15887 2.48712e-19)
(1.10418 1.20806 0)
(1.07011 1.20921 0)
(1.01023 1.17659 5.13251e-20)
(0.939694 1.142 7.74533e-20)
(0.863417 1.10609 3.52912e-19)
(0.775235 1.06755 2.27493e-20)
(0.671637 1.0245 9.82793e-19)
(0.558233 0.97673 -1.15493e-18)
(0.44812 0.928282 0)
(0.370028 0.925675 0)
(0.336014 1.33647 -5.39963e-19)
(0.337567 2.48344 -6.49378e-19)
(0.380516 3.19843 0)
(0.405089 3.37118 -7.32427e-19)
(0.335243 3.43409 4.9007e-20)
(0.265215 3.47868 3.45846e-19)
(0.242472 3.50402 -1.14485e-19)
(0.413966 0.459531 -4.72317e-19)
(0.884691 0.955153 -3.63833e-19)
(1.06148 1.17968 0)
(1.09273 1.22955 0)
(1.05855 1.23137 0)
(0.999052 1.19912 0)
(0.928964 1.16496 -9.03703e-20)
(0.85279 1.12942 3.12352e-19)
(0.764536 1.09204 0)
(0.661957 1.05152 -8.95055e-19)
(0.550625 1.00895 2.07235e-18)
(0.44118 0.973692 8.44136e-20)
(0.388478 1.05491 1.1162e-19)
(0.388469 1.74954 8.80785e-19)
(0.403747 2.899 -4.73345e-19)
(0.441194 3.32149 0)
(0.42422 3.4455 2.04729e-19)
(0.338439 3.53367 9.24527e-20)
(0.261957 3.59781 1.51029e-19)
(0.186653 3.57729 -1.20241e-20)
(0.411166 0.46975 2.25044e-19)
(0.87709 0.974156 -3.73156e-19)
(1.05026 1.20236 0)
(1.08073 1.25319 -6.60903e-20)
(1.04635 1.25458 2.25509e-19)
(0.987104 1.22195 0)
(0.917517 1.18805 0)
(0.842004 1.15343 -5.4305e-19)
(0.754393 1.11719 -5.76509e-20)
(0.651131 1.0785 8.78288e-19)
(0.535266 1.03712 -9.84708e-19)
(0.445449 1.01691 5.7276e-19)
(0.407918 1.23236 0)
(0.42534 2.18233 -4.67141e-19)
(0.46823 3.14504 3.06262e-19)
(0.531156 3.42546 1.91431e-19)
(0.523672 3.5224 0)
(0.460282 3.60464 -3.87392e-20)
(0.389588 3.64614 -4.16199e-19)
(0.308549 3.61743 -9.71022e-20)
(0.407846 0.480275 -4.50084e-19)
(0.868858 0.994691 5.34745e-19)
(1.03777 1.22526 3.68397e-19)
(1.0674 1.2764 -9.11832e-20)
(1.03306 1.27841 -3.45106e-19)