/*--------------------------------*- C++ -*----------------------------------*\
  =========                 |
  \\      /  F ield         | OpenFOAM: The Open Source CFD Toolbox
   \\    /   O peration     | Website:  https://openfoam.org
    \\  /    A nd           | Version:  9
     \\/     M anipulation  |
\*---------------------------------------------------------------------------*/
FoamFile
{
    format      ascii;
    class       volScalarField;
    location    "13";
    object      p;
}
// * * * * * * * * * * * * * * * * * * * * * * * * * * * * * * * * * * * * * //

dimensions      [0 2 -2 0 0 0 0];

internalField   nonuniform List<scalar> 
2200
(
0.428221
0.406761
0.390943
0.375351
0.360901
0.348673
0.338577
0.330683
0.325127
0.322191
0.32245
0.325824
0.331701
0.339834
0.3501
0.362451
0.376984
0.392625
0.408473
0.429948
0.360546
0.357312
0.354506
0.35055
0.345329
0.339057
0.332643
0.32695
0.322616
0.320247
0.320476
0.323339
0.328021
0.333968
0.34056
0.346949
0.352253
0.356272
0.359118
0.362365
0.320178
0.320541
0.322902
0.324611
0.3254
0.324807
0.323054
0.320548
0.318066
0.316474
0.316772
0.318892
0.321752
0.32453
0.326475
0.327204
0.326514
0.324872
0.322558
0.322215
0.297276
0.298841
0.301822
0.304676
0.307494
0.309891
0.311485
0.312033
0.311823
0.311382
0.311762
0.312763
0.313392
0.31316
0.311801
0.309569
0.306874
0.304102
0.301173
0.299623
0.283148
0.285045
0.288084
0.29119
0.294288
0.297349
0.30014
0.302351
0.303894
0.304746
0.305133
0.304954
0.303965
0.302128
0.299605
0.29673
0.293758
0.290744
0.28777
0.285881
0.277031
0.278416
0.280847
0.283858
0.286875
0.289693
0.292114
0.294347
0.296327
0.297777
0.298237
0.297641
0.29635
0.294591
0.292465
0.289859
0.286984
0.28406
0.281682
0.280302
0.276369
0.277126
0.278693
0.281256
0.283976
0.286409
0.288425
0.2903
0.291949
0.293238
0.293809
0.293535
0.292666
0.291384
0.289763
0.287623
0.285102
0.282663
0.281143
0.280399
0.277717
0.278034
0.278871
0.280553
0.282493
0.284403
0.286179
0.287853
0.28929
0.290451
0.291136
0.291147
0.290608
0.289679
0.288474
0.286951
0.285271
0.283761
0.282992
0.282668
0.277776
0.27786
0.278169
0.278896
0.279852
0.281016
0.282412
0.283934
0.28541
0.286746
0.287667
0.287894
0.287599
0.286938
0.28619
0.285447
0.284766
0.284225
0.283995
0.28392
0.275389
0.275415
0.275495
0.275765
0.276202
0.276817
0.277744
0.278982
0.280398
0.281895
0.283133
0.28378
0.283864
0.283677
0.283429
0.28328
0.28316
0.283093
0.283102
0.283072
0.272052
0.272006
0.272133
0.272404
0.272835
0.273394
0.274169
0.275203
0.276502
0.278045
0.279503
0.280577
0.281176
0.281499
0.28164
0.281701
0.281686
0.281667
0.281679
0.281689
0.268644
0.268647
0.268797
0.269149
0.269659
0.270345
0.271265
0.272412
0.27384
0.275565
0.277292
0.278681
0.279687
0.280216
0.28055
0.280711
0.280739
0.280726
0.280725
0.280729
0.264947
0.264973
0.265093
0.265381
0.265892
0.266599
0.267612
0.26896
0.270694
0.272823
0.275039
0.276798
0.278075
0.278892
0.279413
0.279726
0.279898
0.279992
0.28004
0.280039
0.260476
0.260473
0.260628
0.260901
0.261373
0.262096
0.263176
0.264698
0.266762
0.269401
0.272266
0.274604
0.276251
0.277415
0.278211
0.278742
0.279089
0.279307
0.279416
0.279418
0.255291
0.255283
0.255473
0.255803
0.256341
0.257191
0.258452
0.260256
0.262747
0.266001
0.269611
0.272647
0.274803
0.276382
0.277455
0.278174
0.278639
0.278922
0.279059
0.279063
0.249336
0.249332
0.249556
0.250029
0.250763
0.251851
0.253439
0.255689
0.258785
0.262844
0.26736
0.271198
0.274008
0.276005
0.277343
0.278243
0.278823
0.27917
0.279333
0.279332
0.242691
0.242695
0.24297
0.243523
0.244427
0.245799
0.247808
0.250658
0.254567
0.25968
0.265354
0.270175
0.273709
0.276173
0.277852
0.278971
0.279687
0.280109
0.280305
0.280303
0.234826
0.234835
0.23521
0.23594
0.237102
0.238841
0.241376
0.244973
0.24991
0.256355
0.263469
0.269486
0.273873
0.276946
0.279051
0.280459
0.281374
0.281926
0.282183
0.282178
0.225654
0.225658
0.226108
0.226995
0.22846
0.230695
0.23395
0.238556
0.244828
0.252956
0.261851
0.269334
0.274774
0.278595
0.281212
0.282957
0.284079
0.284741
0.285044
0.285034
0.214437
0.214475
0.215117
0.216332
0.21826
0.221151
0.225347
0.231261
0.23926
0.249506
0.260578
0.269828
0.276534
0.281238
0.284455
0.286603
0.287998
0.28884
0.28923
0.289223
0.200911
0.200926
0.20172
0.203283
0.205834
0.209705
0.215232
0.222926
0.233161
0.246049
0.259763
0.271127
0.279351
0.285137
0.289111
0.291777
0.293498
0.294509
0.294964
0.294936
0.18378
0.183909
0.185104
0.187318
0.190799
0.195967
0.203328
0.213413
0.226528
0.24267
0.259524
0.273367
0.283372
0.290429
0.295289
0.298549
0.300676
0.301958
0.302542
0.302523
0.1624
0.162486
0.164077
0.167215
0.172128
0.179342
0.189329
0.202591
0.219352
0.23942
0.259945
0.276647
0.288721
0.297295
0.303283
0.307377
0.310056
0.311648
0.312356
0.312285
0.133854
0.134401
0.13701
0.141758
0.149065
0.159297
0.173021
0.190544
0.211831
0.236548
0.261278
0.28121
0.29563
0.305966
0.313267
0.318324
0.32172
0.323775
0.324722
0.324633
0.0961481
0.0969498
0.10129
0.109232
0.120587
0.135556
0.154483
0.177403
0.204152
0.234217
0.263588
0.287026
0.30401
0.316313
0.325213
0.331577
0.335993
0.338793
0.340107
0.339863
0.045974
0.0466713
0.0548328
0.0682545
0.086331
0.108225
0.133942
0.163503
0.196649
0.232666
0.267024
0.294182
0.313948
0.328459
0.339159
0.347072
0.352789
0.356413
0.357774
0.357399
-0.0235367
-0.0191781
-0.00144387
0.021635
0.0485682
0.0786602
0.112241
0.149362
0.189592
0.232252
0.2723
0.303909
0.327241
0.344803
0.358183
0.368464
0.376432
0.382323
0.384595
0.38457
-0.106476
-0.0909326
-0.0601034
-0.0263339
0.0100831
0.0486619
0.0905624
0.135458
0.182957
0.232672
0.279043
0.315844
0.343451
0.364761
0.38168
0.395316
0.406219
0.414626
0.42096
0.421833
-0.171407
-0.15398
-0.11451
-0.0727965
-0.0277597
0.019569
0.0697391
0.122135
0.176753
0.233271
0.285579
0.327052
0.358241
0.382382
0.401454
0.416902
0.429314
0.438678
0.444132
0.444888
-0.219785
-0.204138
-0.160374
-0.113881
-0.0620752
-0.00729544
0.0500592
0.109376
0.170769
0.23365
0.291336
0.33665
0.370323
0.396035
0.415955
0.431624
0.444164
0.453518
0.458955
0.459799
-0.259387
-0.243899
-0.198144
-0.148778
-0.0917187
-0.0313476
0.0318213
0.0972463
0.164686
0.233176
0.295413
0.343651
0.378947
0.405467
0.42574
0.441365
0.454013
0.46299
0.468773
0.469561
-0.293407
-0.277589
-0.229757
-0.178128
-0.117181
-0.0527956
0.0149886
0.0855778
0.158186
0.23163
0.297962
0.348816
0.385489
0.41266
0.433301
0.449045
0.461621
0.470677
0.476399
0.477064
-0.323269
-0.307512
-0.257252
-0.203229
-0.139303
-0.0720987
-0.000630857
0.0742585
0.15135
0.229386
0.299638
0.352999
0.391147
0.419147
0.440208
0.45613
0.468614
0.477761
0.483123
0.483885
-0.350015
-0.334514
-0.282232
-0.225688
-0.159183
-0.0896963
-0.0151675
0.0633341
0.144385
0.226704
0.300797
0.356904
0.396683
0.425517
0.44698
0.463122
0.475517
0.484641
0.489896
0.490608
-0.374597
-0.359105
-0.3059
-0.246934
-0.177985
-0.10619
-0.0288588
0.0527792
0.137405
0.22383
0.301908
0.360819
0.40219
0.431947
0.4538
0.470016
0.482406
0.491399
0.496648
0.497368
-0.397792
-0.381803
-0.328528
-0.267609
-0.196524
-0.122292
-0.0422146
0.0422884
0.130208
0.220443
0.302219
0.363941
0.40725
0.438083
0.460543
0.477174
0.489616
0.498577
0.503762
0.504394
-0.419489
-0.403392
-0.349838
-0.287592
-0.214935
-0.138433
-0.0557759
0.0313906
0.122359
0.21616
0.301799
0.366944
0.412521
0.444767
0.467837
0.484627
0.497084
0.505921
0.511072
0.511764
-0.439892
-0.423918
-0.369842
-0.30668
-0.232946
-0.154609
-0.0697316
0.0198786
0.113773
0.211155
0.300938
0.369395
0.417372
0.451088
0.475156
0.492486
0.505195
0.514017
0.519069
0.519649
-0.459634
-0.443396
-0.38888
-0.324988
-0.250377
-0.170609
-0.0839174
0.00787493
0.104494
0.205195
0.298619
0.370807
0.422137
0.458224
0.483382
0.501219
0.513892
0.522469
0.527457
0.528028
-0.479149
-0.462186
-0.407352
-0.342767
-0.267257
-0.186294
-0.0981193
-0.00447336
0.0944975
0.198166
0.295488
0.371864
0.42647
0.465067
0.491806
0.510264
0.523178
0.531923
0.536561
0.536929
-0.498397
-0.480612
-0.425485
-0.360183
-0.283731
-0.201697
-0.112271
-0.0170637
0.0839556
0.190408
0.291594
0.371782
0.430091
0.471768
0.500838
0.520506
0.533528
0.541458
0.545834
0.546066
-0.517187
-0.498809
-0.443284
-0.377241
-0.299896
-0.216898
-0.126378
-0.0298335
0.0729571
0.181775
0.286016
0.370365
0.433071
0.478714
0.510822
0.531856
0.544768
0.55233
0.555868
0.555673
-0.535352
-0.516606
-0.460646
-0.393867
-0.315757
-0.231929
-0.140465
-0.0427903
0.0614351
0.172195
0.279402
0.367768
0.434477
0.484654
0.520707
0.544682
0.558374
0.56393
0.56517
0.564582
-0.552829
-0.533836
-0.477425
-0.409983
-0.331253
-0.246743
-0.154496
-0.0558854
0.0495062
0.161916
0.271745
0.363464
0.434694
0.489507
0.530475
0.55893
0.57486
0.578526
0.575399
0.572398
-0.569577
-0.550364
-0.493536
-0.425521
-0.346293
-0.261242
-0.16837
-0.069027
0.0373458
0.151073
0.262797
0.357521
0.432693
0.492523
0.539567
0.574513
0.596155
0.598511
0.590166
0.5942
-0.585579
-0.566176
-0.508932
-0.440425
-0.360795
-0.275324
-0.181988
-0.0820984
0.0250065
0.139707
0.252793
0.34983
0.428594
0.493064
0.545715
0.588831
0.62144
0.623374
0.581929
0.52786
-0.600788
-0.581313
-0.523672
-0.454767
-0.374847
-0.289103
-0.195479
-0.0952518
0.0122591
0.127548
0.241572
0.34001
0.421069
0.489794
0.548071
0.599974
0.647807
0.682986
0.713982
0.766239
-0.615168
-0.59584
-0.537862
-0.468693
-0.38863
-0.302788
-0.209104
-0.108844
-0.00128594
0.114157
0.228596
0.327488
0.410293
0.481124
0.540489
0.589993
0.627722
0.654266
0.64457
0.648394
-0.628747
-0.60967
-0.551463
-0.482168
-0.402076
-0.316298
-0.22276
-0.122739
-0.0154754
0.0995789
0.213548
0.311872
0.393577
0.463438
0.519658
0.560466
0.568795
0.539073
0.490917
0.485584
-0.641612
-0.62281
-0.564479
-0.495205
-0.415199
-0.329643
-0.236426
-0.13687
-0.0302835
0.0837764
0.196471
0.293205
0.371348
0.435251
0.484301
0.499465
0.468327
0.402283
0.33185
0.325772
-0.653781
-0.635318
-0.576936
-0.507825
-0.428017
-0.342827
-0.250095
-0.151251
-0.0456496
0.0670142
0.177702
0.272278
0.344985
0.395586
0.421327
0.4069
0.358587
0.255106
0.164892
0.150371
-0.665647
-0.647616
-0.589212
-0.520381
-0.440863
-0.356145
-0.264024
-0.166071
-0.0617134
0.0490278
0.156855
0.247802
0.314139
0.34928
0.339299
0.294994
0.185948
0.0563403
-0.0573384
-0.0795231
-0.678007
-0.660422
-0.601948
-0.53344
-0.454263
-0.370034
-0.278585
-0.181636
-0.0787844
0.0296526
0.133813
0.220018
0.278223
0.292951
0.244621
0.146936
-0.026185
-0.190535
-0.32515
-0.350439
-0.691316
-0.674077
-0.615395
-0.547198
-0.468367
-0.384601
-0.293866
-0.198042
-0.0968535
0.00907304
0.10897
0.190012
0.237693
0.22261
0.14331
-0.0247289
-0.254125
-0.490219
-0.684708
-0.733646
-0.705611
-0.688605
-0.629549
-0.561657
-0.483124
-0.399791
-0.30981
-0.215152
-0.115776
-0.0127928
0.0821867
0.156308
0.19108
0.139487
0.021138
-0.205526
-0.482273
-0.818428
-1.1761
-1.31556
-0.720908
-0.704025
-0.644436
-0.576894
-0.498538
-0.415625
-0.326428
-0.233015
-0.135644
-0.0358746
0.0539044
0.121078
0.139199
0.0460742
-0.130315
-0.393024
-0.687913
-1.10219
-1.7596
-2.36824
-0.737186
-0.720327
-0.660086
-0.592949
-0.514569
-0.43206
-0.343675
-0.251516
-0.156188
-0.059867
0.0244036
0.0828541
0.0839924
-0.0453627
-0.285329
-0.594893
-0.869491
-1.18759
-1.87196
-3.6294
-0.754427
-0.737407
-0.676542
-0.609913
-0.531282
-0.449223
-0.361695
-0.270804
-0.177621
-0.0850378
-0.00631232
0.042396
0.0207001
-0.125389
-0.41339
-0.747053
-0.971644
-1.07512
-1.1373
-1.60004
-0.772545
-0.755238
-0.694034
-0.627953
-0.548914
-0.46748
-0.380942
-0.291513
-0.200713
-0.112285
-0.0394725
0.00016989
-0.042773
-0.190747
-0.493304
-0.802213
-0.987084
-1.03545
-0.995311
-1.04986
-0.791281
-0.773688
-0.712627
-0.646955
-0.567451
-0.486851
-0.401446
-0.313587
-0.225422
-0.141697
-0.0742051
-0.0438274
-0.106858
-0.251357
-0.548214
-0.810207
-0.96436
-1.01674
-1.04078
-1.06619
-0.81042
-0.792544
-0.732279
-0.666631
-0.586766
-0.507265
-0.422976
-0.336868
-0.25164
-0.17272
-0.110829
-0.0862798
-0.171381
-0.321507
-0.601957
-0.826947
-0.957163
-0.960973
-0.987823
-0.986714
-0.829733
-0.811726
-0.752557
-0.686579
-0.606719
-0.528469
-0.445314
-0.361143
-0.27898
-0.204447
-0.148787
-0.126959
-0.232628
-0.40742
-0.660252
-0.840567
-0.954135
-0.956031
-0.963501
-0.966279
-0.84884
-0.83082
-0.772696
-0.706368
-0.62696
-0.55017
-0.468012
-0.385957
-0.306682
-0.23611
-0.187218
-0.162748
-0.283473
-0.501632
-0.736148
-0.868903
-0.93453
-0.961913
-0.949633
-0.958153
-0.867385
-0.849555
-0.792032
-0.725507
-0.647136
-0.571723
-0.490351
-0.411068
-0.333814
-0.266496
-0.225854
-0.204184
-0.338406
-0.590353
-0.830023
-0.920893
-0.875521
-0.931886
-0.937085
-0.94596
-0.884392
-0.866835
-0.809679
-0.743255
-0.667039
-0.592187
-0.512407
-0.436025
-0.360183
-0.293779
-0.257251
-0.226705
-0.383676
-0.674973
-0.930745
-1.03475
-0.970151
-0.982752
-1.005
-1.00815
-0.899229
-0.882068
-0.825396
-0.75929
-0.685306
-0.610314
-0.533475
-0.459841
-0.385869
-0.31857
-0.280139
-0.229053
-0.395769
-0.715523
-1.03661
-1.29536
-1.34637
-1.28337
-1.26306
-1.24464
-0.910584
-0.894071
-0.838174
-0.772529
-0.699889
-0.626076
-0.551971
-0.481506
-0.409261
-0.341904
-0.29618
-0.238221
-0.402924
-0.730377
-1.15866
-1.60565
-1.80532
-1.745
-1.64035
-1.57011
-0.917291
-0.90133
-0.846374
-0.781331
-0.709769
-0.638029
-0.566955
-0.501383
-0.434371
-0.363801
-0.316777
-0.246202
-0.381899
-0.685437
-1.07179
-1.48313
-1.66727
-1.61628
-1.47487
-1.42426
-0.917658
-0.902354
-0.848665
-0.784455
-0.714152
-0.644768
-0.577674
-0.517367
-0.461376
-0.400075
-0.328352
-0.259246
-0.318209
-0.438534
-0.540649
-0.647928
-0.686206
-0.644117
-0.576204
-0.501262
-0.910307
-0.895718
-0.843362
-0.780436
-0.711863
-0.645114
-0.582854
-0.52878
-0.48484
-0.453338
-0.37621
-0.310629
-0.216409
-0.0863669
0.105572
0.271079
0.383649
0.456463
0.491707
0.512677
-0.893013
-0.879644
-0.829613
-0.768283
-0.701542
-0.638234
-0.581826
-0.537975
-0.517392
-0.527127
-0.512148
-0.41432
-0.137114
0.18573
0.552349
0.889677
1.11041
1.21011
1.23472
1.24707
-0.865333
-0.853146
-0.805436
-0.746472
-0.682819
-0.624265
-0.574565
-0.546255
-0.565206
-0.638916
-0.741665
-0.568628
-0.164307
0.285881
0.757801
1.17315
1.4167
1.50733
1.5297
1.53524
-0.825529
-0.815175
-0.770086
-0.715103
-0.656018
-0.602032
-0.55942
-0.547859
-0.604283
-0.763409
-1.06108
-0.838441
-0.297448
0.272584
0.792358
1.17423
1.39933
1.47325
1.5031
1.51238
-0.772478
-0.764479
-0.724038
-0.674353
-0.619049
-0.568528
-0.531203
-0.526571
-0.595788
-0.742007
-1.29797
-1.03121
-0.300018
0.24603
0.706768
1.00893
1.18856
1.25611
1.28914
1.30055
-0.708776
-0.702869
-0.666244
-0.620865
-0.569488
-0.521999
-0.485218
-0.476284
-0.532274
-0.67668
-0.998934
-0.744719
-0.178656
0.250931
0.590284
0.803836
0.925386
0.986974
1.02517
1.03883
-0.638185
-0.632011
-0.596975
-0.555057
-0.507709
-0.461863
-0.420915
-0.397084
-0.409923
-0.474488
-0.564776
-0.28995
0.054999
0.327394
0.531487
0.648685
0.725164
0.773218
0.805556
0.81808
-0.542631
-0.537749
-0.510266
-0.475656
-0.433155
-0.389943
-0.346686
-0.309259
-0.285166
-0.278418
-0.245321
-0.0213886
0.187361
0.362139
0.479286
0.550177
0.598466
0.631057
0.652344
0.660092
-0.422281
-0.419963
-0.40433
-0.380968
-0.348701
-0.312732
-0.272689
-0.230426
-0.187357
-0.142169
-0.0649612
0.0997969
0.238582
0.35005
0.420741
0.466344
0.498379
0.518641
0.531364
0.53404
-0.306941
-0.306042
-0.29861
-0.283889
-0.26268
-0.236197
-0.203216
-0.163486
-0.114742
-0.0479867
0.0269368
0.144502
0.243115
0.31222
0.355505
0.384122
0.403731
0.415352
0.421017
0.422254
-0.203872
-0.203803
-0.200367
-0.19275
-0.180667
-0.163617
-0.139467
-0.106926
-0.0633717
-0.00164927
0.0696544
0.162155
0.225456
0.268786
0.295846
0.313521
0.325052
0.331768
0.335718
0.337438
-0.119971
-0.120674
-0.119383
-0.115805
-0.10957
-0.0997404
-0.0835256
-0.0589924
-0.0239229
0.0267484
0.0871814
0.155318
0.198471
0.227584
0.245602
0.257224
0.264823
0.269725
0.272611
0.273225
-0.0579487
-0.0589307
-0.0593759
-0.0582882
-0.0549103
-0.0487763
-0.0379747
-0.0204911
0.0059475
0.0451948
0.0923846
0.141059
0.172215
0.193069
0.206041
0.214236
0.219338
0.222123
0.223079
0.222753
-0.0152454
-0.0161403
-0.017675
-0.0183726
-0.016892
-0.0127256
-0.00480651
0.00790907
0.0274418
0.0570649
0.092861
0.127891
0.150778
0.166044
0.175443
0.180833
0.183505
0.18426
0.184032
0.183451
0.0124187
0.011723
0.0100376
0.00832966
0.00829339
0.0106843
0.0165245
0.0264953
0.0416637
0.0642076
0.0911576
0.116594
0.133474
0.144586
0.15112
0.154326
0.155296
0.154856
0.154129
0.153562
0.0289254
0.0284152
0.0270558
0.0253877
0.0246418
0.0255006
0.0293151
0.0369295
0.0490177
0.0666454
0.0872978
0.10608
0.118618
0.126632
0.131002
0.132802
0.133019
0.132307
0.131607
0.131117
0.0381777
0.0377861
0.0368801
0.0357794
0.0351318
0.0352609
0.037513
0.0426968
0.0518311
0.065534
0.0816198
0.0957848
0.105153
0.110905
0.113869
0.114974
0.115055
0.114541
0.114055
0.11367
0.0438697
0.0435637
0.0430222
0.0424043
0.0421109
0.042267
0.043737
0.0470048
0.0533416
0.0634094
0.0756122
0.086192
0.0930989
0.0972298
0.0993796
0.100186
0.100266
0.0999274
0.0996085
0.0993232
0.0479527
0.0477268
0.0473456
0.046853
0.0466301
0.04688
0.0480482
0.0503028
0.0546031
0.0615583
0.070287
0.0778842
0.08285
0.0858291
0.0874248
0.088002
0.0879903
0.0876682
0.0874186
0.0872047
0.0502888
0.0501099
0.049741
0.0491468
0.0487352
0.0487975
0.0496207
0.0513635
0.054492
0.0593739
0.0654676
0.070793
0.0743274
0.076459
0.0775669
0.0778946
0.0777545
0.0773999
0.0771713
0.0770032
0.0504347
0.0502831
0.0499139
0.04926
0.0487167
0.048526
0.0489018
0.050138
0.0524762
0.0561391
0.060584
0.06441
0.0669443
0.0684305
0.0691282
0.0692651
0.0690667
0.0687248
0.0685243
0.0683889
0.0487845
0.0486631
0.0483514
0.0477709
0.0472711
0.0469887
0.0470526
0.0477957
0.0494091
0.0521457
0.0554859
0.0583229
0.0601506
0.0611741
0.0615986
0.0616406
0.0614522
0.0611641
0.0610043
0.0608987
0.04611
0.0460224
0.0457916
0.0453342
0.0449518
0.0447008
0.0446568
0.0450892
0.046111
0.0480286
0.0504447
0.0525025
0.0537936
0.0544966
0.0547605
0.0547641
0.0546056
0.0543753
0.0542525
0.0541718
0.0428439
0.0427834
0.0426119
0.0422524
0.0419586
0.0417467
0.0416779
0.0419576
0.0425989
0.043894
0.0455515
0.0469793
0.0478629
0.0483387
0.048498
0.0484759
0.048338
0.0481503
0.0480524
0.0479904
0.0390945
0.0390489
0.0389122
0.0386247
0.0383865
0.0381964
0.0381072
0.0382881
0.0387022
0.0395923
0.0407185
0.0416958
0.0422906
0.0426026
0.0426839
0.0426379
0.0425118
0.0423541
0.0422722
0.0422241
0.0349755
0.0349405
0.0348296
0.0346032
0.034408
0.0342396
0.0341358
0.0342365
0.0344977
0.0351211
0.0358985
0.0365707
0.0369631
0.0371558
0.0371843
0.0371263
0.0370148
0.0368851
0.0368171
0.0367794
0.0306016
0.0305749
0.0304884
0.030319
0.0301651
0.0300253
0.0299221
0.0299656
0.0301148
0.0305382
0.0310723
0.0315317
0.0317864
0.0319027
0.0319034
0.0318445
0.0317504
0.0316465
0.0315914
0.0315615
0.0260779
0.0260581
0.0259913
0.0258658
0.0257464
0.0256364
0.0255457
0.025557
0.0256357
0.0259112
0.0262654
0.0265715
0.0267321
0.026796
0.0267787
0.0267207
0.0266398
0.0265546
0.0265096
0.0264871
0.0214584
0.0214436
0.0213937
0.0213027
0.0212106
0.0211253
0.0210511
0.0210477
0.0210861
0.0212604
0.0214838
0.021676
0.021769
0.0217984
0.0217733
0.021721
0.0216543
0.0215871
0.0215515
0.0215342
0.0167766
0.0167652
0.0167253
0.0166562
0.0165839
0.0165168
0.0164549
0.0164402
0.0164537
0.0165618
0.0167035
0.0168229
0.0168739
0.0168827
0.016855
0.0168091
0.0167544
0.0167004
0.0166716
0.0166578
0.0120374
0.0120306
0.0120019
0.0119517
0.0118975
0.0118472
0.0117995
0.0117826
0.0117815
0.0118407
0.0119237
0.0119938
0.0120192
0.0120171
0.0119899
0.0119514
0.011908
0.0118664
0.0118452
0.0118362
0.00725524
0.00724982
0.00723028
0.00719772
0.00716288
0.00713171
0.00710169
0.00708905
0.00708155
0.00711195
0.00715578
0.00719163
0.00719882
0.00719229
0.00717281
0.00714696
0.00711741
0.00708818
0.00707298
0.00706595
0.00244244
0.00243986
0.00242853
0.00241079
0.00239438
0.00238219
0.00236844
0.00236457
0.00236082
0.00237258
0.00238576
0.00239784
0.00239953
0.00239626
0.00238732
0.00237636
0.00236211
0.00234538
0.00233709
0.0023331
-1.65116
-0.701721
-0.424226
-0.116648
0.0940401
0.277557
0.43379
0.592834
0.761706
0.840716
-0.57954
-0.12287
-0.0810165
0.125598
0.274414
0.407665
0.524669
0.627241
0.664876
0.617829
-0.141269
0.100082
0.157643
0.302447
0.407376
0.50187
0.580428
0.638929
0.647126
0.657177
0.125355
0.289571
0.330314
0.446075
0.513158
0.580543
0.632486
0.668839
0.68049
0.702752
0.328734
0.44311
0.472148
0.55635
0.602124
0.650495
0.6866
0.712908
0.724364
0.75464
0.484202
0.5632
0.593746
0.646195
0.684455
0.718151
0.744812
0.766214
0.78159
0.80915
0.613421
0.669341
0.696477
0.728649
0.758892
0.784454
0.805841
0.825747
0.84144
0.867595
0.723341
0.763689
0.786022
0.808315
0.830874
0.85158
0.86992
0.888885
0.904134
0.927494
0.821634
0.851614
0.869437
0.885535
0.902717
0.919613
0.935804
0.953268
0.966761
0.989043
0.912396
0.933776
0.949207
0.962885
0.976914
0.991019
1.00458
1.01925
1.03099
1.05079
0.999679
1.01569
1.02977
1.04179
1.05402
1.06583
1.07702
1.08889
1.09657
1.11347
1.08508
1.0981
1.11214
1.12409
1.1349
1.14484
1.15366
1.1619
1.16541
1.17659
1.17489
1.18594
1.19963
1.20902
1.21654
1.22363
1.23072
1.23731
1.23826
1.24555
1.27358
1.27836
1.28636
1.29074
1.29395
1.29843
1.30446
1.31223
1.3162
1.32613
1.38682
1.37302
1.36557
1.35988
1.35715
1.35853
1.3651
1.37771
1.39253
1.42216
1.50761
1.45206
1.42111
1.40408
1.39597
1.39602
1.40472
1.42404
1.45588
1.52505
)
;

boundaryField
{
    wall-4
    {
        type            zeroGradient;
    }
    pressure-outlet-7
    {
        type            fixedValue;
        value           uniform 0;
    }
    velocity-inlet-6
    {
        type            zeroGradient;
    }
    velocity-inlet-5
    {
        type            zeroGradient;
    }
    frontAndBackPlanes
    {
        type            empty;
    }
}


// ************************************************************************* //
