/*--------------------------------*- C++ -*----------------------------------*\
  =========                 |
  \\      /  F ield         | OpenFOAM: The Open Source CFD Toolbox
   \\    /   O peration     | Website:  https://openfoam.org
    \\  /    A nd           | Version:  9
     \\/     M anipulation  |
\*---------------------------------------------------------------------------*/
FoamFile
{
    format      ascii;
    class       volVectorField;
    location    "13";
    object      U;
}
// * * * * * * * * * * * * * * * * * * * * * * * * * * * * * * * * * * * * * //

dimensions      [0 1 -1 0 0 0 0];

internalField   nonuniform List<vector> 
2200
(
(0.878662 -0.0301571 0)
(1.00572 -0.051233 0)
(1.00308 -0.0350389 0)
(1.00031 -0.0242997 0)
(0.999976 -0.0166354 0)
(0.999586 -0.0105447 0)
(0.999514 -0.00672526 0)
(0.999862 -0.00418346 0)
(1.00004 -0.00233994 0)
(1.00016 -0.000744499 0)
(1.00009 0.000931738 0)
(1.00003 0.0025495 0)
(0.999831 0.0043266 0)
(0.999446 0.00681004 0)
(0.999549 0.0105958 0)
(0.999966 0.0166705 0)
(1.00032 0.0243407 0)
(1.0031 0.035081 0)
(1.00573 0.051245 0)
(0.878663 0.0301733 0)
(0.71367 -0.0329731 0)
(0.997102 -0.0624912 0)
(1.03341 -0.0558342 0)
(1.0247 -0.0461123 0)
(1.01632 -0.0358949 0)
(1.01035 -0.0262628 0)
(1.0062 -0.0182324 0)
(1.00361 -0.0115028 0)
(1.00234 -0.00605235 0)
(1.00198 -0.00163036 0)
(1.00192 0.00213679 0)
(1.00229 0.00649071 0)
(1.00352 0.0119014 0)
(1.00617 0.0186273 0)
(1.01032 0.0266576 0)
(1.01629 0.0362342 0)
(1.02465 0.0463608 0)
(1.03329 0.0559864 0)
(0.996986 0.0626304 0)
(0.713529 0.033002 0)
(0.535338 -0.0236548 0)
(0.971137 -0.056408 0)
(1.05615 -0.0535031 0)
(1.05126 -0.047054 0)
(1.03487 -0.0383632 0)
(1.02394 -0.0307 0)
(1.01611 -0.022493 0)
(1.01088 -0.0147115 0)
(1.00772 -0.00802278 0)
(1.00616 -0.00222584 0)
(1.00614 0.00310803 0)
(1.00761 0.00894956 0)
(1.01075 0.0155617 0)
(1.01597 0.023258 0)
(1.02373 0.0312755 0)
(1.03463 0.0388175 0)
(1.051 0.0474106 0)
(1.05592 0.053827 0)
(0.970726 0.0565826 0)
(0.534743 0.0237107 0)
(0.397575 -0.0121964 0)
(0.915461 -0.0444768 0)
(1.06016 -0.0443505 0)
(1.07072 -0.0413161 0)
(1.0545 -0.0344569 0)
(1.03864 -0.0284083 0)
(1.02653 -0.0223028 0)
(1.01792 -0.0161508 0)
(1.01254 -0.00952482 0)
(1.01009 -0.00281538 0)
(1.00993 0.00425181 0)
(1.01229 0.0107828 0)
(1.01758 0.017226 0)
(1.02605 0.0231395 0)
(1.03811 0.0291434 0)
(1.05397 0.0350758 0)
(1.07016 0.0418358 0)
(1.0594 0.0447166 0)
(0.914505 0.0447042 0)
(0.396482 0.0122483 0)
(0.321331 -0.00351456 0)
(0.854992 -0.0290485 0)
(1.05367 -0.0363208 0)
(1.08204 -0.0344763 0)
(1.06978 -0.0297827 0)
(1.05235 -0.0243372 0)
(1.03852 -0.0193177 0)
(1.02796 -0.0143101 0)
(1.02049 -0.00882266 0)
(1.01678 -0.00260765 0)
(1.01667 0.00456921 0)
(1.02019 0.0104709 0)
(1.02744 0.0157145 0)
(1.03795 0.0206659 0)
(1.05173 0.0254459 0)
(1.06913 0.0307295 0)
(1.08129 0.035256 0)
(1.0526 0.0368961 0)
(0.853304 0.0293408 0)
(0.319696 0.00357727 0)
(0.284715 0.000698536 0)
(0.804164 -0.0155879 0)
(1.03826 -0.024935 0)
(1.0851 -0.025913 0)
(1.0779 -0.0235443 0)
(1.06084 -0.0192803 0)
(1.04737 -0.0155696 0)
(1.03684 -0.0116803 0)
(1.02895 -0.00698583 0)
(1.02478 -0.0017111 0)
(1.02452 0.0042469 0)
(1.0283 0.00937533 0)
(1.03598 0.0138507 0)
(1.0463 0.0173302 0)
(1.05967 0.0208034 0)
(1.07666 0.0247394 0)
(1.08365 0.0268275 0)
(1.03632 0.0255961 0)
(0.801394 0.015898 0)
(0.282467 -0.000605257 0)
(0.271062 0.00173192 0)
(0.768949 -0.00600379 0)
(1.02138 -0.013832 0)
(1.08151 -0.0162549 0)
(1.0783 -0.0162957 0)
(1.06268 -0.0148039 0)
(1.04932 -0.0130539 0)
(1.03916 -0.00994595 0)
(1.03206 -0.0058093 0)
(1.02835 -0.000924578 0)
(1.02803 0.00403564 0)
(1.03121 0.00878737 0)
(1.03785 0.0125325 0)
(1.04762 0.01513 0)
(1.0609 0.0163856 0)
(1.07635 0.017545 0)
(1.07924 0.017196 0)
(1.01849 0.0144782 0)
(0.765218 0.00631885 0)
(0.268038 -0.001639 0)
(0.269943 0.0014333 0)
(0.749876 -0.000600142 0)
(1.00702 -0.0053758 0)
(1.07409 -0.00827658 0)
(1.074 -0.00990353 0)
(1.06054 -0.0108205 0)
(1.04868 -0.0103717 0)
(1.03983 -0.00815357 0)
(1.03347 -0.00482819 0)
(1.02993 -0.000277862 0)
(1.02955 0.00423551 0)
(1.03247 0.00846209 0)
(1.03838 0.0112644 0)
(1.04674 0.012828 0)
(1.05832 0.0129322 0)
(1.07153 0.0115607 0)
(1.07121 0.00957826 0)
(1.00328 0.00624391 0)
(0.745125 0.00102067 0)
(0.266136 -0.00130985 0)
(0.272663 0.000816506 0)
(0.743461 0.000774185 0)
(0.998001 -0.00160453 0)
(1.06773 -0.00447265 0)
(1.07056 -0.00647888 0)
(1.06029 -0.00808567 0)
(1.05025 -0.00812737 0)
(1.04229 -0.00661039 0)
(1.03642 -0.00384415 0)
(1.03289 0.000321622 0)
(1.0323 0.00463001 0)
(1.03486 0.00849285 0)
(1.03997 0.0108633 0)
(1.04755 0.0120061 0)
(1.05712 0.0111434 0)
(1.06705 0.00891233 0)
(1.06377 0.00631807 0)
(0.992973 0.00281104 0)
(0.73701 -0.000223309 0)
(0.267814 -0.000641037 0)
(0.275187 0.000175781 0)
(0.741969 0.000439402 0)
(0.993333 -0.000893283 0)
(1.06327 -0.00352361 0)
(1.06835 -0.0053898 0)
(1.06102 -0.00660408 0)
(1.05346 -0.00645392 0)
(1.04704 -0.00494 0)
(1.04201 -0.00237119 0)
(1.03864 0.00140321 0)
(1.03767 0.00522181 0)
(1.03951 0.00857801 0)
(1.04349 0.0104263 0)
(1.04904 0.0109389 0)
(1.05629 0.0103092 0)
(1.06335 0.00831586 0)
(1.05763 0.005702 0)
(0.98616 0.00233889 0)
(0.733762 0.000237635 0)
(0.268828 -3.61511e-05 0)
(0.276053 1.97387e-05 0)
(0.741673 0.000424137 0)
(0.989262 -0.000387392 0)
(1.05857 -0.00257277 0)
(1.06514 -0.00424842 0)
(1.06017 -0.00535046 0)
(1.05436 -0.00496709 0)
(1.0493 -0.00345195 0)
(1.04513 -0.000911944 0)
(1.04208 0.00255332 0)
(1.04102 0.00599584 0)
(1.04197 0.00871892 0)
(1.04456 0.00999669 0)
(1.04875 0.0103597 0)
(1.05421 0.00972389 0)
(1.05853 0.00766368 0)
(1.05105 0.00511911 0)
(0.980021 0.00211935 0)
(0.730713 0.000532392 0)
(0.268189 9.7508e-05 0)
(0.277156 0.000239314 0)
(0.741954 0.000639632 0)
(0.98577 0.000628072 0)
(1.05411 -0.00086598 0)
(1.06188 -0.00213449 0)
(1.05861 -0.00306034 0)
(1.05414 -0.00279599 0)
(1.04992 -0.00153222 0)
(1.04621 0.000734245 0)
(1.04326 0.00372598 0)
(1.04203 0.00680631 0)
(1.04253 0.00893373 0)
(1.04444 0.00985039 0)
(1.04739 0.00977678 0)
(1.0507 0.00860373 0)
(1.05313 0.00650099 0)
(1.0444 0.00408943 0)
(0.974284 0.00158897 0)
(0.727766 0.000408088 0)
(0.266946 8.10906e-05 0)
(0.278965 0.000300133 0)
(0.743141 0.000873324 0)
(0.985089 0.00144257 0)
(1.05158 0.000732453 0)
(1.06 7.64309e-05 0)
(1.05807 -0.000424183 0)
(1.05485 -0.000101424 0)
(1.05142 0.000939531 0)
(1.04805 0.00283469 0)
(1.04504 0.00527245 0)
(1.04327 0.00776844 0)
(1.04316 0.00921454 0)
(1.04411 0.00955975 0)
(1.04582 0.00893068 0)
(1.04778 0.00753644 0)
(1.04874 0.0055688 0)
(1.03907 0.00345674 0)
(0.969757 0.00144558 0)
(0.725417 0.000457033 0)
(0.266034 0.00011847 0)
(0.281158 0.000249201 0)
(0.745761 0.00103889 0)
(0.985501 0.00169928 0)
(1.05115 0.00165905 0)
(1.05981 0.0015709 0)
(1.05876 0.00167938 0)
(1.05645 0.00234804 0)
(1.05367 0.00351134 0)
(1.05058 0.00525369 0)
(1.04745 0.00731345 0)
(1.04505 0.00914997 0)
(1.04397 0.00999048 0)
(1.04384 0.0097608 0)
(1.04466 0.00863884 0)
(1.04545 0.00712291 0)
(1.04531 0.00527769 0)
(1.03501 0.00345558 0)
(0.966156 0.0017823 0)
(0.723052 0.000754941 0)
(0.264717 0.000209788 0)
(0.283623 0.000292006 0)
(0.749066 0.00121933 0)
(0.986814 0.00211578 0)
(1.05174 0.00265103 0)
(1.06043 0.00314717 0)
(1.0598 0.00383006 0)
(1.05792 0.00484709 0)
(1.05545 0.00620851 0)
(1.05244 0.00790187 0)
(1.04905 0.00968555 0)
(1.046 0.010897 0)
(1.04392 0.0110988 0)
(1.04306 0.0102737 0)
(1.04271 0.00903516 0)
(1.04272 0.00735698 0)
(1.04193 0.00555868 0)
(1.03129 0.00383991 0)
(0.962557 0.00226392 0)
(0.719926 0.00105928 0)
(0.262677 0.000281604 0)
(0.28643 0.000382869 0)
(0.752736 0.00146341 0)
(0.989573 0.0027326 0)
(1.05367 0.00360673 0)
(1.06232 0.00463697 0)
(1.06172 0.00583229 0)
(1.05984 0.00736066 0)
(1.05728 0.00910791 0)
(1.054 0.0109685 0)
(1.05006 0.0126318 0)
(1.04622 0.013365 0)
(1.04324 0.0129276 0)
(1.04149 0.011611 0)
(1.04038 0.00992054 0)
(1.03975 0.00795695 0)
(1.03845 0.00603256 0)
(1.02751 0.0042555 0)
(0.95868 0.00265842 0)
(0.716174 0.00127762 0)
(0.260125 0.000326073 0)
(0.290449 0.00054037 0)
(0.758276 0.00201385 0)
(0.993367 0.00380794 0)
(1.05634 0.00537432 0)
(1.06479 0.00686317 0)
(1.06421 0.00855185 0)
(1.06223 0.010421 0)
(1.0594 0.0124645 0)
(1.05559 0.0144835 0)
(1.05079 0.0160688 0)
(1.04583 0.016435 0)
(1.04181 0.0154067 0)
(1.03915 0.0136234 0)
(1.03739 0.011453 0)
(1.03623 0.00924479 0)
(1.03458 0.00714105 0)
(1.02336 0.00518799 0)
(0.954127 0.00336268 0)
(0.711349 0.00161907 0)
(0.256885 0.000411425 0)
(0.295068 0.000675344 0)
(0.76428 0.00241481 0)
(0.998453 0.00458857 0)
(1.06069 0.00648882 0)
(1.06872 0.00864726 0)
(1.06782 0.0110671 0)
(1.06546 0.0137427 0)
(1.06208 0.0164592 0)
(1.05749 0.0189406 0)
(1.0516 0.020625 0)
(1.04536 0.0206687 0)
(1.04026 0.0190096 0)
(1.03671 0.0165593 0)
(1.03426 0.0137369 0)
(1.03257 0.0109603 0)
(1.03048 0.00837139 0)
(1.0188 0.0060369 0)
(0.948903 0.00393365 0)
(0.705761 0.00193861 0)
(0.25307 0.000493986 0)
(0.30202 0.000899104 0)
(0.773716 0.00340428 0)
(1.00537 0.00640936 0)
(1.06607 0.00914058 0)
(1.07377 0.0117337 0)
(1.07258 0.0147377 0)
(1.06969 0.0178931 0)
(1.06549 0.0211851 0)
(1.05974 0.0241259 0)
(1.05233 0.0259667 0)
(1.04436 0.0257264 0)
(1.03779 0.023438 0)
(1.03311 0.0202576 0)
(1.02983 0.0168188 0)
(1.02758 0.013563 0)
(1.02513 0.0105843 0)
(1.01309 0.00787681 0)
(0.942482 0.00526001 0)
(0.698551 0.00254606 0)
(0.248079 0.000631266 0)
(0.309665 0.00120002 0)
(0.783899 0.00399267 0)
(1.01386 0.00764637 0)
(1.07338 0.0110036 0)
(1.08033 0.0147922 0)
(1.07845 0.0189049 0)
(1.07471 0.023239 0)
(1.06937 0.0274393 0)
(1.06211 0.031016 0)
(1.05283 0.0330274 0)
(1.04289 0.0323735 0)
(1.03473 0.0292894 0)
(1.02891 0.0251728 0)
(1.02488 0.0207897 0)
(1.02213 0.016567 0)
(1.01923 0.0127051 0)
(1.00641 0.00919671 0)
(0.934258 0.00602344 0)
(0.689489 0.00297046 0)
(0.242132 0.000758971 0)
(0.321615 0.00157267 0)
(0.799022 0.00590085 0)
(1.02553 0.0107577 0)
(1.0827 0.015223 0)
(1.089 0.0194612 0)
(1.08625 0.0245778 0)
(1.08136 0.0297899 0)
(1.07442 0.035017 0)
(1.06516 0.0393597 0)
(1.05346 0.0415809 0)
(1.04105 0.0404509 0)
(1.03085 0.0364219 0)
(1.02351 0.031192 0)
(1.01835 0.0257721 0)
(1.01478 0.0207031 0)
(1.0113 0.0161231 0)
(0.99797 0.0120578 0)
(0.925025 0.00809578 0)
(0.679113 0.00392264 0)
(0.234659 0.000937373 0)
(0.335264 0.0022157 0)
(0.8174 0.00689971 0)
(1.03984 0.0132521 0)
(1.09478 0.0188686 0)
(1.09996 0.0253448 0)
(1.09594 0.0320508 0)
(1.0893 0.0388435 0)
(1.08015 0.0452764 0)
(1.0682 0.0502799 0)
(1.05347 0.0525146 0)
(1.03812 0.0506027 0)
(1.02561 0.0453253 0)
(1.01664 0.0387713 0)
(1.0104 0.0320323 0)
(1.00609 0.0256167 0)
(1.00199 0.0197722 0)
(0.987328 0.0143256 0)
(0.911517 0.00936113 0)
(0.664 0.00452246 0)
(0.225329 0.00114336 0)
(0.356231 0.00317325 0)
(0.841707 0.0110011 0)
(1.05905 0.0190515 0)
(1.11015 0.0263984 0)
(1.11394 0.0339137 0)
(1.10793 0.0421622 0)
(1.09895 0.0505881 0)
(1.08697 0.0581599 0)
(1.07175 0.063799 0)
(1.05349 0.0657885 0)
(1.0348 0.0628224 0)
(1.01965 0.0560385 0)
(1.00875 0.0478441 0)
(1.00106 0.0395205 0)
(0.995661 0.031683 0)
(0.990628 0.0246302 0)
(0.975097 0.0184755 0)
(0.898116 0.0124075 0)
(0.649327 0.00603474 0)
(0.214513 0.00139748 0)
(0.384621 0.00440846 0)
(0.877039 0.0129766 0)
(1.08426 0.0248677 0)
(1.13055 0.0343839 0)
(1.13186 0.0456495 0)
(1.12277 0.0563358 0)
(1.1104 0.0664851 0)
(1.09445 0.0753143 0)
(1.07506 0.0812372 0)
(1.05247 0.0825534 0)
(1.02981 0.0780502 0)
(1.01156 0.0693705 0)
(0.99838 0.059363 0)
(0.988961 0.0493143 0)
(0.982243 0.0398529 0)
(0.976083 0.0310043 0)
(0.958306 0.0225175 0)
(0.876531 0.0147061 0)
(0.624371 0.00685254 0)
(0.199689 0.00159236 0)
(0.420151 0.00870328 0)
(0.917517 0.0233879 0)
(1.11706 0.0370704 0)
(1.15652 0.0501287 0)
(1.15333 0.0634676 0)
(1.1401 0.0761482 0)
(1.12299 0.0878797 0)
(1.10225 0.097123 0)
(1.07793 0.102447 0)
(1.05049 0.10234 0)
(1.02363 0.0956883 0)
(1.0022 0.0846574 0)
(0.986709 0.0724338 0)
(0.975545 0.060333 0)
(0.967341 0.048851 0)
(0.959643 0.0385613 0)
(0.940038 0.0292245 0)
(0.856461 0.0197012 0)
(0.603929 0.00957164 0)
(0.186231 0.00181712 0)
(0.506022 0.0123252 0)
(0.988682 0.0323293 0)
(1.16015 0.0561363 0)
(1.18827 0.0721707 0)
(1.17912 0.0900046 1.11157e-34)
(1.15936 0.104426 -6.47237e-35)
(1.13632 0.116497 0)
(1.10978 0.125 0)
(1.07978 0.128908 0)
(1.04708 0.126437 0)
(1.01568 0.116946 0)
(0.990749 0.103247 0)
(0.97251 0.0887877 0)
(0.959056 0.074836 0)
(0.948946 0.061854 0)
(0.939212 0.0493762 0)
(0.915589 0.0373219 0)
(0.822227 0.0253264 0)
(0.556538 0.0111596 0)
(0.158993 0.0017499 0)
(0.566518 0.0278045 -4.23157e-21)
(1.06911 0.0576163 2.55687e-21)
(1.20868 0.08786 0)
(1.22426 0.10877 2.684e-21)
(1.20528 0.129295 -2.17287e-21)
(1.17851 0.142523 6.82855e-35)
(1.1489 0.153395 0)
(1.11571 0.160428 5.48124e-21)
(1.07951 0.162102 -1.93106e-20)
(1.04081 0.156753 4.21293e-21)
(1.00411 0.144186 0)
(0.974907 0.127677 -1.33084e-20)
(0.953162 0.110852 -1.65923e-20)
(0.93664 0.0946326 2.91695e-20)
(0.923596 0.0793933 -2.34149e-20)
(0.910478 0.0656647 0)
(0.880841 0.0514184 -8.9803e-21)
(0.776095 0.035342 0)
(0.514663 0.0210505 -4.8732e-20)
(0.141938 0.00378996 5.79648e-20)
(0.585968 0.0541674 -8.80738e-22)
(1.1123 0.104448 -3.69883e-20)
(1.24968 0.140478 1.13299e-20)
(1.25699 0.159425 1.18977e-20)
(1.2292 0.176914 -3.78078e-21)
(1.19561 0.188072 6.75462e-21)
(1.159 0.197548 0)
(1.11914 0.202701 0)
(1.07666 0.201944 3.01687e-20)
(1.0316 0.194088 0)
(0.988997 0.17898 4.58305e-20)
(0.954619 0.160476 1.42774e-20)
(0.928306 0.142413 4.14072e-22)
(0.907517 0.125693 -3.25983e-20)
(0.890331 0.110333 0)
(0.87319 0.0960671 0)
(0.841921 0.0834552 -1.52026e-19)
(0.746536 0.066852 3.83926e-19)
(0.502688 0.040493 -2.2779e-19)
(0.144532 0.0139231 -2.72646e-19)
(0.586163 0.0874435 7.3019e-20)
(1.13852 0.16552 -2.0772e-20)
(1.28027 0.207085 -4.93628e-21)
(1.2836 0.220618 -2.36552e-20)
(1.24897 0.232837 1.35466e-20)
(1.2089 0.240355 -1.2442e-20)
(1.16574 0.246765 7.97336e-21)
(1.11998 0.24862 0)
(1.07153 0.244788 -6.23539e-20)
(1.02039 0.234039 6.72285e-20)
(0.972057 0.216404 -1.25013e-19)
(0.932735 0.196474 6.06982e-20)
(0.902298 0.178016 -4.42982e-20)
(0.877911 0.161581 9.72983e-20)
(0.857662 0.147506 0)
(0.838481 0.134474 -3.7987e-20)
(0.80763 0.121418 0)
(0.720979 0.104374 2.19377e-19)
(0.499746 0.0688975 -5.2031e-19)
(0.157924 0.0239466 3.26971e-19)
(0.570652 0.118044 -3.46932e-19)
(1.15002 0.227483 1.38088e-19)
(1.29893 0.278029 2.15386e-20)
(1.30134 0.285898 0)
(1.262 0.293698 1.17522e-20)
(1.21695 0.297171 -1.19423e-20)
(1.16872 0.299355 -8.21388e-21)
(1.11791 0.297134 0)
(1.06398 0.289887 4.39613e-20)
(1.00751 0.275955 -4.62571e-20)
(0.954358 0.255746 1.09028e-19)
(0.9112 0.23423 0)
(0.877797 0.215076 -9.30249e-20)
(0.851247 0.1985 5.15328e-20)
(0.829725 0.184544 1.38729e-19)
(0.81051 0.172841 -1.21915e-19)
(0.78206 0.158755 2.02392e-19)
(0.704502 0.140433 -4.5091e-19)
(0.498989 0.09684 2.86755e-19)
(0.165522 0.0341587 -3.61111e-19)
(0.549807 0.143126 2.15191e-19)
(1.14786 0.283957 -1.58564e-19)
(1.30757 0.346409 6.7066e-20)
(1.31053 0.351352 -9.02943e-20)
(1.26794 0.356164 5.90748e-20)
(1.21953 0.355597 -8.81624e-21)
(1.16772 0.353362 3.78772e-21)
(1.11271 0.347011 -3.13302e-20)
(1.05423 0.336114 -4.36949e-20)
(0.993274 0.318542 -9.85217e-20)
(0.935983 0.295197 -2.34615e-19)
(0.889978 0.27173 -7.81302e-20)
(0.855351 0.2517 2.85072e-21)
(0.828549 0.234616 -1.82779e-19)
(0.806943 0.220092 -6.20881e-21)
(0.78803 0.209236 1.77924e-19)
(0.762247 0.194396 -5.51828e-20)
(0.69044 0.175569 -3.25839e-20)
(0.494932 0.12251 0)
(0.166866 0.0434612 7.66794e-19)
(0.529319 0.166438 0)
(1.13841 0.336849 4.92507e-20)
(1.30857 0.410973 3.34553e-20)
(1.31262 0.414801 -1.20067e-20)
(1.26776 0.417904 -7.31497e-20)
(1.2174 0.413604 1.229e-20)
(1.16313 0.407253 5.35043e-21)
(1.10488 0.39706 5.52505e-20)
(1.04308 0.38241 -2.57886e-20)
(0.978912 0.361103 4.42295e-20)
(0.919257 0.334705 1.26211e-19)
(0.872049 0.308786 1.72587e-19)
(0.83608 0.286719 -1.07133e-19)
(0.808104 0.268613 1.97723e-19)
(0.786341 0.253441 -1.58584e-19)
(0.767481 0.24248 0)
(0.743342 0.227421 -4.2216e-19)
(0.674928 0.206142 5.67688e-19)
(0.486902 0.145327 4.31357e-20)
(0.164511 0.0510206 -8.05132e-19)
(0.511535 0.187991 -6.22332e-21)
(1.12665 0.38755 -3.37869e-19)
(1.30399 0.472751 -2.51722e-19)
(1.30931 0.475494 2.07786e-19)
(1.2628 0.477327 -4.20048e-20)
(1.21149 0.469691 2.09557e-20)
(1.15555 0.459872 -1.67223e-21)
(1.09488 0.446267 -6.50964e-21)
(1.03052 0.427977 -9.16233e-20)
(0.963196 0.402967 1.19902e-21)
(0.900026 0.372846 -1.36633e-19)
(0.849864 0.344099 -1.83372e-19)
(0.813671 0.320592 1.2048e-19)
(0.786765 0.301252 -7.08977e-20)
(0.765299 0.285231 1.7236e-19)
(0.746877 0.273085 0)
(0.724413 0.257914 -2.61307e-19)
(0.658593 0.233023 3.86597e-19)
(0.475055 0.16527 7.43786e-19)
(0.160241 0.0571235 -8.70064e-19)
(0.497084 0.207843 -6.46479e-19)
(1.11225 0.435369 3.2578e-19)
(1.29575 0.531864 2.45988e-19)
(1.302 0.533288 -2.25164e-19)
(1.25441 0.533667 1.10253e-20)
(1.20266 0.523028 5.94885e-20)
(1.14542 0.510448 -5.35202e-21)
(1.0829 0.493908 -2.01009e-20)
(1.01651 0.4722 -5.55462e-20)
(0.94674 0.44362 9.71151e-20)
(0.882266 0.410242 1.29684e-19)
(0.832526 0.378646 2.87692e-19)
(0.794535 0.352151 0)
(0.765258 0.331049 5.41265e-21)
(0.743736 0.313527 -4.78889e-19)
(0.725766 0.300502 1.10018e-19)
(0.703674 0.284415 5.61015e-19)
(0.640205 0.25641 -1.63899e-19)
(0.461335 0.182043 3.54343e-19)
(0.15479 0.0622299 -2.86985e-20)
(0.486648 0.226638 7.00179e-21)
(1.09864 0.480829 3.02564e-19)
(1.28539 0.588138 1.87552e-19)
(1.29242 0.588465 -4.05052e-19)
(1.24398 0.587016 2.52557e-19)
(1.19176 0.573458 -7.54697e-20)
(1.13331 0.558536 2.24582e-21)
(1.06933 0.539467 4.55876e-20)
(1.00127 0.514785 9.99393e-20)
(0.929105 0.483206 -1.23391e-19)
(0.861208 0.446197 0)
(0.807049 0.410955 -1.13295e-19)
(0.769684 0.382473 1.30072e-19)
(0.742991 0.35918 1.74443e-19)
(0.721977 0.341079 -1.00148e-19)
(0.704508 0.325428 -2.52455e-19)
(0.683463 0.308548 -7.67592e-20)
(0.62132 0.277552 -1.29929e-21)
(0.446362 0.196435 0)
(0.148304 0.0663233 0)
(0.478275 0.245184 -3.21183e-19)
(1.0851 0.523435 0)
(1.27364 0.640811 2.16226e-19)
(1.28126 0.64118 -1.00523e-19)
(1.23234 0.637836 -2.62843e-19)
(1.17964 0.621388 7.26295e-20)
(1.11994 0.604247 -3.72426e-21)
(1.05473 0.582897 -2.28081e-20)
(0.984989 0.555658 6.33936e-20)
(0.910408 0.521153 -4.98801e-20)
(0.840866 0.48071 7.27062e-20)
(0.788311 0.443189 3.53735e-19)
(0.749007 0.411382 1.32801e-20)
(0.719672 0.385865 -1.78291e-19)
(0.69884 0.363939 3.44014e-19)
(0.682436 0.348194 4.47413e-21)
(0.66226 0.330112 8.21234e-20)
(0.602276 0.295511 -4.0115e-19)
(0.43037 0.208358 4.08796e-19)
(0.141025 0.069213 -4.85515e-19)
(0.472503 0.265713 1.97954e-23)
(1.07244 0.563581 0)
(1.2609 0.689776 0)
(1.26901 0.690876 9.29017e-20)
(1.21987 0.686028 1.04099e-19)
(1.16681 0.667008 -5.96147e-20)
(1.10603 0.647814 3.19486e-20)
(1.03987 0.624308 0)
(0.968758 0.594748 -1.02519e-19)
(0.892682 0.557766 1.79906e-19)
(0.821296 0.514994 2.20375e-19)
(0.764422 0.472603 -1.33309e-19)
(0.724738 0.437745 -1.67058e-19)
(0.697012 0.409546 3.95032e-19)
(0.676598 0.3884 -1.21761e-19)
(0.659708 0.368683 -1.4781e-19)
(0.638717 0.347822 -9.0598e-20)
(0.579357 0.311192 -4.35523e-19)
(0.413202 0.217676 6.05463e-20)
(0.132587 0.0711273 5.27635e-19)
(0.468807 0.284898 -1.28894e-19)
(1.06045 0.601284 -2.01166e-19)
(1.24719 0.735271 2.39047e-20)
(1.25591 0.737317 3.42596e-22)
(1.20678 0.731363 3.29173e-20)
(1.15359 0.71025 -1.63603e-19)
(1.09201 0.68927 0)
(1.02513 0.66374 1.7127e-20)
(0.952544 0.63219 -1.35051e-20)
(0.874087 0.593233 2.83181e-19)
(0.798948 0.546374 -5.59632e-20)
(0.740947 0.50222 6.11747e-20)
(0.700173 0.464617 0)
(0.670834 0.432828 -2.15645e-19)
(0.650336 0.406028 2.68999e-19)
(0.636113 0.38594 0)
(0.618454 0.365361 -1.98969e-19)
(0.560506 0.324572 5.81701e-19)
(0.395087 0.224817 6.97818e-20)
(0.123632 0.0715447 -6.54787e-19)
(0.466189 0.302258 -2.86452e-19)
(1.04885 0.636548 3.65668e-19)
(1.23317 0.777522 0)
(1.24234 0.780413 2.3243e-19)
(1.19319 0.773595 0)
(1.14003 0.75088 1.51427e-19)
(1.07792 0.728507 0)
(1.01045 0.701258 0)
(0.936453 0.668145 -3.48254e-20)
(0.855994 0.627219 -2.75712e-19)
(0.779518 0.579155 -4.09165e-19)
(0.719675 0.531745 7.71915e-20)
(0.676976 0.489539 2.88767e-19)
(0.648947 0.455352 2.42981e-19)
(0.628638 0.427566 -8.63814e-19)
(0.611501 0.403862 -3.57396e-19)
(0.590409 0.378261 2.07697e-19)
(0.53304 0.333888 0)
(0.375659 0.229355 6.04271e-19)
(0.113637 0.0708569 -7.11412e-19)
(0.464002 0.318306 3.16876e-19)
(1.03755 0.669735 -4.02161e-19)
(1.21919 0.816815 0)
(1.22877 0.820597 -9.76367e-21)
(1.17954 0.813014 -9.54715e-20)
(1.12642 0.788911 0)
(1.06394 0.765431 -1.11125e-20)
(0.996014 0.736742 2.14639e-20)
(0.920883 0.702315 -4.50703e-20)
(0.838961 0.660063 2.7472e-20)
(0.759478 0.609769 0)
(0.69499 0.558373 3.0811e-19)
(0.648457 0.513793 3.772e-21)
(0.614699 0.47361 1.32087e-19)
(0.596034 0.441438 1.59217e-19)
(0.58494 0.416062 0)
(0.570023 0.38802 -3.52538e-19)
(0.513496 0.342459 6.91232e-19)
(0.355522 0.231581 -7.39062e-19)
(0.103481 0.0687541 1.54837e-18)
(0.461883 0.333549 0)
(1.02691 0.701285 0)
(1.20564 0.853479 -2.1858e-19)
(1.21524 0.858072 0)
(1.16583 0.84973 0)
(1.11283 0.824444 2.22958e-19)
(1.05013 0.800062 -1.47462e-20)
(0.981942 0.77018 1.65008e-20)
(0.905816 0.734882 -3.77878e-21)
(0.821918 0.691632 0)
(0.738627 0.639421 -6.54139e-20)
(0.672579 0.587167 -2.5537e-19)
(0.626989 0.538932 -3.20736e-19)
(0.598424 0.497435 -1.33249e-19)
(0.575169 0.461678 1.75693e-19)
(0.558427 0.427154 -4.17723e-19)
(0.537542 0.400596 7.64639e-19)
(0.483001 0.347055 9.55127e-21)
(0.333789 0.231279 -7.15361e-19)
(0.0925382 0.0653036 -1.06275e-19)
(0.459674 0.348165 0)
(1.01673 0.731022 -3.1214e-19)
(1.19247 0.887695 2.45285e-19)
(1.20208 0.893159 0)
(1.15257 0.884131 0)
(1.09966 0.857705 -4.94191e-19)
(1.0368 0.832515 0)
(0.968285 0.801686 0)
(0.891157 0.765726 -7.63119e-20)
(0.805484 0.72181 5.19986e-20)
(0.720725 0.668566 -5.21039e-19)
(0.649867 0.613168 0)
(0.596054 0.560994 -3.47632e-19)
(0.556143 0.512746 1.20635e-20)
(0.536565 0.46746 -5.6139e-19)
(0.526549 0.439944 2.26614e-19)
(0.516162 0.400628 4.83268e-21)
(0.461882 0.34647 -8.22291e-19)
(0.313334 0.227527 3.90618e-19)
(0.084159 0.0611786 1.13701e-19)
(0.457381 0.362084 0)
(1.00727 0.759284 -3.70308e-19)
(1.17968 0.919754 2.60098e-19)
(1.18904 0.925914 5.44028e-19)
(1.1395 0.91619 1.09398e-19)
(1.0868 0.888814 -7.61885e-20)
(1.02391 0.862938 4.63733e-20)
(0.955269 0.831348 -7.65695e-20)
(0.877502 0.794944 8.16314e-20)
(0.790478 0.750757 3.18254e-19)
(0.702003 0.697969 4.32096e-19)
(0.62659 0.643076 8.29702e-20)
(0.57183 0.590789 5.05123e-19)
(0.538253 0.53774 3.28441e-19)
(0.512859 0.495159 4.05448e-19)
(0.497031 0.444855 -2.54211e-19)
(0.478198 0.406763 -3.04045e-19)
(0.428805 0.345056 3.58669e-19)
(0.288929 0.221523 -2.13924e-19)
(0.0773837 0.0563516 3.72968e-19)
(0.454919 0.375289 4.96228e-19)
(0.997942 0.785451 5.87436e-19)
(1.16725 0.949591 1.4243e-19)
(1.17651 0.956511 1.58255e-20)
(1.1271 0.946178 -3.80846e-19)
(1.07459 0.917922 1.43092e-19)
(1.01175 0.891443 -5.33605e-20)
(0.942948 0.859192 -2.16794e-20)
(0.864578 0.822615 -7.26183e-20)
(0.776166 0.778404 -3.55243e-19)
(0.684725 0.725259 2.58449e-20)
(0.606374 0.668064 0)
(0.544134 0.610829 0)
(0.493542 0.557261 -1.66777e-19)
(0.465425 0.498562 -6.64875e-19)
(0.455417 0.450056 5.51142e-19)
(0.449683 0.39407 3.39489e-19)
(0.408626 0.327381 0)
(0.279183 0.199595 6.80767e-19)
(0.0711387 0.0416527 -4.07193e-19)
(0.452469 0.387535 -2.65359e-19)
(0.989158 0.810256 2.25894e-19)
(1.15515 0.977508 -3.194e-19)
(1.16418 0.984995 -3.4298e-19)
(1.11493 0.974018 -1.5102e-19)
(1.06274 0.945073 3.3698e-20)
(1.00007 0.918073 0)
(0.931304 0.885376 1.15453e-19)
(0.852431 0.848675 1.3392e-20)
(0.76268 0.804896 0)
(0.668815 0.752726 0)
(0.585582 0.697012 5.77682e-20)
(0.519939 0.640292 8.85937e-20)
(0.47489 0.581444 -1.7924e-19)
(0.439796 0.52382 4.80652e-19)
(0.415527 0.456175 -6.05132e-19)
(0.400969 0.394468 -7.33274e-19)
(0.375315 0.308972 6.54435e-19)
(0.287849 0.200428 -2.45812e-19)
(0.140896 0.106268 1.40917e-19)
(0.449615 0.398968 3.06978e-19)
(0.980343 0.832922 0)
(1.14346 1.00337 0)
(1.15245 1.0115 -1.15529e-19)
(1.10349 0.999969 9.34855e-20)
(1.05156 0.970372 -2.05348e-20)
(0.989133 0.942944 -2.03926e-19)
(0.920395 0.909907 -1.91507e-19)
(0.841165 0.873223 8.00301e-20)
(0.750169 0.830076 -2.84706e-20)
(0.653805 0.778558 6.83406e-20)
(0.565928 0.722755 -4.74545e-19)
(0.49346 0.666504 -5.21791e-19)
(0.428301 0.607514 -9.53544e-20)
(0.382824 0.536265 0)
(0.358324 0.472247 -1.38668e-20)
(0.350613 0.363644 3.98925e-19)
(0.326325 0.221273 -6.92154e-19)
(0.301558 0.0510889 5.117e-19)
(0.094195 -0.065081 4.11362e-19)
(0.446802 0.410084 -6.66205e-19)
(0.972043 0.854561 -2.84309e-19)
(1.13205 1.0277 5.25535e-21)
(1.14083 1.03633 1.47671e-19)
(1.09212 1.02426 0)
(1.04056 0.994242 4.34279e-19)
(0.978449 0.966528 2.53133e-19)
(0.909845 0.933331 -4.38175e-20)
(0.830426 0.897028 -2.78921e-20)
(0.73861 0.854593 -2.67099e-20)
(0.640356 0.804747 2.48091e-20)
(0.548886 0.752897 4.19447e-19)
(0.467675 0.698054 5.10287e-19)
(0.40867 0.633129 9.16617e-20)
(0.357411 0.577464 5.04263e-19)
(0.30189 0.485184 0)
(0.212939 0.375853 0)
(0.0822023 0.3515 5.09877e-19)
(-0.0457609 0.636115 -3.1631e-20)
(-0.00382971 1.45454 -6.56359e-19)
(0.44372 0.420404 3.60366e-19)
(0.963767 0.87441 8.49162e-19)
(1.12102 1.05043 -1.26952e-18)
(1.12974 1.05976 7.63201e-19)
(1.08134 1.04734 -8.87489e-20)
(1.03003 1.01704 5.69483e-19)
(0.968169 0.989224 0)
(0.899663 0.956183 2.03295e-19)
(0.820007 0.920511 0)
(0.727415 0.879104 2.54337e-19)
(0.626321 0.831266 -3.87673e-20)
(0.530469 0.780307 4.34678e-20)
(0.448816 0.728657 5.63894e-19)
(0.361449 0.678688 -2.06956e-19)
(0.274587 0.609031 -2.65259e-19)
(0.204611 0.553956 0)
(0.113537 0.636556 0)
(0.0555563 1.18345 0)
(0.088541 2.39071 -2.88111e-19)
(0.12052 2.87539 -1.78019e-19)
(0.440742 0.429904 0)
(0.955979 0.893328 0)
(1.11026 1.0719 4.54074e-19)
(1.11881 1.08179 -6.36032e-19)
(1.07066 1.06905 4.35705e-19)
(1.01968 1.03868 -5.21791e-19)
(0.958211 1.01095 -2.93914e-20)
(0.890011 0.978265 2.28851e-20)
(0.810431 0.943287 7.15996e-21)
(0.71674 0.903871 -2.89309e-19)
(0.613449 0.859652 5.90579e-20)
(0.514122 0.815892 3.91715e-19)
(0.415533 0.769958 -5.55854e-19)
(0.342591 0.708983 -6.46962e-19)
(0.280218 0.672756 2.25935e-19)
(0.215992 0.781189 0)
(0.162064 1.43765 3.23025e-19)
(0.166077 2.64385 3.70691e-19)
(0.166539 3.07131 -4.14737e-19)
(0.15802 3.21571 4.68039e-19)
(0.437591 0.438432 0)
(0.948125 0.910409 6.90997e-19)
(1.09994 1.09184 -1.17631e-19)
(1.10849 1.10252 8.01391e-19)
(1.06062 1.08963 -4.57332e-19)
(1.00993 1.05926 0)
(0.948775 1.03169 0)
(0.880782 0.99947 0)
(0.801184 0.965825 -6.64386e-20)
(0.707619 0.928425 3.22149e-21)
(0.60393 0.886877 0)
(0.500964 0.844146 -3.82285e-19)
(0.414212 0.804145 0)
(0.300123 0.771662 4.60663e-19)
(0.227359 0.843496 -2.98958e-19)
(0.180952 1.4054 -2.49618e-19)
(0.200937 2.63334 -6.10622e-19)
(0.219231 3.12147 -3.0327e-19)
(0.208066 3.2757 -3.46598e-19)
(0.192198 3.31852 3.08174e-19)
(0.434546 0.446419 -2.33979e-19)
(0.940782 0.926798 1.41746e-20)
(1.08993 1.1107 -1.26789e-19)
(1.09835 1.12203 -6.41206e-19)
(1.05072 1.109 0)
(1.00036 1.07881 0)
(0.939627 1.05158 0)
(0.872028 1.02012 -1.42536e-20)
(0.792763 0.987675 7.46725e-20)
(0.698689 0.952379 0)
(0.592926 0.914829 0)
(0.490425 0.879745 0)
(0.383318 0.851061 0)
(0.318838 0.848268 3.03538e-19)
(0.302579 1.16475 7.85212e-19)
(0.299259 2.276 2.43035e-19)
(0.314677 3.07246 4.37107e-19)
(0.304505 3.29723 -2.72093e-19)
(0.250489 3.36981 1.00496e-19)
(0.214978 3.38355 0)
(0.43123 0.453772 2.37066e-19)
(0.933159 0.94193 -1.48981e-18)
(1.08009 1.12869 -4.19379e-19)
(1.08861 1.14089 -1.02304e-19)
(1.04124 1.12787 1.16833e-19)
(0.991222 1.09787 -8.23765e-19)
(0.93089 1.07096 5.57179e-20)
(0.863779 1.04021 3.7955e-19)
(0.784883 1.00911 0)
(0.691087 0.976472 -1.61669e-20)
(0.586049 0.943139 1.47074e-20)
(0.476815 0.910928 0)
(0.389228 0.887941 0)
(0.336459 1.00276 -3.75892e-19)
(0.316393 1.7736 -2.13581e-21)
(0.32112 2.89334 -1.24968e-19)
(0.33831 3.29508 1.94718e-19)
(0.309287 3.40921 5.30335e-20)
(0.239374 3.44003 1.31798e-19)
(0.211497 3.44873 -6.73136e-20)
(0.427605 0.461166 4.5661e-19)
(0.925349 0.957915 1.42489e-18)
(1.06968 1.14725 5.15569e-19)
(1.0782 1.16007 0)
(1.03114 1.14693 0)
(0.981585 1.1171 6.31224e-19)
(0.921843 1.09053 -3.89343e-19)
(0.855275 1.06052 -3.49127e-19)
(0.777045 1.03103 -1.37782e-20)
(0.683881 1.00103 4.83059e-20)
(0.577625 0.972249 -2.75646e-19)
(0.472894 0.947553 0)
(0.392393 0.963922 0)
(0.379099 1.30843 -2.10097e-19)
(0.395497 2.35336 -2.6883e-19)
(0.435323 3.19001 0)
(0.464304 3.39996 1.08598e-19)
(0.394038 3.47213 2.34684e-19)
(0.311597 3.51631 -5.22e-19)
(0.282719 3.54276 3.02034e-19)
(0.423195 0.468435 -8.65995e-19)
(0.916281 0.9738 -6.77903e-19)
(1.05836 1.16639 0)
(1.06722 1.18 0)
(1.02059 1.16675 0)
(0.97158 1.13693 0)
(0.912492 1.11053 4.15791e-19)
(0.846866 1.08126 -4.5409e-19)
(0.769644 1.05306 0)
(0.677189 1.02543 -3.84294e-20)
(0.573621 1.00115 4.55344e-19)
(0.467298 0.984043 2.37936e-20)
(0.410168 1.05828 4.05598e-20)
(0.425357 1.6458 3.08936e-19)
(0.465253 2.82236 -7.5531e-20)
(0.509005 3.33282 0)
(0.492373 3.47714 -8.84131e-20)
(0.394785 3.56867 1.12927e-19)
(0.2937 3.65141 3.85834e-19)
(0.213707 3.63765 -3.34479e-19)
(0.418257 0.476047 4.10391e-19)
(0.90659 0.991214 -6.66049e-19)
(1.04596 1.18667 0)
(1.05507 1.20062 -1.64133e-19)
(1.00892 1.18704 6.22581e-19)
(0.960663 1.15716 0)
(0.902595 1.13086 0)
(0.838012 1.10207 8.50337e-19)
(0.762012 1.07524 1.33858e-20)
(0.671174 1.05028 -6.77568e-20)
(0.567392 1.03054 -1.92845e-19)
(0.474783 1.02665 1.51716e-19)
(0.445606 1.20056 0)
(0.502211 2.03801 -1.44397e-19)
(0.555523 3.09932 1.21445e-19)
(0.609294 3.44373 -5.43853e-20)
(0.602413 3.56415 0)
(0.517465 3.68802 -2.26684e-19)
(0.434412 3.73918 -8.37931e-19)
(0.344927 3.71172 -2.08675e-19)
(0.412206 0.483381 -7.95108e-19)
(0.895202 1.00831 9.48047e-19)
(1.03233 1.20748 7.00561e-19)