/*--------------------------------*- C++ -*----------------------------------*\
  =========                 |
  \\      /  F ield         | OpenFOAM: The Open Source CFD Toolbox
   \\    /   O peration     | Website:  https://openfoam.org
    \\  /    A nd           | Version:  9
     \\/     M anipulation  |
\*---------------------------------------------------------------------------*/
FoamFile
{
    format      ascii;
    class       volScalarField;
    location    "29";
    object      p;
}
// * * * * * * * * * * * * * * * * * * * * * * * * * * * * * * * * * * * * * //

dimensions      [0 2 -2 0 0 0 0];

internalField   nonuniform List<scalar> 
2200
(
0.777698
0.756197
0.740289
0.724617
0.710003
0.697475
0.687108
0.678986
0.673242
0.670192
0.67055
0.67424
0.680453
0.688908
0.699508
0.712226
0.726958
0.742774
0.758764
0.780274
0.71013
0.706871
0.703945
0.699825
0.694361
0.687881
0.681249
0.675264
0.670721
0.668233
0.668597
0.671754
0.6768
0.68316
0.690057
0.696721
0.702332
0.70646
0.709363
0.712682
0.670251
0.670471
0.672531
0.673868
0.674247
0.673387
0.671375
0.668641
0.66602
0.664439
0.664855
0.667152
0.670318
0.673454
0.675735
0.676725
0.676448
0.675346
0.673546
0.673306
0.647794
0.64925
0.651837
0.654273
0.65671
0.658716
0.659849
0.660062
0.659614
0.659196
0.659664
0.660896
0.661956
0.662202
0.661433
0.659695
0.657461
0.655195
0.652613
0.651185
0.633437
0.6354
0.638229
0.641087
0.643953
0.646765
0.649215
0.651055
0.65224
0.652924
0.653474
0.653745
0.653298
0.652016
0.650006
0.647519
0.644864
0.642086
0.639289
0.637361
0.626266
0.627858
0.630066
0.632597
0.635247
0.637886
0.640416
0.642752
0.644668
0.646012
0.646659
0.646454
0.64543
0.643766
0.641715
0.639457
0.637061
0.634675
0.63255
0.630975
0.62303
0.624057
0.625326
0.627186
0.629314
0.631446
0.63355
0.635719
0.637782
0.639424
0.640204
0.639965
0.638968
0.637584
0.636056
0.634343
0.63253
0.630874
0.629712
0.628695
0.620414
0.621066
0.621725
0.623083
0.624754
0.626469
0.628195
0.630037
0.631943
0.633678
0.634629
0.634603
0.634
0.633126
0.632109
0.630926
0.629668
0.628578
0.628043
0.627388
0.617475
0.617893
0.618336
0.61941
0.62075
0.622178
0.623668
0.625262
0.626944
0.628623
0.629777
0.63017
0.630074
0.629703
0.629103
0.628345
0.627478
0.626726
0.626428
0.625999
0.613969
0.614254
0.614662
0.615628
0.616846
0.6182
0.61965
0.621166
0.622736
0.62438
0.625816
0.626733
0.627108
0.627076
0.62672
0.626154
0.625508
0.62493
0.624686
0.624394
0.609702
0.609874
0.610278
0.611253
0.612534
0.614037
0.615722
0.617499
0.619315
0.621186
0.622988
0.624283
0.62492
0.62495
0.624607
0.624078
0.623509
0.622988
0.622757
0.622565
0.604996
0.60508
0.605478
0.60645
0.607792
0.609432
0.611367
0.613544
0.615903
0.618345
0.620548
0.621978
0.622607
0.622655
0.622394
0.621988
0.621497
0.621067
0.620878
0.62078
0.600247
0.600269
0.600662
0.601585
0.602888
0.604518
0.606461
0.608762
0.611501
0.614503
0.617206
0.619019
0.619979
0.620468
0.620576
0.620404
0.620112
0.619833
0.619706
0.619662
0.595591
0.595514
0.595918
0.596724
0.598032
0.599633
0.601529
0.603832
0.606693
0.610101
0.613489
0.616144
0.617945
0.619072
0.61963
0.619799
0.61978
0.619705
0.61964
0.619618
0.590858
0.59076
0.591118
0.591937
0.593271
0.59502
0.597128
0.599718
0.602916
0.606836
0.611007
0.61449
0.616978
0.618603
0.619602
0.620171
0.620435
0.620525
0.620522
0.620503
0.585714
0.585721
0.585995
0.586804
0.588331
0.590275
0.592778
0.595962
0.599913
0.604731
0.609857
0.614082
0.617067
0.619108
0.620519
0.621385
0.621866
0.62211
0.622189
0.622171
0.579748
0.579711
0.580091
0.581003
0.582537
0.584658
0.587531
0.591329
0.596187
0.602213
0.608612
0.613882
0.617646
0.620323
0.622227
0.623461
0.62422
0.624649
0.624798
0.624767
0.572464
0.572393
0.572806
0.573839
0.575519
0.577878
0.581134
0.585533
0.591343
0.598733
0.606735
0.61346
0.618402
0.622002
0.624561
0.626315
0.62746
0.628109
0.628337
0.628285
0.563639
0.563564
0.563998
0.565145
0.567128
0.569972
0.573911
0.57926
0.586324
0.595348
0.605231
0.61359
0.61984
0.624416
0.627732
0.630075
0.631651
0.632517
0.632807
0.632725
0.552853
0.552792
0.553359
0.554797
0.557263
0.560853
0.565862
0.57261
0.581473
0.592638
0.604694
0.614832
0.622417
0.627991
0.632055
0.634915
0.636833
0.637869
0.638229
0.63813
0.539691
0.539597
0.540325
0.542162
0.545332
0.549953
0.556338
0.564954
0.576165
0.590029
0.604703
0.616976
0.626077
0.632799
0.637625
0.641044
0.643361
0.644587
0.645007
0.644881
0.522997
0.522938
0.523958
0.526394
0.53054
0.536553
0.544858
0.55591
0.57002
0.587156
0.604969
0.619751
0.630654
0.638724
0.644555
0.648697
0.651426
0.652858
0.65335
0.653195
0.502028
0.501899
0.503283
0.50659
0.512181
0.5203
0.531287
0.545544
0.563295
0.584322
0.605764
0.623409
0.636423
0.646013
0.652984
0.657962
0.661242
0.662957
0.663522
0.663306
0.474471
0.474586
0.476859
0.481656
0.489577
0.500812
0.515537
0.534072
0.556306
0.5819
0.607477
0.62826
0.643549
0.654828
0.663089
0.668988
0.672853
0.67484
0.675472
0.675216
0.437826
0.438195
0.441988
0.449778
0.461628
0.477673
0.497711
0.52165
0.549309
0.580217
0.610352
0.634501
0.652201
0.665286
0.674925
0.681875
0.686451
0.688804
0.68951
0.68914
0.388999
0.389527
0.396824
0.409693
0.427918
0.451067
0.47793
0.508499
0.542495
0.579281
0.614268
0.641963
0.662241
0.677258
0.688433
0.696566
0.701941
0.704554
0.705206
0.704761
0.323514
0.326521
0.342236
0.363961
0.390942
0.422236
0.456972
0.495063
0.536162
0.579571
0.620177
0.652178
0.675748
0.693431
0.706736
0.716696
0.723509
0.726608
0.727161
0.726897
0.248112
0.258329
0.284821
0.31641
0.353158
0.393347
0.436124
0.482024
0.530529
0.581009
0.627853
0.664863
0.692493
0.713557
0.729753
0.741987
0.750939
0.755036
0.755961
0.756239
0.181741
0.197517
0.23065
0.270479
0.316353
0.365152
0.416048
0.469719
0.525467
0.582798
0.63566
0.677355
0.708479
0.732258
0.750608
0.7647
0.774609
0.780069
0.781741
0.781728
0.132021
0.14599
0.184343
0.229951
0.282846
0.33876
0.39699
0.45787
0.520525
0.584525
0.643049
0.688914
0.722816
0.748714
0.768881
0.784399
0.794932
0.80052
0.802138
0.802255
0.0910823
0.104094
0.145758
0.195188
0.253335
0.314886
0.379364
0.446644
0.515649
0.585781
0.649319
0.698634
0.73492
0.762374
0.783198
0.799052
0.810164
0.815962
0.817855
0.818007
0.0556842
0.068959
0.112978
0.165245
0.227426
0.293517
0.36322
0.435989
0.510544
0.586049
0.65422
0.70672
0.744867
0.773021
0.794444
0.810676
0.822027
0.828194
0.830271
0.830436
0.0247871
0.0381944
0.0841482
0.138783
0.204288
0.274173
0.348249
0.425653
0.505067
0.585484
0.657835
0.712956
0.752409
0.781624
0.803532
0.819926
0.831673
0.838076
0.840391
0.840515
-0.00309972
0.0103703
0.0579693
0.114801
0.18323
0.256305
0.334059
0.415473
0.499274
0.584301
0.66053
0.718077
0.758964
0.78888
0.811245
0.827911
0.839621
0.84638
0.848477
0.848338
-0.0285995
-0.0151658
0.0336617
0.0925931
0.163634
0.23943
0.320365
0.405355
0.49313
0.582296
0.662069
0.722121
0.764717
0.795519
0.818254
0.835128
0.846742
0.853227
0.85546
0.855332
-0.0527121
-0.038983
0.010807
0.0717462
0.145122
0.223287
0.306978
0.395104
0.486348
0.579149
0.662733
0.725892
0.770094
0.801799
0.824998
0.841866
0.853454
0.859867
0.862072
0.862057
-0.0753882
-0.0615197
-0.0109283
0.0518521
0.127282
0.207598
0.293727
0.384586
0.479003
0.575648
0.663412
0.729525
0.77549
0.808282
0.831706
0.848611
0.860224
0.866427
0.868725
0.868698
-0.0968002
-0.0829583
-0.0316991
0.032633
0.109808
0.192115
0.280476
0.373827
0.471243
0.571506
0.662797
0.732125
0.780686
0.814554
0.838552
0.855589
0.867181
0.873308
0.875414
0.875405
-0.117452
-0.103421
-0.051721
0.0138891
0.0925339
0.176674
0.267129
0.3628
0.462871
0.566311
0.661726
0.734785
0.785612
0.820961
0.845732
0.862897
0.874382
0.880215
0.882298
0.88221
-0.137805
-0.123139
-0.0711236
-0.0044561
0.0754037
0.161198
0.253592
0.351378
0.454002
0.560779
0.66017
0.736485
0.790268
0.827816
0.853447
0.870697
0.881769
0.887414
0.889138
0.888973
-0.157845
-0.14238
-0.0900322
-0.0224028
0.058481
0.145707
0.239831
0.339629
0.444647
0.554179
0.656534
0.736954
0.794569
0.834796
0.861878
0.879257
0.889608
0.894402
0.895811
0.895561
-0.177439
-0.161228
-0.108466
-0.039915
0.0418416
0.130277
0.22591
0.327487
0.434434
0.546317
0.652313
0.737112
0.798456
0.841937
0.871232
0.889002
0.898131
0.901602
0.902125
0.901887
-0.196417
-0.179665
-0.126414
-0.0569638
0.0255731
0.115011
0.211859
0.314862
0.423596
0.537821
0.646892
0.73517
0.801243
0.849179
0.881601
0.900743
0.908654
0.908219
0.907453
0.907991
-0.214756
-0.197602
-0.14382
-0.0735095
0.0097312
0.099968
0.19777
0.301976
0.412294
0.528439
0.639923
0.732423
0.803171
0.855828
0.892862
0.914849
0.922684
0.918043
0.91265
0.910426
-0.23242
-0.214941
-0.160638
-0.0895383
-0.0056543
0.0852474
0.183821
0.289001
0.400531
0.518301
0.632049
0.727951
0.803023
0.861655
0.904726
0.931927
0.94402
0.933568
0.929178
0.933851
-0.249421
-0.231622
-0.176816
-0.105013
-0.0205421
0.0709261
0.170103
0.276003
0.3885
0.507591
0.62326
0.721504
0.800883
0.865305
0.915671
0.950896
0.971651
0.950445
0.906108
0.863336
-0.26569
-0.247646
-0.192391
-0.120018
-0.0350664
0.056848
0.156458
0.26285
0.376079
0.496275
0.613266
0.713022
0.7956
0.86568
0.924234
0.970679
1.00679
1.01068
1.02909
1.08063
-0.281192
-0.263072
-0.207453
-0.134687
-0.0494176
0.0427687
0.142617
0.249265
0.362839
0.483587
0.600991
0.701795
0.786389
0.860213
0.92264
0.971541
1.00058
0.998507
0.967594
0.97678
-0.295891
-0.277862
-0.221957
-0.148966
-0.0635231
0.0287736
0.128688
0.235344
0.348859
0.469444
0.586991
0.687864
0.771526
0.844818
0.905989
0.950902
0.953011
0.91078
0.853003
0.843175
-0.30981
-0.292022
-0.235901
-0.162844
-0.0773669
0.0148673
0.11466
0.22107
0.334127
0.454086
0.571048
0.670384
0.751258
0.818391
0.872394
0.890422
0.861342
0.791524
0.720367
0.705974
-0.322981
-0.305538
-0.249297
-0.176335
-0.0909615
0.00103519
0.10051
0.206406
0.318662
0.437519
0.552957
0.649765
0.72439
0.77898
0.808572
0.800648
0.752152
0.653155
0.567302
0.54939
-0.335864
-0.318834
-0.262543
-0.189804
-0.104652
-0.01303
0.0859638
0.191137
0.30231
0.419512
0.532597
0.625488
0.692846
0.731395
0.726998
0.694071
0.58993
0.469286
0.362977
0.339263
-0.349353
-0.332684
-0.276338
-0.203878
-0.119013
-0.027806
0.0706193
0.174932
0.284784
0.39989
0.509819
0.598059
0.658125
0.673428
0.6374
0.552443
0.396598
0.244551
0.117015
0.0918147
-0.363958
-0.347526
-0.291
-0.218792
-0.134225
-0.0434125
0.0544046
0.157759
0.266127
0.37876
0.484609
0.567208
0.615354
0.603878
0.546208
0.397133
0.193573
-0.0220743
-0.20365
-0.249858
-0.37976
-0.363408
-0.306584
-0.234568
-0.15026
-0.059809
0.0373758
0.139701
0.246409
0.356108
0.457034
0.533874
0.567716
0.524313
0.432394
0.238389
-0.00166421
-0.299084
-0.628152
-0.771545
-0.396821
-0.380462
-0.323189
-0.251279
-0.167162
-0.0770467
0.0194894
0.120694
0.225607
0.332214
0.427475
0.497969
0.514583
0.439168
0.296485
0.07945
-0.167848
-0.526547
-1.131
-1.71217
-0.415168
-0.398708
-0.340875
-0.268976
-0.184938
-0.0951025
0.000798344
0.10087
0.20394
0.307226
0.396498
0.459238
0.458782
0.362535
0.164215
-0.0864645
-0.305494
-0.560237
-1.14877
-2.73102
-0.434818
-0.418262
-0.359708
-0.287768
-0.20374
-0.11417
-0.0189231
0.0799209
0.180976
0.280917
0.364508
0.418246
0.399678
0.301383
0.0638535
-0.198145
-0.359844
-0.413075
-0.42635
-0.82874
-0.455685
-0.439145
-0.379863
-0.307946
-0.223929
-0.1347
-0.0402591
0.0571514
0.155911
0.251996
0.330006
0.373483
0.336869
0.253397
0.0145408
-0.21619
-0.344842
-0.360933
-0.314742
-0.358845
-0.477745
-0.461217
-0.401297
-0.329546
-0.245572
-0.156813
-0.063338
0.0324274
0.128516
0.220148
0.293438
0.327279
0.281051
0.199614
-0.023898
-0.207721
-0.303691
-0.313727
-0.35988
-0.370093
-0.500897
-0.484234
-0.423997
-0.352576
-0.268601
-0.180459
-0.0881271
0.00577192
0.098868
0.186042
0.254766
0.279706
0.231123
0.136892
-0.0558088
-0.199953
-0.286009
-0.252155
-0.276581
-0.278771
-0.524915
-0.50784
-0.447848
-0.376893
-0.292861
-0.205556
-0.114527
-0.0226034
0.0672889
0.149749
0.213561
0.229065
0.187163
0.0686614
-0.0936497
-0.200777
-0.259386
-0.293305
-0.272827
-0.279447
-0.549256
-0.531863
-0.472817
-0.402303
-0.318076
-0.231829
-0.142203
-0.0524184
0.0339558
0.111856
0.171186
0.175474
0.143998
0.0033277
-0.134814
-0.210083
-0.207456
-0.270134
-0.243952
-0.252058
-0.573415
-0.555963
-0.498416
-0.428205
-0.343921
-0.258999
-0.170869
-0.083235
-0.000789818
0.0727347
0.129145
0.123022
0.0951127
-0.0491067
-0.169822
-0.239326
-0.206001
-0.243287
-0.241207
-0.243121
-0.596894
-0.579838
-0.523845
-0.453973
-0.370052
-0.286586
-0.199925
-0.114535
-0.0361078
0.032991
0.0882963
0.0729412
0.0351535
-0.0948695
-0.183366
-0.240931
-0.258402
-0.243449
-0.248195
-0.244073
-0.619011
-0.602684
-0.54802
-0.478705
-0.396063
-0.313969
-0.228771
-0.145537
-0.0711101
-0.00704153
0.0491192
0.0235408
-0.0297076
-0.136767
-0.187839
-0.216955
-0.280919
-0.239048
-0.249758
-0.241369
-0.638817
-0.62357
-0.570369
-0.50184
-0.421361
-0.340344
-0.256601
-0.175471
-0.104191
-0.0464197
0.0115807
-0.0220045
-0.10269
-0.191856
-0.200415
-0.154001
-0.236395
-0.213695
-0.243877
-0.239193
-0.655195
-0.641361
-0.590042
-0.522742
-0.444699
-0.364563
-0.282362
-0.203346
-0.1344
-0.0835846
-0.0247996
-0.0634145
-0.177569
-0.255881
-0.219224
-0.102865
-0.153811
-0.19261
-0.219446
-0.236491
-0.667056
-0.655042
-0.606364
-0.540617
-0.464595
-0.38568
-0.30514
-0.227718
-0.160321
-0.116003
-0.0604415
-0.0914513
-0.256866
-0.3934
-0.407326
-0.401959
-0.406633
-0.401296
-0.40105
-0.394313
-0.673393
-0.663394
-0.617916
-0.554095
-0.479852
-0.402339
-0.323437
-0.24756
-0.180466
-0.139698
-0.0938477
-0.111945
-0.328837
-0.630655
-0.94064
-1.10203
-1.12479
-1.07662
-1.0092
-0.940941
-0.673367
-0.665281
-0.623604
-0.561792
-0.489247
-0.413418
-0.335959
-0.261001
-0.193787
-0.150618
-0.117031
-0.122255
-0.352621
-0.744998
-1.29059
-1.60151
-1.63658
-1.55379
-1.44495
-1.36317
-0.666002
-0.658881
-0.621612
-0.562615
-0.492136
-0.417878
-0.341417
-0.266105
-0.196036
-0.14602
-0.113631
-0.103356
-0.268768
-0.517137
-0.841052
-0.989612
-0.935612
-0.839372
-0.695741
-0.621961
-0.64838
-0.641141
-0.61009
-0.555408
-0.487523
-0.414659
-0.338604
-0.261996
-0.185834
-0.12209
-0.0752576
-0.00872908
0.017014
0.147759
0.274552
0.41013
0.555781
0.65856
0.722328
0.778892
-0.616024
-0.609377
-0.587763
-0.540056
-0.475602
-0.404099
-0.32778
-0.248439
-0.163601
-0.0785334
-0.0038805
0.141398
0.346884
0.7116
1.08688
1.39679
1.61858
1.75847
1.83089
1.8565
-0.569328
-0.564756
-0.556555
-0.517589
-0.457236
-0.386464
-0.309891
-0.227253
-0.1355
-0.0298958
0.0756191
0.230459
0.536925
0.956782
1.37534
1.72863
1.98756
2.14156
2.20875
2.22468
-0.530154
-0.529165
-0.525252
-0.492561
-0.436212
-0.366237
-0.288298
-0.204019
-0.111013
0.00266627
0.122307
0.233957
0.513842
0.861753
1.21393
1.51734
1.74844
1.88911
1.95422
1.97348
-0.500367
-0.502229
-0.495981
-0.468767
-0.413702
-0.345109
-0.267696
-0.184951
-0.0965699
0.0069126
0.11759
0.194158
0.392829
0.662863
0.933348
1.15875
1.33512
1.44983
1.50496
1.52286
-0.46161
-0.463319
-0.461282
-0.439953
-0.386956
-0.321821
-0.248272
-0.170138
-0.0900859
-0.00460637
0.0944798
0.154564
0.280899
0.491076
0.708504
0.877275
1.00854
1.10157
1.14417
1.1555
-0.408412
-0.409406
-0.411744
-0.394981
-0.349747
-0.292566
-0.227765
-0.157993
-0.0882665
-0.0190019
0.0677646
0.120508
0.190548
0.346448
0.516828
0.64186
0.735783
0.804524
0.834608
0.840732
-0.335513
-0.337257
-0.33852
-0.327415
-0.294604
-0.251925
-0.200948
-0.143676
-0.0843408
-0.0273489
0.0455477
0.092566
0.131527
0.243051
0.369354
0.458574
0.524753
0.572553
0.595681
0.603058
-0.249609
-0.251303
-0.251902
-0.245105
-0.225918
-0.198952
-0.163601
-0.121962
-0.0728596
-0.0281365
0.0292664
0.0697348
0.0935753
0.176029
0.266038
0.324967
0.373787
0.412595
0.428561
0.43334
-0.166264
-0.167522
-0.16829
-0.165265
-0.156115
-0.141597
-0.120586
-0.0943739
-0.0566189
-0.0247751
0.0164191
0.05282
0.0656731
0.131045
0.19719
0.236076
0.272638
0.299135
0.31283
0.317957
-0.0990581
-0.0999446
-0.10089
-0.100377
-0.0975484
-0.0918827
-0.0813957
-0.0671075
-0.0409593
-0.0198246
0.0081909
0.0382343
0.0470492
0.0987326
0.144808
0.176911
0.201617
0.21799
0.226217
0.228025
-0.0530274
-0.0535804
-0.0546601
-0.0566108
-0.0581299
-0.0571757
-0.0526189
-0.0451977
-0.0295059
-0.0137436
0.00581088
0.0240434
0.0369869
0.0728318
0.103543
0.127449
0.143735
0.151199
0.153417
0.152704
-0.0264041
-0.0268665
-0.0280987
-0.0306906
-0.0339564
-0.035578
-0.0342933
-0.0305598
-0.0207231
-0.00786456
0.006776
0.0159578
0.0258933
0.0512931
0.0719528
0.0867392
0.0951981
0.095867
0.0941862
0.0931991
-0.0131657
-0.0134863
-0.0145603
-0.0168297
-0.020284
-0.0227302
-0.0228615
-0.0208855
-0.0130642
-0.00245577
0.00962034
0.0147588
0.0189309
0.0372025
0.0528488
0.0608235
0.0639818
0.0654111
0.0637846
0.0613347
-0.00897859
-0.0091019
-0.0097623
-0.0114668
-0.0141691
-0.0163611
-0.0166483
-0.0151066
-0.00711325
0.00263227
0.0164296
0.0208408
0.0237216
0.0358285
0.0472376
0.0522984
0.0543532
0.0552845
0.0539609
0.0509623
-0.0121574
-0.0120713
-0.0122384
-0.0131198
-0.0146115
-0.0157383
-0.0148327
-0.0119644
-0.0043219
0.00735979
0.0276921
0.0347131
0.0386576
0.044016
0.0513413
0.0536708
0.0510819
0.0443707
0.0418383
0.0409581
-0.0224863
-0.0221458
-0.0217998
-0.0217088
-0.0219846
-0.0214826
-0.0196693
-0.0136877
-0.00407858
0.0105344
0.0333991
0.0501354
0.0553096
0.0579273
0.0591188
0.0566767
0.0553128
0.0509219
0.0484053
0.0489528
-0.041568
-0.0406781
-0.0403321
-0.0387998
-0.0379315
-0.0359589
-0.0329649
-0.0255661
-0.0147797
0.00383959
0.0345828
0.0567446
0.0682311
0.0668172
0.0721509
0.0760853
0.0912025
0.10498
0.106551
0.10447
-0.0681041
-0.0673392
-0.0665589
-0.0652503
-0.0637304
-0.0606271
-0.0568304
-0.0488519
-0.0385462
-0.0184164
0.0150917
0.0446798
0.0671056
0.0609551
0.0864693
0.104845
0.129385
0.153974
0.16513
0.154008
-0.103987
-0.103133
-0.10243
-0.101105
-0.0994316
-0.0968596
-0.0941375
-0.0891525
-0.0829962
-0.0657579
-0.0313072
0.00303268
0.0140002
0.0155211
0.0539188
0.0873612
0.106516
0.119321
0.131706
0.12427
-0.149281
-0.148463
-0.14773
-0.147022
-0.146455
-0.1463
-0.14759
-0.150682
-0.153959
-0.145632
-0.106601
-0.0544097
-0.0532422
-0.0432992
-0.00872162
0.0215651
0.0419846
0.0414305
0.0492549
0.0500705
-0.202754
-0.202334
-0.202205
-0.202427
-0.203886
-0.208194
-0.217785
-0.234783
-0.25476
-0.26235
-0.215278
-0.130414
-0.109787
-0.0879913
-0.0529857
-0.0237751
0.0138493
0.022029
0.011116
0.0159985
-0.256745
-0.256853
-0.257802
-0.260052
-0.265498
-0.277226
-0.299731
-0.336671
-0.383788
-0.421135
-0.369607
-0.236405
-0.195398
-0.142593
-0.0851349
-0.0507144
-0.0166287
0.00739441
-0.0104284
-0.00958428
-0.303302
-0.304203
-0.306622
-0.311386
-0.321636
-0.342702
-0.381875
-0.445313
-0.538181
-0.610043
-0.551323
-0.381821
-0.315099
-0.23186
-0.155911
-0.100095
-0.0946919
-0.0775036
-0.076778
-0.0779217
-0.326328
-0.327993
-0.33233
-0.340535
-0.356026
-0.38655
-0.443019
-0.536934
-0.675757
-0.775607
-0.716267
-0.538202
-0.42787
-0.304065
-0.223311
-0.158036
-0.133329
-0.154205
-0.141355
-0.14306
-0.319919
-0.321891
-0.3253
-0.334285
-0.353803
-0.389378
-0.450275
-0.557106
-0.71991
-0.861881
-0.82237
-0.614683
-0.474709
-0.339699
-0.24871
-0.216384
-0.174831
-0.182747
-0.180238
-0.180333
-0.273385
-0.275723
-0.278927
-0.285671
-0.301941
-0.336835
-0.40028
-0.507545
-0.665856
-0.808151
-0.781108
-0.580559
-0.413662
-0.323672
-0.254746
-0.209788
-0.220199
-0.206263
-0.203856
-0.202474
-0.201383
-0.203069
-0.205814
-0.21123
-0.223367
-0.249688
-0.299895
-0.383662
-0.504998
-0.620245
-0.604013
-0.439525
-0.304325
-0.256615
-0.249013
-0.202512
-0.207193
-0.200649
-0.198027
-0.196382
-0.112076
-0.112793
-0.11389
-0.115987
-0.122134
-0.137612
-0.169377
-0.226538
-0.307418
-0.378542
-0.368655
-0.27066
-0.228798
-0.205115
-0.176062
-0.185214
-0.167889
-0.163341
-0.156268
-0.15305
-0.0138454
-0.0135849
-0.0121265
-0.0100506
-0.00972379
-0.0142745
-0.0261542
-0.0523743
-0.09216
-0.121286
-0.126425
-0.131642
-0.171889
-0.187126
-0.122929
-0.102526
-0.0785867
-0.0702274
-0.0658117
-0.0641212
-1.12642
-0.256178
0.0161925
0.301529
0.493018
0.658592
0.796803
0.937084
1.08733
1.16455
-0.119972
0.301528
0.32614
0.520381
0.653379
0.77228
0.875494
0.96644
0.996407
0.952557
0.277835
0.49996
0.54138
0.68114
0.773228
0.858004
0.927941
0.980061
0.983807
0.996413
0.517632
0.668745
0.704968
0.812544
0.871011
0.93253
0.979432
1.01281
1.02261
1.04578
0.706096
0.809456
0.839807
0.912485
0.956961
1.00065
1.03395
1.05881
1.06914
1.10026
0.851332
0.92346
0.95395
0.999513
1.03644
1.06776
1.09287
1.11386
1.12847
1.15643
0.97334
1.0256
1.05175
1.081
1.10966
1.1341
1.15458
1.17406
1.18922
1.21552
1.07871
1.11706
1.13852
1.1598
1.18134
1.20123
1.21891
1.23721
1.25217
1.27578
1.17414
1.20319
1.22046
1.2362
1.2528
1.26918
1.2849
1.30196
1.31556
1.33787
1.26314
1.28404
1.29923
1.31267
1.3265
1.34045
1.35401
1.36864
1.38017
1.39983
1.34949
1.36539
1.37937
1.39136
1.40341
1.41509
1.42622
1.43791
1.44557
1.46239
1.43505
1.448
1.46181
1.47349
1.48406
1.4938
1.50257
1.51081
1.51438
1.52567
1.52441
1.53541
1.54888
1.55809
1.56552
1.57271
1.5799
1.58645
1.58746
1.59489
1.62285
1.62758
1.63562
1.64011
1.64339
1.64786
1.65386
1.66162
1.66545
1.67533
1.73616
1.72245
1.71501
1.70939
1.70673
1.70813
1.71462
1.72703
1.74179
1.77144
1.85707
1.80134
1.77048
1.75341
1.74527
1.74525
1.75395
1.77347
1.80547
1.87466
)
;

boundaryField
{
    wall-4
    {
        type            zeroGradient;
    }
    pressure-outlet-7
    {
        type            fixedValue;
        value           uniform 0;
    }
    velocity-inlet-6
    {
        type            zeroGradient;
    }
    velocity-inlet-5
    {
        type            zeroGradient;
    }
    frontAndBackPlanes
    {
        type            empty;
    }
}


// ************************************************************************* //
