/*--------------------------------*- C++ -*----------------------------------*\
  =========                 |
  \\      /  F ield         | OpenFOAM: The Open Source CFD Toolbox
   \\    /   O peration     | Website:  https://openfoam.org
    \\  /    A nd           | Version:  9
     \\/     M anipulation  |
\*---------------------------------------------------------------------------*/
FoamFile
{
    format      ascii;
    class       surfaceScalarField;
    location    "29";
    object      phi;
}
// * * * * * * * * * * * * * * * * * * * * * * * * * * * * * * * * * * * * * //

dimensions      [0 3 -1 0 0 0 0];

internalField   nonuniform List<scalar> 
4262
(
0.107148
0.470841
0.0955908
0.705143
0.0694396
0.858454
0.0474695
1.02073
0.0311205
1.21487
0.019957
1.44938
0.0125786
1.73324
0.00731153
2.0763
0.00329408
2.48926
-0.000237101
2.98582
-0.0037829
2.98584
-0.00778349
2.48924
-0.0130013
2.07625
-0.0202822
1.73314
-0.0313074
1.44924
-0.0475084
1.21472
-0.069322
1.02058
-0.095458
0.858439
-0.107154
0.705282
0.470834
0.112885
0.357956
0.135318
0.682709
0.120424
0.873349
0.0979246
1.04323
0.0748001
1.23799
0.0530462
1.47114
0.0345205
1.75177
0.0203519
2.09047
0.00919496
2.50042
-0.000987705
2.99601
-0.0110939
2.99594
-0.022042
2.50019
-0.0359975
2.09021
-0.0544583
1.75161
-0.076167
1.47095
-0.0994278
1.23798
-0.122201
1.04335
-0.136385
0.872623
-0.11334
0.682237
0.357494
0.0920331
0.265923
0.124947
0.649795
0.121035
0.877261
0.104593
1.05967
0.0858198
1.25676
0.0667636
1.49019
0.0480196
1.77051
0.0302516
2.10824
0.0140137
2.51666
-0.00152883
3.01155
-0.0170723
3.01149
-0.0331776
2.5163
-0.0507009
2.10773
-0.0688629
1.76977
-0.0873137
1.4894
-0.105286
1.25595
-0.120589
1.05865
-0.125252
0.877286
-0.0922366
0.649221
0.265258
0.0639987
0.201924
0.104898
0.608895
0.106763
0.875396
0.0953743
1.07106
0.0811892
1.27095
0.0664892
1.50489
0.0507029
1.7863
0.0338455
2.1251
0.0163069
2.53419
-0.00243217
3.03029
-0.0209255
3.02998
-0.0378608
2.53323
-0.0539496
2.12382
-0.0692753
1.78509
-0.08364
1.50377
-0.0976288
1.26994
-0.109045
1.07007
-0.106296
0.874537
-0.0645666
0.607492
0.200691
0.0374747
0.164449
0.0807016
0.565669
0.0911003
0.864997
0.0842066
1.07796
0.071893
1.28326
0.0598689
1.51692
0.0467993
1.79937
0.0320653
2.13983
0.0156763
2.55058
-0.00306151
3.04903
-0.021464
3.04838
-0.037277
2.54905
-0.0515477
2.13809
-0.0641012
1.79765
-0.0755461
1.51521
-0.0873256
1.28172
-0.0936135
1.07636
-0.0823012
0.863225
-0.0380704
0.563261
0.162621
0.0193327
0.145117
0.0568258
0.528176
0.0720347
0.849788
0.0701452
1.07985
0.0618905
1.29152
0.0515425
1.52727
0.0403662
1.81054
0.0278126
2.15238
0.012943
2.56545
-0.00427325
3.06624
-0.0212425
3.06535
-0.0354807
2.56328
-0.0471577
2.14977
-0.0572185
1.80771
-0.0667191
1.52471
-0.0741725
1.28917
-0.0751852
1.07737
-0.0587637
0.846804
-0.0199563
0.524454
0.142664
0.0105641
0.134552
0.0422942
0.496445
0.0584891
0.833594
0.0587947
1.07954
0.0528405
1.29747
0.0439313
1.53617
0.034022
1.82045
0.0228219
2.16359
0.010002
2.57827
-0.00511755
3.08136
-0.0199238
3.08016
-0.0319836
2.57534
-0.0420438
2.15983
-0.0511022
1.81677
-0.0591319
1.53274
-0.063912
1.29395
-0.0624104
1.07587
-0.0447033
0.829097
-0.011335
0.491085
0.131329
0.00657542
0.127977
0.0327009
0.47032
0.0489083
0.817386
0.0503812
1.07807
0.0453891
1.30246
0.0373449
1.54422
0.0281333
1.82966
0.017764
2.17395
0.00628455
2.58975
-0.00665172
3.0943
-0.0190108
3.09252
-0.0293574
2.58569
-0.0384107
2.16888
-0.0459758
1.82433
-0.0524846
1.53925
-0.0562437
1.29771
-0.0534717
1.0731
-0.0354013
0.811026
-0.00739769
0.463082
0.123932
0.00436714
0.12361
0.025353
0.449334
0.0407968
0.801942
0.0429783
1.07589
0.0385842
1.30686
0.0315213
1.55128
0.0232961
1.83789
0.014036
2.18321
0.0035481
2.60024
-0.00824219
3.10609
-0.0194747
3.10375
-0.0286451
2.59486
-0.0364033
2.17664
-0.0429158
1.83084
-0.0485568
1.54489
-0.0513024
1.30046
-0.0470186
1.06881
-0.0289582
0.792966
-0.00550753
0.439631
0.118424
0.00320459
0.120405
0.0200901
0.432449
0.0346379
0.787395
0.0376397
1.07288
0.0338258
1.31067
0.0270356
1.55807
0.019251
1.84567
0.0104099
2.19206
0.000544569
2.61011
-0.0104778
3.11711
-0.0207112
3.11398
-0.0287055
2.60286
-0.0352341
2.18317
-0.0410672
1.83668
-0.0457084
1.54954
-0.0472452
1.30199
-0.0417525
1.06332
-0.0242432
0.775457
-0.00454424
0.419932
0.11388
0.00247716
0.117928
0.0153684
0.419557
0.0282288
0.774534
0.0314928
1.06962
0.0284542
1.31371
0.0226796
1.56385
0.0158432
1.85251
0.00770178
2.2002
-0.00190953
2.61972
-0.0127712
3.12797
-0.0226854
3.1239
-0.0302114
2.61038
-0.0358375
2.1888
-0.0400761
1.84091
-0.0432822
1.55274
-0.0437715
1.30248
-0.0373558
1.0569
-0.0205474
0.758648
-0.00409186
0.403476
0.109788
0.00161563
0.116313
0.0106427
0.41053
0.0215563
0.763621
0.024564
1.06661
0.021808
1.31647
0.0166227
1.56903
0.0101715
1.85896
0.00260839
2.20776
-0.00626474
2.62859
-0.0162489
3.13796
-0.0250555
3.1327
-0.0311275
2.61645
-0.0352127
2.19288
-0.0381673
1.84387
-0.039998
1.55457
-0.0392744
1.30176
-0.032339
1.04997
-0.0168678
0.743177
-0.00372594
0.390335
0.106062
0.000639453
0.115673
0.0058032
0.405367
0.013849
0.755575
0.0161049
1.06436
0.0135488
1.31902
0.00902606
1.57355
0.00315622
1.86483
-0.00373358
2.21465
-0.0113852
2.63624
-0.0193589
3.14593
-0.0259025
3.13925
-0.0303015
2.62085
-0.0332525
2.19583
-0.0353812
1.846
-0.0363328
1.55552
-0.0348943
1.30032
-0.027472
1.04255
-0.0133715
0.729076
-0.00316275
0.380126
0.102899
-0.000319437
0.115992
0.00134355
0.403704
0.00715747
0.749761
0.00894145
1.06257
0.00630853
1.32165
0.00166854
1.57819
-0.00424027
1.87074
-0.0109512
2.22136
-0.0179626
2.64325
-0.0246592
3.15263
-0.0296529
3.14424
-0.0325601
2.62376
-0.0341357
2.19741
-0.0343588
1.84622
-0.033515
1.55468
-0.0307867
1.29759
-0.0229566
1.03472
-0.0105792
0.716699
-0.00262618
0.372173
0.100273
-0.00117821
0.117171
-0.00180847
0.404334
0.00088954
0.747063
0.00148273
1.06198
-0.00126248
1.3244
-0.00568796
1.58262
-0.011279
1.87633
-0.0176109
2.22769
-0.0242804
2.64992
-0.0304987
3.15884
-0.034523
3.14827
-0.0360141
2.62525
-0.0358085
2.1972
-0.034643
1.84506
-0.032749
1.55279
-0.0291681
1.29401
-0.0209215
1.02647
-0.00949434
0.705272
-0.00250441
0.365183
0.0977686
-0.00235975
0.11953
-0.00519855
0.407173
-0.00570448
0.747569
-0.00603241
1.06231
-0.00925232
1.32762
-0.0141729
1.58754
-0.0198426
1.882
-0.0259927
2.23384
-0.0323549
2.65628
-0.0379481
3.16444
-0.0406987
3.15102
-0.0405035
2.62506
-0.03887
2.19557
-0.0366975
1.84288
-0.0332829
1.54937
-0.0280823
1.28881
-0.019302
1.01769
-0.0089501
0.69492
-0.00254531
0.358778
0.0952233
-0.00336788
0.122898
-0.00855089
0.412356
-0.0118271
0.750845
-0.0146858
1.06517
-0.0185568
1.33149
-0.0236199
1.5926
-0.029513
1.88789
-0.035784
2.24011
-0.0418316
2.66233
-0.0465657
3.16917
-0.0479055
3.15236
-0.0459859
2.62314
-0.0426184
2.1922
-0.0388171
1.83908
-0.0343802
1.54493
-0.0285772
1.28301
-0.0195335
1.00865
-0.00936716
0.684754
-0.00274032
0.352151
0.092483
-0.00394271
0.126841
-0.0111462
0.419559
-0.0167504
0.756449
-0.0209565
1.06937
-0.0262426
1.33678
-0.0327565
1.59912
-0.0398274
1.89497
-0.0471194
2.24741
-0.0538233
2.66904
-0.0583428
3.17369
-0.0582783
3.15229
-0.0549354
2.61979
-0.050151
2.18742
-0.044774
1.8337
-0.0385966
1.53876
-0.0309752
1.27539
-0.0208447
0.998515
-0.0104701
0.674379
-0.00317786
0.344859
0.0893051
-0.00504326
0.131884
-0.0145306
0.429046
-0.0229129
0.764831
-0.0287674
1.07523
-0.0346522
1.34266
-0.0418193
1.60628
-0.0500315
1.90318
-0.0588692
2.25624
-0.0668916
2.67706
-0.0720956
3.1789
-0.0717928
3.15199
-0.0676474
2.61565
-0.0609334
2.1807
-0.0534767
1.82625
-0.0455064
1.53079
-0.0364912
1.26637
-0.024993
0.987017
-0.0130087
0.662395
-0.0039615
0.335812
0.0853436
-0.00623865
0.138123
-0.0177182
0.440526
-0.0285207
0.775634
-0.0365706
1.08328
-0.0442399
1.35033
-0.0532899
1.61533
-0.0636168
1.9135
-0.0743893
2.26702
-0.0841758
2.68685
-0.0901738
3.18489
-0.0891779
3.15099
-0.0834504
2.60992
-0.0754012
2.17265
-0.0663982
1.81725
-0.0560793
1.52047
-0.0439625
1.25426
-0.0296778
0.972732
-0.0157247
0.648442
-0.00487919
0.324966
0.0804644
-0.0084224
0.146545
-0.0236612
0.455765
-0.0377751
0.789748
-0.0479735
1.09348
-0.0571223
1.35948
-0.0680415
1.62625
-0.0805199
1.92598
-0.0935776
2.28007
-0.10485
2.69812
-0.110879
3.19092
-0.109164
3.14928
-0.102102
2.60286
-0.0917817
2.16233
-0.0798109
1.80527
-0.0667263
1.50738
-0.0518943
1.23942
-0.035396
0.956234
-0.0189963
0.632042
-0.00581722
0.311787
0.0746472
-0.0104112
0.156957
-0.0294132
0.474767
-0.0478011
0.808136
-0.061707
1.10738
-0.0739465
1.37172
-0.0877843
1.64009
-0.103375
1.94157
-0.118868
2.29557
-0.131392
2.71064
-0.137313
3.19684
-0.133884
3.14585
-0.123978
2.59295
-0.111052
2.14941
-0.0963568
1.79058
-0.0802054
1.49123
-0.0618263
1.22104
-0.0417144
0.936122
-0.0223071
0.612635
-0.00678999
0.29627
0.0678572
-0.0149985
0.171955
-0.0407697
0.500538
-0.0643701
0.831736
-0.0821475
1.12516
-0.0977077
1.38728
-0.11517
1.65755
-0.133742
1.96015
-0.151212
2.31304
-0.164328
2.72376
-0.168786
3.2013
-0.16213
3.13919
-0.149151
2.57997
-0.132797
2.13305
-0.114121
1.7719
-0.0939746
1.47108
-0.0723
1.19937
-0.0494977
0.91332
-0.0267677
0.589905
-0.0079603
0.277463
0.0598969
-0.0190166
0.190972
-0.0525106
0.534032
-0.08419
0.863415
-0.10871
1.14968
-0.130602
1.40917
-0.152668
1.67962
-0.174157
1.98163
-0.192678
2.33156
-0.204681
2.73576
-0.205995
3.20262
-0.195528
3.12873
-0.178131
2.56258
-0.157517
2.11244
-0.13538
1.74977
-0.112042
1.44775
-0.0867606
1.17409
-0.0591323
0.885691
-0.0313084
0.562081
-0.00904304
0.255197
0.0508539
-0.0330834
0.224055
-0.0787301
0.579679
-0.118852
0.903537
-0.1497
1.18053
-0.177158
1.43663
-0.203273
1.70574
-0.22658
2.00494
-0.244611
2.34959
-0.254106
2.74526
-0.251002
3.19951
-0.233994
3.11172
-0.210717
2.5393
-0.185294
2.08702
-0.158477
1.72295
-0.13065
1.41992
-0.101222
1.14466
-0.0696236
0.854093
-0.0371463
0.529603
-0.0103906
0.228442
0.0404633
-0.04715
0.271205
-0.115938
0.648467
-0.170945
0.958545
-0.209578
1.21916
-0.243323
1.47037
-0.271608
1.73402
-0.294015
2.02735
-0.308575
2.36415
-0.311831
2.74851
-0.300155
3.18783
-0.276033
3.0876
-0.247515
2.51078
-0.217217
2.05672
-0.186717
1.69245
-0.155903
1.38911
-0.1224
1.11116
-0.0838563
0.815549
-0.041863
0.48761
-0.0103156
0.196894
0.0301478
-0.0323742
0.303579
-0.090137
0.706229
-0.141309
1.00972
-0.185178
1.26303
-0.226341
1.51154
-0.262602
1.77028
-0.296727
2.06147
-0.326034
2.39346
-0.346648
2.76913
-0.352436
3.19362
-0.337603
3.07276
-0.308096
2.48127
-0.27078
2.0194
-0.228575
1.65025
-0.18354
1.34407
-0.135617
1.06324
-0.0835154
0.763447
-0.0358241
0.439919
-0.00782019
0.16889
0.0223276
-0.0104167
0.313996
-0.0403968
0.736209
-0.078123
1.04744
-0.114958
1.29986
-0.150762
1.54734
-0.184821
1.80434
-0.216084
2.09274
-0.241679
2.41905
-0.257417
2.78486
-0.25614
3.19235
-0.233914
3.05054
-0.201449
2.44881
-0.164403
1.98236
-0.12572
1.61156
-0.0864406
1.30479
-0.0485028
1.0253
-0.0177132
0.732657
-0.000693226
0.422899
0.00199124
0.166206
0.0243188
0.00276069
0.311235
-0.0183624
0.757332
-0.0459825
1.07506
-0.0751992
1.32908
-0.104821
1.57696
-0.134152
1.83367
-0.161433
2.12002
-0.183445
2.44106
-0.196025
2.79744
-0.19296
3.18928
-0.173296
3.03087
-0.143671
2.41919
-0.107726
1.94641
-0.0698316
1.57367
-0.0345181
1.26948
-0.0052948
0.996074
0.0135255
0.713837
0.0154946
0.42093
0.00647044
0.17523
0.0307893
0.00284753
0.308388
-0.00806518
0.768245
-0.0285
1.0955
-0.0527362
1.35332
-0.0775259
1.60175
-0.102363
1.85851
-0.125605
2.14326
-0.144293
2.45975
-0.154327
2.80748
-0.149758
3.18471
-0.128786
3.0099
-0.0984776
2.38888
-0.0662388
1.91417
-0.0364675
1.5439
-0.0104537
1.24346
0.0098131
0.975807
0.0205726
0.703077
0.018181
0.423321
0.00687615
0.186535
0.0376654
0.00518745
0.3032
-0.00241845
0.775851
-0.0201411
1.11322
-0.0404517
1.37363
-0.0615022
1.6228
-0.0829522
1.87996
-0.103245
2.16355
-0.119867
2.47637
-0.12899
2.8166
-0.12557
3.18129
-0.107379
2.99171
-0.0831208
2.36462
-0.0581018
1.88915
-0.0328557
1.51865
-0.00819548
1.2188
0.011111
0.956501
0.019191
0.694997
0.0150859
0.427426
0.0052051
0.196416
0.0428705
0.00588146
0.297319
0.000582419
0.78115
-0.0150232
1.12883
-0.0335064
1.39211
-0.0524628
1.64176
-0.0716191
1.89911
-0.0898815
2.18181
-0.10498
2.49147
-0.113104
2.82473
-0.109415
3.1776
-0.0930449
2.97534
-0.0717093
2.34328
-0.0472568
1.8647
-0.0226997
1.49409
-0.00310504
1.19921
0.0100811
0.943315
0.0159352
0.689143
0.011544
0.431818
0.00373556
0.204224
0.0466061
0.00390079
0.293418
3.66901e-05
0.785014
-0.0134756
1.14234
-0.0301218
1.40876
-0.0475965
1.65923
-0.0652588
1.91678
-0.0822436
2.1988
-0.0965678
2.5058
-0.105155
2.83331
-0.103859
3.17631
-0.0906278
2.96211
-0.0700929
2.32275
-0.0484871
1.84309
-0.0301325
1.47574
-0.0130066
1.18208
0.000773814
0.929534
0.00594269
0.683974
0.00559017
0.43217
0.00205629
0.207758
0.0486624
0.00259725
0.290821
-0.000677451
0.788289
-0.0128678
1.15453
-0.0284866
1.42438
-0.0451961
1.67594
-0.0619738
1.93355
-0.0782138
2.21504
-0.0923085
2.51989
-0.10115
2.84215
-0.0997086
3.17486
-0.0864662
2.94887
-0.0693606
2.30564
-0.0519911
1.82573
-0.0336575
1.4574
-0.0184344
1.16686
-0.00769914
0.918799
-0.00203399
0.678309
-0.00190989
0.432046
-0.000607206
0.206455
0.0480552
-0.000178692
0.290999
-0.00361248
0.791723
-0.0141941
1.16511
-0.0285478
1.43873
-0.0442794
1.69168
-0.0604482
1.94972
-0.0764411
2.23103
-0.0908096
2.53426
-0.10086
2.8522
-0.102944
3.17695
-0.0930549
2.93898
-0.0756925
2.28828
-0.0563813
1.80641
-0.0406754
1.4417
-0.0270745
1.15326
-0.0171387
0.908863
-0.0104353
0.671606
-0.00552094
0.427132
-0.00170534
0.20264
0.0463498
-0.000579902
0.291579
-0.00537706
0.79652
-0.0156184
1.17535
-0.0288263
1.45194
-0.0440195
1.70687
-0.0599547
1.96566
-0.0759818
2.24706
-0.0907495
2.54903
-0.101598
2.86305
-0.103464
3.17881
-0.093389
2.9289
-0.0792268
2.27412
-0.0643845
1.79157
-0.0473957
1.42471
-0.033826
1.13969
-0.0219113
0.896948
-0.013597
0.663292
-0.00795629
0.421491
-0.00244472
0.197128
0.0439051
-0.00257977
0.294159
-0.00799828
0.801938
-0.0175637
1.18492
-0.0299474
1.46432
-0.0442832
1.72121
-0.0598049
1.98118
-0.0759174
2.26317
-0.0911791
2.56429
-0.103189
2.87506
-0.108469
3.18409
-0.103222
2.92365
-0.0882401
2.25914
-0.0703145
1.77365
-0.0559238
1.41032
-0.0414892
1.12525
-0.0302143
0.885673
-0.0201403
0.653218
-0.00995084
0.411302
-0.00306921
0.190246
0.0408359
-0.00389032
0.298049
-0.00929901
0.807347
-0.0186214
1.19424
-0.0306198
1.47632
-0.0445188
1.7351
-0.0597872
1.99645
-0.0760508
2.27944
-0.0920771
2.58031
-0.105989
2.88898
-0.114123
3.19223
-0.109348
2.91888
-0.0965329
2.24632
-0.0806097
1.75772
-0.0626364
1.39235
-0.0471409
1.10976
-0.0329714
0.871504
-0.0212035
0.64145
-0.0115267
0.401625
-0.00343
0.18215
0.0374059
-0.00443792
0.302487
-0.0107973
0.813707
-0.0200016
1.20344
-0.0315002
1.48782
-0.0448096
1.74841
-0.059726
2.01136
-0.0760651
2.29577
-0.0928571
2.59711
-0.10805
2.90417
-0.117621
3.2018
-0.116081
2.91734
-0.105027
2.23527
-0.0869131
1.73961
-0.0693715
1.3748
-0.0532866
1.09367
-0.0402133
0.858431
-0.0269902
0.628227
-0.0128297
0.387464
-0.00362481
0.172945
0.0337811
-0.00446319
0.30695
-0.0111844
0.820428
-0.0204397
1.2127
-0.0317477
1.49913
-0.0448054
1.76147
-0.0595072
2.02607
-0.0758914
2.31216
-0.093169
2.61438
-0.10972
2.92072
-0.122312
3.21439
-0.124006
2.91903
-0.113069
2.22433
-0.0974572
1.724
-0.0774031
1.35475
-0.0591018
1.07537
-0.0415513
0.84088
-0.0261664
0.612842
-0.0134288
0.374727
-0.00356428
0.16308
0.0302168
-0.00452299
0.311473
-0.0117803
0.827685
-0.0209093
1.22183
-0.0318899
1.51011
-0.0446058
1.77419
-0.0590503
2.04051
-0.0754479
2.32856
-0.0933979
2.63233
-0.111862
2.93918
-0.127434
3.22996
-0.132073
2.92367
-0.124646
2.2169
-0.106115
1.70547
-0.0853218
1.33396
-0.0638164
1.05387
-0.0465542
0.823618
-0.030804
0.597091
-0.0138113
0.357734
-0.00324792
0.152517
0.0269689
-0.00449977
0.315973
-0.0117253
0.834911
-0.020716
1.23082
-0.0315104
1.5209
-0.0440269
1.7867
-0.0582899
2.05477
-0.074703
2.34497
-0.0929303
2.65056
-0.111684
2.95794
-0.128309
3.24659
-0.136346
2.93171
-0.130624
2.21118
-0.116906
1.69175
-0.0943659
1.31142
-0.0695821
1.02908
-0.0442398
0.798276
-0.0239921
0.576844
-0.0111433
0.344885
-0.00242972
0.143803
0.0245392
-0.00453995
0.320513
-0.0118564
0.842227
-0.0205548
1.23952
-0.0309814
1.53133
-0.043175
1.7989
-0.0572176
2.06882
-0.0735224
2.36127
-0.0921053
2.66914
-0.112691
2.97852
-0.133513
3.26741
-0.145292
2.94349
-0.142602
2.20849
-0.125864
1.67501
-0.10283
1.28838
-0.0735629
0.999817
-0.0468933
0.771606
-0.023046
0.552996
-0.007208
0.329047
-0.00239753
0.138993
0.0221416
-0.00445037
0.324964
-0.0115332
0.84931
-0.0199829
1.24797
-0.0301308
1.54148
-0.0420193
1.81079
-0.0557797
2.08258
-0.0719753
2.37747
-0.0906952
2.68786
-0.111389
2.99922
-0.131379
3.2874
-0.144936
2.95705
-0.148034
2.21159
-0.139336
1.66631
-0.11463
1.26368
-0.0815641
0.966751
-0.0394198
0.729462
0.000606246
0.51297
0.0221901
0.307463
0.0212427
0.13994
0.0433844
-0.0043371
0.329301
-0.0113453
0.856318
-0.01946
1.25608
-0.0291662
1.55118
-0.0406202
1.82224
-0.0540725
2.09603
-0.0700802
2.39348
-0.0888869
2.70667
-0.110737
3.02107
-0.135311
3.31197
-0.15376
2.9755
-0.159115
2.21694
-0.147734
1.65493
-0.125665
1.24161
-0.0879286
0.929015
-0.0429916
0.684525
0.0104872
0.459492
0.0347518
0.283199
0.0154149
0.159277
0.0587993
-0.00410993
0.333411
-0.0108219
0.86303
-0.0186486
1.26391
-0.028003
1.56054
-0.0391046
1.83334
-0.0521856
2.10911
-0.0679313
2.40922
-0.0867076
2.72545
-0.108595
3.04295
-0.132192
3.33557
-0.150953
2.99426
-0.161435
2.22743
-0.162314
1.65581
-0.142798
1.22209
-0.106222
0.892439
-0.0395854
0.617888
0.0620378
0.357868
0.162575
0.182661
0.172241
0.149611
0.231041
-0.00395699
0.337368
-0.0106352
0.869708
-0.0183387
1.27161
-0.0275862
1.56978
-0.0387703
1.84453
-0.052249
2.12259
-0.0688449
2.42582
-0.0891246
2.74573
-0.114033
3.06786
-0.144301
3.36584
-0.171994
3.02195
-0.187779
2.24321
-0.186811
1.65484
-0.173051
1.20833
-0.136404
0.855792
-0.0936713
0.575156
-0.117126
0.381323
-0.364662
0.430198
-0.92613
0.711078
0.893601
-1.58869
-0.00374182
0.341109
-0.0101262
0.876093
-0.0176317
1.27912
-0.0267261
1.57888
-0.0377901
1.85559
-0.0513076
2.13611
-0.0682308
2.44274
-0.0894251
2.76692
-0.115837
3.09427
-0.147383
3.39738
-0.176963
3.05153
-0.199792
2.26604
-0.221669
1.67672
-0.225101
1.21176
-0.219631
0.850322
-0.298049
0.653574
-0.688306
0.77158
-1.40897
1.15086
-2.02324
1.32535
1.22017
-2.3498
-0.00355007
0.34466
-0.00971343
0.882256
-0.0169413
1.28634
-0.0257575
1.58769
-0.0366176
1.86645
-0.05015
2.14964
-0.067386
2.45998
-0.0893095
2.78884
-0.117568
3.12253
-0.154595
3.43441
-0.194057
3.09099
-0.226613
2.2986
-0.24693
1.69704
-0.255706
1.22054
-0.34377
0.938386
-0.746009
1.05581
-1.50792
1.53349
-2.09045
1.73339
-2.33475
1.56965
1.33667
-2.45125
-0.00330115
0.347961
-0.00906918
0.888024
-0.016023
1.2933
-0.0246289
1.5963
-0.0353149
1.87714
-0.048819
2.16314
-0.0662374
2.4774
-0.0888923
2.8115
-0.118707
3.15235
-0.157554
3.47326
-0.198728
3.13217
-0.236746
2.33662
-0.280844
1.74113
-0.373914
1.31361
-0.697645
1.26212
-1.41233
1.7705
-2.01116
2.13231
-2.25514
1.97738
-2.37085
1.68536
1.4032
-2.43739
-0.00305185
0.351013
-0.00848637
0.893459
-0.0150882
1.2999
-0.0233569
1.60457
-0.0338458
1.88762
-0.0472786
2.17658
-0.0648713
2.49499
-0.088086
2.83471
-0.119398
3.18366
-0.163197
3.51706
-0.216024
3.18499
-0.269387
2.38998
-0.320264
1.79201
-0.492946
1.48629
-1.07192
1.84109
-1.76334
2.46192
-2.09672
2.46569
-2.24978
2.13043
-2.33406
1.76964
1.46954
-2.40039
-0.00292395
0.353937
-0.00817323
0.898708
-0.0147532
1.30648
-0.023088
1.6129
-0.0338181
1.89835
-0.0474767
2.19023
-0.0654751
2.51299
-0.089541
2.85878
-0.122558
3.21667
-0.16861
3.56311
-0.222755
3.23914
-0.275975
2.4432
-0.373473
1.88951
-0.748606
1.86142
-1.46732
2.5598
-1.95408
2.94869
-2.15801
2.66961
-2.26644
2.23887
-2.34408
1.84728
1.53451
-2.40905
-0.00296687
0.356903
-0.00851194
0.904253
-0.0154068
1.31338
-0.0241016
1.6216
-0.0352826
1.90954
-0.0495446
2.2045
-0.0683794
2.53182
-0.0935797
2.88398
-0.128267
3.25136
-0.178683
3.61352
-0.242297
3.30275
-0.315054
2.51596
-0.498537
2.07299
-1.02591
2.3888
-1.65627
3.19016
-1.94506
3.23748
-2.09552
2.82007
-2.21193
2.35527
-2.30672
1.94207
1.59806
-2.37027
-0.00293832
0.359842
-0.00862752
0.909942
-0.0159368
1.32068
-0.0251489
1.63081
-0.0368521
1.92124
-0.0517345
2.21938
-0.071331
2.55142
-0.0976671
2.91032
-0.134283
3.28798
-0.18727
3.66651
-0.251639
3.36712
-0.340378
2.6047
-0.614578
2.34719
-1.23948
3.0137
-1.74061
3.69129
-1.95192
3.44878
-2.09685
2.965
-2.22475
2.48318
-2.33974
2.05705
1.65875
-2.40043
-0.00284961
0.362691
-0.00890761
0.916
-0.0166038
1.32838
-0.0262366
1.64044
-0.0384174
1.93342
-0.053954
2.23492
-0.0744327
2.5719
-0.101945
2.93783
-0.140071
3.3261
-0.195929
3.72237
-0.269628
3.44082
-0.395202
2.73027
-0.761578
2.71357
-1.38393
3.63606
-1.75192
4.05927
-1.931
3.62786
-2.03908
3.07309
-2.13363
2.57773
-2.20569
2.12911
1.65323
-2.20017
-0.0027066
0.365398
-0.00879529
0.922089
-0.0169593
1.33654
-0.0271905
1.65067
-0.0399805
1.94621
-0.0561641
2.2511
-0.0774013
2.59314
-0.105997
2.96642
-0.145908
3.36601
-0.203812
3.78027
-0.283417
3.52043
-0.446509
2.89336
-0.88227
3.14933
-1.43943
4.19322
-1.71202
4.33187
-1.87391
3.78975
-1.97262
3.1718
-1.97976
2.58487
-1.91957
2.06892
1.63194
-1.89828
-0.00240049
0.367798
-0.0088853
0.928574
-0.0173751
1.34503
-0.0279406
1.66124
-0.0410844
1.95935
-0.0576534
2.26767
-0.0792679
2.61475
-0.108129
2.99529
-0.148097
3.40598
-0.204739
3.83692
-0.291191
3.60688
-0.489433
3.0916
-0.956526
3.61642
-1.40575
4.64244
-1.58405
4.51017
-1.65877
3.86447
-1.6688
3.18183
-1.52704
2.4431
-1.03206
1.57394
0.599881
-0.00193611
0.369735
-0.00829776
0.934935
-0.0172872
1.35402
-0.028633
1.67259
-0.0427632
1.97348
-0.0604996
2.2854
-0.0837214
2.63797
-0.114996
3.02656
-0.158612
3.4496
-0.222265
3.90057
-0.324037
3.70865
-0.566468
3.33403
-1.08631
4.13626
-1.46023
5.01637
-1.56433
4.61427
-1.5707
3.87084
-1.47518
3.0863
-1.23734
2.20526
-0.65103
0.987636
-0.0511489
-0.00149941
0.371234
-0.00785336
0.941289
-0.0171071
1.36328
-0.0289796
1.68446
-0.043882
1.98839
-0.0628264
2.30435
-0.087772
2.66292
-0.121359
3.06015
-0.168937
3.49718
-0.23728
3.96891
-0.354872
3.82624
-0.650665
3.62983
-1.19592
4.68152
-1.47995
5.30039
-1.54984
4.68416
-1.5338
3.85481
-1.33298
2.88548
-0.805012
1.67729
-0.120967
0.303591
-0.172116
-0.000697748
0.371932
-0.00640816
0.947
-0.0160276
1.3729
-0.0286768
1.69711
-0.0444392
2.00415
-0.0644277
2.32434
-0.0908298
2.68932
-0.12684
3.09616
-0.177579
3.54792
-0.254106
4.04544
-0.395561
3.9677
-0.744647
3.97891
-1.27656
5.21344
-1.4678
5.49163
-1.49935
4.71571
-1.41851
3.77397
-1.11889
2.58586
-0.338397
0.896794
0.0334875
-0.0682929
-0.138628
0.000176124
0.371756
-0.00478498
0.951961
-0.0144281
1.38254
-0.0275339
1.71021
-0.0438494
2.02046
-0.0649144
2.3454
-0.0929118
2.71732
-0.130677
3.13392
-0.183721
3.60096
-0.266975
4.12869
-0.429695
4.13042
-0.828692
4.37791
-1.30871
5.69345
-1.43737
5.6203
-1.44763
4.72598
-1.25243
3.57876
-0.725366
2.0588
-0.070484
0.241913
0.0373347
-0.176112
-0.101293
0.0021303
0.369625
-0.0011487
0.95524
-0.0114654
1.39286
-0.0253244
1.72407
-0.0421438
2.03728
-0.0639574
2.36722
-0.0928778
2.74624
-0.132373
3.17342
-0.187584
3.65617
-0.277819
4.21893
-0.465423
4.31802
-0.915898
4.82838
-1.31195
6.0895
-1.38666
5.695
-1.35401
4.69333
-1.07402
3.29877
-0.363322
1.3481
-0.0171542
-0.104255
0.00802958
-0.201295
-0.0932638
0.00376362
0.365862
0.00175033
0.957253
-0.00791035
1.40252
-0.0213025
1.73746
-0.0382567
2.05424
-0.0608187
2.38978
-0.0907861
2.7762
-0.131091
3.21372
-0.188226
3.71331
-0.285546
4.31625
-0.489801
4.52228
-0.960009
5.29859
-1.25604
6.38553
-1.29749
5.73646
-1.19417
4.59001
-0.827848
2.93245
-0.117329
0.637585
0.0308647
-0.252449
0.0174698
-0.1879
-0.075794
0.00602084
0.359841
0.00576571
0.957508
-0.00237457
1.41066
-0.0155991
1.75069
-0.0326552
2.07129
-0.0552722
2.41239
-0.0851231
2.80606
-0.125884
3.25448
-0.183252
3.77067
-0.28361
4.41661
-0.506585
4.74525
-0.976439
5.76845
-1.18934
6.59843
-1.20945
5.75656
-1.03265
4.41321
-0.523484
2.42328
-0.00459697
0.118698
0.0208361
-0.277882
0.017796
-0.18486
-0.0579979
0.00878954
0.351051
0.011448
0.95485
0.00545515
1.41665
-0.00622226
1.76237
-0.0234258
2.0885
-0.0459905
2.43496
-0.075367
2.83543
-0.115165
3.29428
-0.172308
3.82782
-0.277803
4.5221
-0.508124
4.97557
-0.934051
6.19437
-1.0788
6.74318
-1.07115
5.74891
-0.837414
4.17947
-0.303764
1.88963
-0.0474928
-0.137574
-0.0249944
-0.300381
-0.00213968
-0.207715
-0.0601376
0.0128613
0.33819
0.0195918
0.948119
0.0155869
1.42066
0.00502091
1.77293
-0.0117279
2.10525
-0.0324372
2.45567
-0.0601472
2.86314
-0.0979501
3.33208
-0.151651
3.88152
-0.253162
4.62361
-0.478949
5.20136
-0.851063
6.56649
-0.950794
6.84292
-0.942784
5.7409
-0.709077
3.94577
-0.16176
1.34231
-0.0531884
-0.246145
-0.0254953
-0.328074
0.000402619
-0.233613
-0.059735
0.0177986
0.320391
0.0299799
0.935938
0.0296705
1.42096
0.0208808
1.78172
0.0064032
2.11972
-0.0121849
2.47426
-0.0375389
2.8885
-0.0722085
3.36675
-0.121252
3.93056
-0.217952
4.72031
-0.428085
5.41149
-0.70099
6.83939
-0.775753
6.91768
-0.724548
5.6897
-0.433903
3.65512
0.0146011
0.893807
0.0039433
-0.235488
0.00405011
-0.328181
0.0289066
-0.25847
-0.0308284
0.0240912
0.2963
0.0432912
0.916738
0.0472187
1.41704
0.041152
1.78779
0.0300908
2.13078
0.0142389
2.49011
-0.00757676
2.91031
-0.0361471
3.39532
-0.0768837
3.9713
-0.154621
4.79805
-0.320572
5.57744
-0.503717
7.02254
-0.584081
6.99804
-0.605152
5.71077
-0.455002
3.50497
-0.240042
0.678847
-0.278133
-0.197396
-0.166292
-0.440022
-0.0420749
-0.382686
-0.0729032
0.0313837
0.264916
0.0600153
0.888106
0.0712089
1.40584
0.0699001
1.7891
0.0622441
2.13844
0.0499808
2.50237
0.0338901
2.9264
0.0121715
3.41704
-0.0204055
4.00388
-0.0648041
4.84245
-0.167301
5.67994
-0.268706
7.12394
-0.345573
7.07491
-0.447848
5.81304
-0.531622
3.58874
-0.67346
0.820685
-0.703068
-0.167789
-0.505536
-0.637554
-0.246027
-0.642195
-0.31893
0.0397198
0.225197
0.080007
0.847819
0.0993075
1.38654
0.103719
1.78469
0.101356
2.1408
0.0941836
2.50954
0.0855781
2.93501
0.0739539
3.42867
0.0613361
4.01649
0.0494188
4.85437
0.0608702
5.66849
0.0694727
7.11534
0.0376459
7.10674
-0.0549185
5.90561
-0.266376
3.8002
-0.660181
1.21449
-0.762091
-0.065879
-0.615472
-0.784173
-0.344655
-0.913013
-0.663585
0.0477931
0.177403
0.103859
0.791754
0.135939
1.35446
0.147912
1.77271
0.151791
2.13692
0.150326
2.51101
0.149923
2.93541
0.151834
3.42676
0.163274
4.00505
0.188976
4.82866
0.307164
5.5503
0.511476
6.91103
0.673207
6.945
0.845673
5.73314
0.686846
3.95903
0.159535
1.7418
-0.22212
0.315775
-0.379354
-0.626938
-0.25846
-1.03391
-0.922044
0.0523574
0.125046
0.12767
0.716441
0.175718
1.30641
0.198583
1.74985
0.210952
2.12455
0.216826
2.50514
0.22703
2.92521
0.242039
3.41175
0.277495
3.9696
0.357143
4.74901
0.599323
5.30812
1.12198
6.38838
1.52775
6.53923
1.91565
5.34524
1.91888
3.9558
1.40493
2.25575
0.900862
0.819841
0.382951
-0.109028
0.120199
-0.771155
-0.801845
0.0486227
0.0764234
0.152081
0.612983
0.224441
1.23405
0.26092
1.71337
0.28211
2.10336
0.296175
2.49107
0.315654
2.90573
0.344897
3.3825
0.404555
3.90994
0.53625
4.61732
0.864347
4.98003
1.57614
5.67659
1.99721
6.11816
2.2731
5.06935
2.31486
3.91403
1.93319
2.63743
1.42112
1.33191
0.928662
0.383433
0.39463
-0.237124
-0.407215
0.0377492
0.0386742
0.171841
0.478892
0.273077
1.13282
0.329243
1.6572
0.361671
2.07094
0.385783
2.46696
0.412807
2.87871
0.453735
3.34157
0.518966
3.84471
0.663023
4.47326
0.989227
4.65382
1.69145
4.97437
2.07671
5.73289
2.29526
4.8508
2.33037
3.87893
2.07425
2.89354
1.56264
1.84353
0.989873
0.956196
0.405462
0.347287
-0.00175269
0.0288412
0.00983306
0.196245
0.311488
0.330919
0.998145
0.409691
1.57843
0.452604
2.02802
0.486066
2.4335
0.51541
2.84936
0.55693
3.30005
0.613168
3.78847
0.731555
4.35488
0.939176
4.4462
1.4641
4.44945
1.86631
5.33068
1.96967
4.74744
1.94089
3.9077
1.741
3.09344
1.32601
2.25851
0.843553
1.43866
0.366796
0.824045
0.365043
0.0307012
-0.0208682
0.195271
0.146918
0.386805
0.806611
0.495122
1.47011
0.551201
1.97195
0.594188
2.39051
0.62458
2.81897
0.659375
3.26526
0.693369
3.75448
0.76192
4.28632
0.872235
4.33589
1.19221
4.12947
1.59794
4.92495
1.63518
4.7102
1.54052
4.00237
1.35284
3.28112
1.03774
2.57361
0.631022
1.84538
0.24926
1.20581
0.614303
0.0350708
-0.055939
0.138277
0.0437125
0.33897
0.605917
0.471724
1.33736
0.533092
1.91058
0.561075
2.36253
0.571049
2.80899
0.574751
3.26156
0.566276
3.76295
0.555416
4.29719
0.564202
4.3271
0.67862
4.01505
0.873045
4.73053
0.874155
4.70909
0.785903
4.09062
0.669333
3.39769
0.512755
2.73018
0.312099
2.04603
0.117441
1.40046
0.731744
0.0217598
-0.0776987
0.0541374
0.0113348
0.165171
0.494883
0.274829
1.2277
0.347244
1.83816
0.38877
2.321
0.41284
2.78492
0.428037
3.24636
0.427074
3.76391
0.417883
4.30638
0.404491
4.34049
0.453717
3.96583
0.590432
4.59381
0.598242
4.70127
0.531682
4.15718
0.434206
3.49517
0.313658
2.85073
0.17495
2.18474
0.0525148
1.5229
0.784258
0.00586884
-0.0835676
-0.0018217
0.0190253
0.0343929
0.458668
0.104108
1.15799
0.17013
1.77214
0.222813
2.26832
0.264979
2.74276
0.291231
3.22011
0.303626
3.75152
0.304105
4.3059
0.284568
4.36003
0.29826
3.95214
0.377692
4.51438
0.378133
4.70083
0.323632
4.21168
0.2446
3.5742
0.159552
2.93578
0.0738203
2.27047
0.000233195
1.59649
0.784492
-0.0135879
-0.0699797
-0.0494605
0.054898
-0.0627646
0.471973
-0.0273491
1.12257
0.02971
1.71508
0.0879698
2.21006
0.142153
2.68858
0.17879
3.18347
0.20754
3.72277
0.213642
4.2998
0.192364
4.38131
0.192237
3.95226
0.225643
4.48097
0.207477
4.719
0.164718
4.25444
0.113824
3.62509
0.0622776
2.98733
0.00841669
2.32433
-0.026285
1.63119
0.758207
-0.0302163
-0.0397634
-0.0862169
0.110899
-0.123511
0.509266
-0.113652
1.11271
-0.0660383
1.66747
-0.00752969
2.15155
0.0479274
2.63312
0.0949799
3.13642
0.13017
3.68758
0.133448
4.29652
0.113577
4.40118
0.105813
3.96003
0.118157
4.46863
0.096461
4.7407
0.0583002
4.2926
0.0188703
3.66452
-0.0221025
3.0283
-0.0554968
2.35773
-0.0566161
1.63231
0.701591
-0.0381984
-0.00156509
-0.103499
0.1762
-0.150599
0.556366