/*--------------------------------*- C++ -*----------------------------------*\
  =========                 |
  \\      /  F ield         | OpenFOAM: The Open Source CFD Toolbox
   \\    /   O peration     | Website:  https://openfoam.org
    \\  /    A nd           | Version:  9
     \\/     M anipulation  |
\*---------------------------------------------------------------------------*/
FoamFile
{
    format      ascii;
    class       volVectorField;
    location    "29";
    object      U;
}
// * * * * * * * * * * * * * * * * * * * * * * * * * * * * * * * * * * * * * //

dimensions      [0 1 -1 0 0 0 0];

internalField   nonuniform List<vector> 
2200
(
(0.878845 -0.0304145 0)
(1.00578 -0.0512882 0)
(1.00326 -0.0354089 0)
(1.00024 -0.0244752 0)
(0.999867 -0.0167162 0)
(0.999965 -0.0107872 0)
(0.999964 -0.00694347 0)
(1.00004 -0.0042738 0)
(1.00011 -0.00224892 0)
(1.00017 -0.000665894 0)
(1.00011 0.000864854 0)
(1.0001 0.00247691 0)
(1.00005 0.00446505 0)
(0.999901 0.00712596 0)
(0.999979 0.0109062 0)
(0.999878 0.0167536 0)
(1.00023 0.0245288 0)
(1.00344 0.0351926 0)
(1.00588 0.0513471 0)
(0.87896 0.0303789 0)
(0.711966 -0.0327646 0)
(0.996609 -0.0630225 0)
(1.03325 -0.056175 0)
(1.02484 -0.0464325 0)
(1.01585 -0.0361789 0)
(1.00967 -0.026508 0)
(1.00595 -0.0181628 0)
(1.00376 -0.0114496 0)
(1.00247 -0.00616847 0)
(1.00196 -0.00168882 0)
(1.00189 0.00255878 0)
(1.00243 0.00696227 0)
(1.00368 0.0121436 0)
(1.00595 0.0187437 0)
(1.00956 0.0271287 0)
(1.0157 0.036769 0)
(1.02471 0.0469874 0)
(1.03296 0.0572 0)
(0.99656 0.0631493 0)
(0.711686 0.0329294 0)
(0.535535 -0.0238912 0)
(0.96987 -0.0569208 0)
(1.05643 -0.0547117 0)
(1.05212 -0.048684 0)
(1.03602 -0.0402793 0)
(1.0244 -0.0320837 0)
(1.01598 -0.0238929 0)
(1.01046 -0.0161167 0)
(1.00727 -0.00894921 0)
(1.00577 -0.00248672 0)
(1.00571 0.00379068 0)
(1.00713 0.0102406 0)
(1.01026 0.0173391 0)
(1.01568 0.0249646 0)
(1.02405 0.0328057 0)
(1.0358 0.0409071 0)
(1.05191 0.0491342 0)
(1.05634 0.0539645 0)
(0.969261 0.0574177 0)
(0.53463 0.0238866 0)
(0.392275 -0.0136403 0)
(0.911762 -0.0464177 0)
(1.05746 -0.0469147 0)
(1.06972 -0.0444186 0)
(1.05501 -0.0381703 0)
(1.03924 -0.0313808 0)
(1.0274 -0.024759 0)
(1.01891 -0.0176776 0)
(1.01367 -0.0102841 0)
(1.01116 -0.00277045 0)
(1.01111 0.00483519 0)
(1.0135 0.0121753 0)
(1.01855 0.0192531 0)
(1.02679 0.026013 0)
(1.03862 0.032518 0)
(1.0544 0.0391512 0)
(1.0689 0.045367 0)
(1.05605 0.04783 0)
(0.910341 0.0468006 0)
(0.390634 0.0137186 0)
(0.307673 -0.00451207 0)
(0.846522 -0.0323536 0)
(1.04923 -0.0399588 0)
(1.07943 -0.0382811 0)
(1.06835 -0.0337535 0)
(1.05178 -0.0282088 0)
(1.0381 -0.0226877 0)
(1.02781 -0.0166841 0)
(1.02075 -0.00995208 0)
(1.01706 -0.00257957 0)
(1.01684 0.00518119 0)
(1.02014 0.0123185 0)
(1.02697 0.0188009 0)
(1.03735 0.0246701 0)
(1.05083 0.0298919 0)
(1.06715 0.035146 0)
(1.07796 0.0394485 0)
(1.04753 0.0410962 0)
(0.843888 0.0327208 0)
(0.305023 0.00466553 0)
(0.264447 0.000128919 0)
(0.789233 -0.0199715 0)
(1.03326 -0.0312353 0)
(1.08323 -0.0318024 0)
(1.07706 -0.0287326 0)
(1.06075 -0.0241067 0)
(1.04717 -0.019707 0)
(1.03626 -0.0146246 0)
(1.02842 -0.00859531 0)
(1.02409 -0.0017318 0)
(1.02382 0.00538224 0)
(1.02773 0.0120666 0)
(1.03528 0.0177542 0)
(1.04569 0.0224459 0)
(1.05909 0.0263425 0)
(1.07542 0.0306335 0)
(1.08126 0.0332857 0)
(1.03057 0.032513 0)
(0.784976 0.0204232 0)
(0.260782 1.848e-05 0)
(0.240563 0.00107016 0)
(0.738536 -0.0122342 0)
(1.01365 -0.0250151 0)
(1.0834 -0.0267791 0)
(1.0822 -0.0245224 0)
(1.0672 -0.0205144 0)
(1.05401 -0.0167455 0)
(1.04336 -0.0123215 0)
(1.03535 -0.00709775 0)
(1.03064 -0.000974389 0)
(1.03028 0.0053606 0)
(1.0343 0.0112015 0)
(1.04177 0.0160632 0)
(1.05209 0.0199293 0)
(1.06516 0.0235222 0)
(1.07973 0.0270154 0)
(1.08026 0.0287159 0)
(1.00904 0.0265031 0)
(0.731938 0.0128309 0)
(0.235657 -0.000908227 0)
(0.226258 0.000921962 0)
(0.69562 -0.00797175 0)
(0.992731 -0.0206298 0)
(1.08177 -0.022985 0)
(1.08619 -0.0211153 0)
(1.07255 -0.0176448 0)
(1.05925 -0.0139958 0)
(1.0488 -0.00987685 0)
(1.0408 -0.00520224 0)
(1.03582 0.000104847 0)
(1.03527 0.00560709 0)
(1.03928 0.0105556 0)
(1.04652 0.0145522 0)
(1.05668 0.0181711 0)
(1.06957 0.0210266 0)
(1.08267 0.0238886 0)
(1.07757 0.0252918 0)
(0.986595 0.0223095 0)
(0.686827 0.00864879 0)
(0.220077 -0.000771209 0)
(0.217062 0.000676573 0)
(0.661505 -0.00535882 0)
(0.973086 -0.0169375 0)
(1.07919 -0.0195554 0)
(1.08942 -0.0180258 0)
(1.07717 -0.0150516 0)
(1.0638 -0.0117146 0)
(1.05337 -0.00796433 0)
(1.04556 -0.00374574 0)
(1.04067 0.00100463 0)
(1.03999 0.00606404 0)
(1.04365 0.0103693 0)
(1.05058 0.0140009 0)
(1.06 0.0169908 0)
(1.07301 0.0196489 0)
(1.08471 0.0220825 0)
(1.07301 0.0228019 0)
(0.963512 0.0191389 0)
(0.64906 0.00630075 0)
(0.209041 -0.000472134 0)
(0.210464 0.00039152 0)
(0.633735 -0.00376005 0)
(0.953737 -0.0140804 0)
(1.0754 -0.0169894 0)
(1.09197 -0.0159195 0)
(1.0811 -0.0132274 0)
(1.06756 -0.00992453 0)
(1.05708 -0.00627511 0)
(1.04941 -0.00224226 0)
(1.04473 0.00217794 0)
(1.04379 0.00678812 0)
(1.04682 0.0105896 0)
(1.05327 0.0137384 0)
(1.06292 0.0163164 0)
(1.07596 0.0189286 0)
(1.08563 0.0205985 0)
(1.06721 0.0206603 0)
(0.941653 0.0166256 0)
(0.618107 0.00486102 0)
(0.200497 -0.000152171 0)
(0.205684 0.00014092 0)
(0.612581 -0.00254268 0)
(0.93765 -0.0112582 0)
(1.07234 -0.0141698 0)
(1.09459 -0.0134005 0)
(1.08504 -0.0111869 0)
(1.07111 -0.00836382 0)
(1.0602 -0.00507725 0)
(1.05233 -0.00114369 0)
(1.04757 0.00326376 0)
(1.04626 0.00764225 0)
(1.0488 0.0113836 0)
(1.05492 0.0142521 0)
(1.06489 0.0165758 0)
(1.07802 0.018084 0)
(1.08615 0.0192768 0)
(1.06094 0.0189639 0)
(0.920652 0.0144832 0)
(0.591822 0.00390934 0)
(0.192985 0.000177059 0)
(0.202204 3.86512e-06 0)
(0.597076 -0.00142226 0)
(0.923319 -0.00840487 0)
(1.06926 -0.0110977 0)
(1.09731 -0.0104413 0)
(1.08911 -0.00842402 0)
(1.0749 -0.00581035 0)
(1.06346 -0.00276563 0)
(1.05492 0.000793446 0)
(1.04946 0.00497637 0)
(1.04782 0.00892735 0)
(1.05048 0.0122405 0)
(1.05695 0.0144525 0)
(1.06676 0.0158976 0)
(1.07986 0.0170123 0)
(1.08623 0.0176226 0)
(1.0545 0.0168058 0)
(0.901637 0.0121682 0)
(0.571048 0.00312311 0)
(0.186436 0.000372753 0)
(0.200302 -7.29179e-05 0)
(0.58682 -0.000415285 0)
(0.912005 -0.0051857 0)
(1.067 -0.00741118 0)
(1.09984 -0.00676776 0)
(1.09294 -0.0049515 0)
(1.07918 -0.00260658 0)
(1.06782 0.000149368 0)
(1.05893 0.00324819 0)
(1.05285 0.00675795 0)
(1.05084 0.00983938 0)
(1.05337 0.0122273 0)
(1.05963 0.0137851 0)
(1.06929 0.014768 0)
(1.08164 0.0156979 0)
(1.08601 0.0158861 0)
(1.04802 0.0147022 0)
(0.884169 0.00988579 0)
(0.554481 0.00244828 0)
(0.180526 0.000421114 0)
(0.200215 -0.00015704 0)
(0.582309 0.000600339 0)
(0.904219 -0.00214793 0)
(1.06506 -0.00437586 0)
(1.10235 -0.0036141 0)
(1.09662 -0.0017682 0)
(1.08337 0.000566048 0)
(1.07226 0.00334249 0)
(1.06346 0.00629464 0)
(1.05712 0.00931148 0)
(1.05447 0.0118208 0)
(1.05601 0.0135055 0)
(1.06131 0.0143439 0)
(1.06991 0.0150475 0)
(1.08149 0.0147237 0)
(1.08387 0.0143645 0)
(1.03972 0.012616 0)
(0.867906 0.00784934 0)
(0.541798 0.00198696 0)
(0.175681 0.000406952 0)
(0.20145 7.62932e-05 0)
(0.582185 0.00122724 0)
(0.898297 0.000107129 0)
(1.06403 -0.00104656 0)
(1.10452 -0.000269245 0)
(1.0996 0.00143969 0)
(1.08645 0.00364555 0)
(1.07519 0.00627046 0)
(1.06618 0.00914601 0)
(1.05946 0.0119108 0)
(1.05613 0.0141893 0)
(1.0569 0.0153128 0)
(1.06149 0.0156203 0)
(1.06958 0.0154228 0)
(1.08051 0.0145517 0)
(1.08144 0.0137751 0)
(1.03216 0.0117665 0)
(0.854121 0.00683034 0)
(0.531269 0.00194229 0)
(0.171264 0.000428466 0)
(0.204349 0.000486494 0)
(0.584129 0.00183404 0)
(0.897368 0.00283004 0)
(1.0633 0.00187109 0)
(1.10668 0.00313533 0)
(1.10239 0.00503435 0)
(1.08896 0.00732696 0)
(1.07708 0.0098787 0)
(1.06739 0.0126894 0)
(1.05999 0.0152625 0)
(1.05598 0.0171922 0)
(1.05616 0.0176699 0)
(1.06041 0.0173223 0)
(1.06859 0.0164265 0)
(1.07856 0.0152002 0)
(1.07734 0.0136694 0)
(1.02278 0.0109273 0)
(0.840309 0.00609497 0)
(0.521591 0.00201377 0)
(0.166965 0.000443991 0)
(0.209858 0.000615535 0)
(0.590649 0.00275685 0)
(0.899839 0.00461667 0)
(1.06514 0.00547694 0)
(1.10954 0.00705835 0)
(1.10583 0.00904089 0)
(1.09227 0.0114371 0)
(1.07992 0.0141048 0)
(1.06945 0.0168181 0)
(1.06087 0.0191763 0)
(1.05561 0.0206483 0)
(1.05481 0.0204669 0)
(1.05859 0.0193122 0)
(1.06626 0.0176215 0)
(1.07539 0.0158633 0)
(1.07288 0.0139397 0)
(1.01482 0.0109289 0)
(0.829344 0.00617731 0)
(0.512826 0.00224044 0)
(0.162537 0.000456599 0)
(0.215464 0.000647132 0)
(0.598548 0.00332888 0)
(0.904558 0.00635666 0)
(1.06846 0.00792107 0)
(1.11357 0.0100787 0)
(1.11019 0.0127357 0)
(1.09656 0.0156829 0)
(1.08395 0.0188043 0)
(1.07295 0.0218727 0)
(1.06351 0.0244027 0)
(1.05704 0.0254746 0)
(1.05464 0.0246328 0)
(1.05703 0.0228085 0)
(1.0637 0.0205937 0)
(1.07178 0.0181539 0)
(1.06692 0.0153289 0)
(1.00403 0.0115264 0)
(0.81545 0.00666833 0)
(0.502225 0.00265763 0)
(0.157333 0.000512516 0)
(0.223973 0.000836278 0)
(0.612377 0.00420638 0)
(0.914371 0.00853734 0)
(1.07406 0.011135 0)
(1.11853 0.0135175 0)
(1.11535 0.0164884 0)
(1.10138 0.0197308 0)
(1.08822 0.0235735 0)
(1.07632 0.0272445 0)
(1.06547 0.0302892 0)
(1.05691 0.0313435 0)
(1.05305 0.0304116 0)
(1.05436 0.0279959 0)
(1.06014 0.0248176 0)
(1.06705 0.0215049 0)
(1.06054 0.0179555 0)
(0.994796 0.01356 0)
(0.804465 0.00822501 0)
(0.491693 0.0033566 0)
(0.15145 0.000616415 0)
(0.232934 0.0011384 0)
(0.62596 0.00506107 0)
(0.925164 0.0104753 0)
(1.08117 0.0140581 0)
(1.12455 0.0173599 0)
(1.12101 0.0209048 0)
(1.10643 0.0252128 0)
(1.09245 0.0298153 0)
(1.07929 0.0343197 0)
(1.06696 0.0380699 0)
(1.05688 0.0391121 0)
(1.0515 0.0376289 0)
(1.05082 0.034522 0)
(1.05533 0.0307403 0)
(1.06058 0.0268078 0)
(1.05135 0.0218671 0)
(0.980345 0.0161355 0)
(0.786138 0.00979823 0)
(0.475853 0.00413209 0)
(0.143437 0.000759165 0)
(0.246169 0.00148032 0)
(0.646269 0.00689696 0)
(0.940749 0.0138036 0)
(1.09013 0.018734 0)
(1.13106 0.0224064 0)
(1.12774 0.0269563 0)
(1.11289 0.0319244 0)
(1.0979 0.0375986 0)
(1.08302 0.0430127 0)
(1.06819 0.0471083 0)
(1.05518 0.0479109 0)
(1.04764 0.0460456 0)
(1.046 0.0423166 0)
(1.04927 0.037134 0)
(1.05259 0.0321602 0)
(1.0407 0.0257614 0)
(0.966876 0.0190452 0)
(0.771595 0.0118651 0)
(0.460829 0.00497673 0)
(0.134806 0.000866515 0)
(0.261831 0.0019819 0)
(0.670106 0.00833369 0)
(0.959849 0.0173947 0)
(1.10244 0.0238141 0)
(1.14061 0.0291919 0)
(1.13655 0.0346607 0)
(1.12092 0.0411346 0)
(1.10456 0.0480629 0)
(1.08766 0.0542768 0)
(1.07037 0.0586459 0)
(1.05525 0.0591592 0)
(1.04548 0.0562399 0)
(1.04073 0.0511497 0)
(1.04142 0.0450503 0)
(1.04237 0.0385477 0)
(1.0263 0.0309468 0)
(0.946633 0.0225487 0)
(0.746037 0.0139211 0)
(0.43747 0.00583209 0)
(0.12318 0.000999812 0)
(0.283668 0.00278635 0)
(0.702571 0.0120993 0)
(0.985664 0.023374 0)
(1.11827 0.0321179 0)
(1.15154 0.0383966 0)
(1.14707 0.0457373 0)
(1.13048 0.0536483 0)
(1.11233 0.061593 0)
(1.09275 0.0685616 0)
(1.07201 0.0727484 0)
(1.05293 0.0722735 0)
(1.03995 0.0677365 0)
(1.03391 0.0614667 0)
(1.03251 0.053712 0)
(1.03023 0.045392 0)
(1.01031 0.0360655 0)
(0.927347 0.0264219 0)
(0.725886 0.0167499 0)
(0.416688 0.00697863 0)
(0.111539 0.00107543 0)
(0.313831 0.00378168 0)
(0.745689 0.014962 0)
(1.01847 0.0306618 0)
(1.13905 0.0420257 0)
(1.16707 0.0512778 0)
(1.16016 0.0610787 0)
(1.14145 0.0704555 0)
(1.12047 0.0794892 0)
(1.09755 0.0864797 0)
(1.0732 0.0896682 0)
(1.0511 0.0876087 0)
(1.03546 0.0815756 0)
(1.02528 0.0730403 0)
(1.02033 0.0637108 0)
(1.0151 0.0537662 0)
(0.990568 0.0432278 0)
(0.900594 0.0317333 0)
(0.690427 0.0199091 0)
(0.382497 0.00795746 0)
(0.0954266 0.00120207 0)
(0.350086 0.00757345 0)
(0.799884 0.0245892 0)
(1.06049 0.0433266 0)
(1.1659 0.0585347 0)
(1.18575 0.0699823 0)
(1.17542 0.0820813 0)
(1.1533 0.0930979 0)
(1.12859 0.102311 0)
(1.1015 0.108625 0)
(1.07259 0.11039 0)
(1.04598 0.106252 0)
(1.02646 0.0969161 0)
(1.01487 0.0862728 0)
(1.00763 0.0747906 0)
(0.998239 0.0628616 0)
(0.968756 0.050227 0)
(0.873366 0.0371382 0)
(0.661266 0.0235193 0)
(0.354533 0.00951431 0)
(0.0809615 0.00112016 0)
(0.43255 0.0113108 0)
(0.881881 0.0350673 0)
(1.11647 0.0632848 0)
(1.19922 0.0828984 0)
(1.20969 0.0964995 6.79894e-34)
(1.19282 0.112159 -3.03469e-34)
(1.16563 0.122908 0)
(1.13619 0.131259 0)
(1.10428 0.135683 0)
(1.07071 0.134386 0)
(1.03997 0.126318 0)
(1.01727 0.114552 0)
(1.00127 0.101341 0)
(0.990044 0.0879447 0)
(0.977796 0.074402 0)
(0.94295 0.060553 0)
(0.838021 0.045009 0)
(0.611773 0.0282653 0)
(0.304417 0.00980512 0)
(0.0592155 0.000845886 0)
(0.501517 0.026302 5.13187e-20)
(0.976017 0.0591432 -3.87517e-20)
(1.17639 0.0958112 0)
(1.23454 0.118509 2.98423e-20)
(1.23517 0.135925 -2.41794e-20)
(1.20989 0.151497 3.20178e-34)
(1.1771 0.160879 0)
(1.14216 0.167378 1.68096e-20)
(1.10462 0.169289 -5.50969e-20)
(1.0655 0.164991 1.12136e-20)
(1.03008 0.154124 0)
(1.00311 0.138625 -2.82706e-20)
(0.984727 0.12223 -3.3763e-20)
(0.970516 0.106266 5.89897e-20)
(0.951424 0.0904856 -4.65926e-20)
(0.906519 0.0735968 0)
(0.786962 0.0549178 -1.69093e-20)
(0.54756 0.0334555 0)
(0.252146 0.012917 -9.27574e-20)
(0.0412782 0.00135135 1.09652e-19)
(0.533453 0.0544275 -6.77809e-21)
(1.03246 0.102217 1.18923e-19)
(1.22138 0.146685 -7.39094e-21)
(1.26636 0.166608 -7.56149e-20)
(1.25823 0.184484 -5.10496e-20)
(1.225 0.19812 8.28949e-20)
(1.18635 0.205536 0)
(1.14547 0.210107 0)
(1.10219 0.209467 8.78618e-20)
(1.05733 0.201763 0)
(1.0154 0.186611 1.02544e-19)
(0.98196 0.167481 3.03316e-20)
(0.956935 0.149789 3.34552e-22)
(0.936454 0.132833 -6.4646e-20)
(0.915176 0.1165 0)
(0.867456 0.0996144 0)
(0.74474 0.0753401 -2.78226e-19)
(0.51211 0.0492231 6.96536e-19)
(0.237762 0.0196711 -4.13098e-19)
(0.0377707 0.00398947 -4.88468e-19)
(0.538208 0.0774242 -7.23555e-20)
(1.06455 0.159264 2.72275e-20)
(1.25497 0.208176 1.43538e-20)
(1.29203 0.225911 1.32452e-19)
(1.27623 0.241413 1.38782e-20)
(1.23647 0.250966 -2.16579e-19)
(1.19221 0.255019 7.33382e-20)
(1.14554 0.256552 0)
(1.09649 0.252486 -1.86188e-19)
(1.04562 0.241463 1.64479e-19)
(0.99863 0.223508 -2.76872e-19)
(0.962794 0.204187 1.29714e-19)
(0.936249 0.185035 -8.39429e-20)
(0.914287 0.166351 1.89023e-19)
(0.886212 0.147852 0)
(0.833884 0.128528 -6.93411e-20)
(0.71509 0.102897 0)
(0.500375 0.0666401 3.86475e-19)
(0.241176 0.0326748 -9.17351e-19)
(0.0464762 0.00592728 5.74764e-19)
(0.52839 0.109513 2.16328e-19)
(1.07949 0.216749 -9.3752e-20)
(1.27464 0.273815 -1.96764e-20)
(1.30905 0.290115 0)
(1.28807 0.302886 -9.69715e-20)
(1.24356 0.307726 1.1924e-19)
(1.19461 0.307715 -7.84183e-20)
(1.14295 0.305404 0)
(1.08896 0.297339 1.3238e-19)
(1.03283 0.282422 -1.15652e-19)
(0.980719 0.260853 2.40136e-19)
(0.938053 0.237254 0)
(0.90423 0.215026 -1.78391e-19)
(0.875848 0.195762 1.00646e-19)
(0.851302 0.178967 2.54066e-19)
(0.805443 0.161249 -2.235e-19)
(0.696734 0.132946 3.59454e-19)
(0.498281 0.0915473 -7.96166e-19)
(0.256149 0.0476189 5.03337e-19)
(0.0584523 0.0110353 -6.30121e-19)
(0.514334 0.133767 -8.44478e-20)
(1.08501 0.271771 6.09169e-20)
(1.28513 0.340562 -6.50903e-20)
(1.31816 0.355538 1.24806e-19)
(1.29345 0.365593 -1.14984e-19)
(1.24562 0.365897 3.80681e-20)
(1.19298 0.361904 3.64704e-21)
(1.13711 0.355647 -1.5153e-19)
(1.07845 0.343647 -1.38955e-19)
(1.01714 0.324955 -2.48425e-19)
(0.96058 0.300524 -5.16077e-19)
(0.916349 0.275036 -1.58562e-19)
(0.884311 0.253948 2.52618e-21)
(0.859759 0.235847 -3.43652e-19)
(0.828458 0.217227 -6.34096e-21)
(0.778653 0.194373 3.24451e-19)
(0.675655 0.162686 -9.83577e-20)
(0.494134 0.116423 -5.74579e-20)
(0.267732 0.0642098 0)
(0.0678006 0.0166287 1.33565e-18)
(0.495549 0.154495 0)
(1.07664 0.32136 -8.91482e-21)
(1.28675 0.403974 -1.34467e-20)
(1.32062 0.419277 -1.23477e-20)
(1.29342 0.427565 1.12896e-19)
(1.24324 0.423888 -8.80024e-20)
(1.18776 0.416226 8.58696e-20)
(1.12856 0.406087 2.48413e-19)
(1.06629 0.390003 -7.71561e-20)
(1.00158 0.367186 1.23573e-19)
(0.941481 0.338453 2.77269e-19)
(0.89344 0.310509 3.45237e-19)
(0.855584 0.286444 -2.07154e-19)
(0.823015 0.264016 3.71042e-19)
(0.798292 0.244638 -2.9359e-19)
(0.758286 0.226422 0)
(0.66672 0.193153 -7.45994e-19)
(0.497584 0.142752 1.00412e-18)
(0.278092 0.0811251 7.50861e-20)
(0.0747081 0.0221554 -1.40582e-18)
(0.481171 0.175283 -5.29485e-21)
(1.06851 0.370508 3.60104e-20)
(1.28409 0.465412 9.8989e-20)
(1.31838 0.480988 -1.18163e-19)
(1.28903 0.487647 9.09267e-20)
(1.23707 0.480457 -8.63049e-20)
(1.17941 0.469547 1.71044e-19)
(1.11771 0.455769 -7.53291e-20)
(1.05251 0.435915 -3.11363e-19)
(0.984221 0.409647 4.29278e-22)
(0.920681 0.378 -3.00016e-19)
(0.870863 0.347672 -3.69636e-19)
(0.834943 0.321262 2.27803e-19)
(0.81028 0.300798 -1.33123e-19)
(0.779727 0.28195 3.1766e-19)
(0.734952 0.25716 0)
(0.646618 0.2224 -4.60782e-19)
(0.490277 0.166898 6.80579e-19)
(0.282187 0.0965546 1.29384e-18)
(0.0786126 0.0272343 -1.52236e-18)
(0.466238 0.192784 -9.20851e-23)
(1.05435 0.414739 -6.88831e-21)
(1.2769 0.522757 -7.47035e-20)
(1.31242 0.539506 1.2291e-19)
(1.2814 0.545256 1.12918e-20)
(1.22809 0.535072 -1.69942e-19)
(1.16881 0.521219 -9.82316e-20)
(1.10513 0.504119 -9.46144e-20)
(1.03748 0.4808 -1.74356e-19)
(0.966561 0.450507 2.8179e-19)
(0.901213 0.414262 3.04039e-19)
(0.849647 0.380441 5.86604e-19)
(0.810921 0.352906 0)
(0.77629 0.328946 5.75016e-21)
(0.75218 0.307487 -8.68919e-19)
(0.716197 0.287658 2.01665e-19)
(0.636199 0.250643 9.90265e-19)
(0.484347 0.190689 -2.91639e-19)
(0.278427 0.110625 6.10148e-19)
(0.0783877 0.0303426 -5.1197e-20)
(0.457308 0.211884 6.07086e-21)
(1.0435 0.458805 1.85303e-20)
(1.26809 0.578086 -4.05103e-20)
(1.30389 0.595732 1.51501e-19)
(1.27126 0.600261 -1.99443e-19)
(1.21702 0.587232 1.69822e-19)
(1.15644 0.570834 1.01678e-19)
(1.0911 0.550787 2.8405e-19)
(1.02118 0.524392 3.52205e-19)
(0.947183 0.49086 -3.22644e-19)
(0.878436 0.452556 0)
(0.826129 0.415519 -2.20312e-19)
(0.788186 0.384649 2.52938e-19)
(0.764165 0.361106 3.17551e-19)
(0.733871 0.339393 -1.83491e-19)
(0.692397 0.31222 -4.48394e-19)
(0.614178 0.274958 -1.34235e-19)
(0.470886 0.208488 -1.25521e-21)
(0.26966 0.120257 0)
(0.0752247 0.0325015 0)
(0.448821 0.227429 -4.5323e-20)
(1.0301 0.498584 0)
(1.25689 0.629201 -2.75665e-20)
(1.29334 0.648459 -1.48171e-21)
(1.25947 0.652246 2.22139e-19)
(1.20445 0.636842 -5.71158e-20)
(1.14279 0.61825 1.02894e-19)
(1.07604 0.595552 -1.92694e-19)
(1.00437 0.566382 2.6627e-19)
(0.929298 0.529855 -1.03979e-19)
(0.860355 0.486171 1.72928e-19)
(0.805706 0.445684 6.97571e-19)
(0.764932 0.414132 1.36013e-20)
(0.729677 0.38489 -3.31089e-19)
(0.70689 0.361277 6.12029e-19)
(0.674747 0.339208 4.48963e-21)
(0.601775 0.295719 1.43616e-19)
(0.458902 0.225753 -6.87403e-19)
(0.259536 0.127082 6.99738e-19)
(0.070572 0.0340813 -8.33237e-19)
(0.442655 0.246423 3.36712e-23)
(1.01911 0.538129 0)
(1.24526 0.678547 0)
(1.2814 0.699042 -1.30911e-20)
(1.24636 0.701596 -6.86672e-20)
(1.19087 0.683753 8.1064e-20)
(1.12838 0.66321 -1.94806e-19)
(1.06059 0.638263 0)
(0.987683 0.606667 -3.9218e-19)
(0.910026 0.566829 4.6566e-19)
(0.836083 0.520701 4.90094e-19)
(0.779288 0.478445 -2.55957e-19)
(0.740721 0.440854 -3.08199e-19)
(0.715968 0.414288 7.22031e-19)
(0.687793 0.389918 -2.17264e-19)
(0.649391 0.357258 -2.5976e-19)
(0.576842 0.315106 -1.56106e-19)
(0.440557 0.236873 -7.41061e-19)
(0.246844 0.131765 1.06438e-19)
(0.064987 0.0344098 8.99274e-19)
(0.438914 0.265083 -2.58617e-20)
(1.00742 0.574092 -3.00941e-20)
(1.23238 0.72382 2.34886e-20)
(1.2686 0.746168 -1.72005e-23)
(1.23275 0.747993 -6.12047e-20)
(1.17677 0.728093 1.37158e-19)
(1.11349 0.705806 0)
(1.04467 0.678848 1.15145e-19)
(0.969766 0.64495 -9.07937e-20)
(0.88938 0.602985 7.74182e-19)
(0.814743 0.55491 -1.12783e-19)
(0.757929 0.50679 1.26766e-19)
(0.716259 0.468847 0)
(0.680953 0.434509 -3.90618e-19)
(0.659145 0.40518 4.72618e-19)
(0.630023 0.379832 0)
(0.5613 0.328636 -3.37826e-19)
(0.42295 0.247712 9.91792e-19)
(0.233238 0.134354 1.16841e-19)
(0.0588987 0.0338624 -1.10743e-18)
(0.437022 0.281951 -7.00223e-20)
(0.997983 0.609606 9.04397e-20)
(1.21977 0.76739 0)
(1.25536 0.791124 -9.77353e-21)
(1.21872 0.791905 0)
(1.16243 0.769978 -1.71205e-19)
(1.09855 0.746104 0)
(1.02877 0.717337 0)
(0.952898 0.6821 -1.18465e-19)
(0.871974 0.638275 -7.35566e-19)
(0.794837 0.585674 -9.04048e-19)
(0.73319 0.535312 1.47629e-19)
(0.689431 0.492377 5.31315e-19)
(0.666795 0.458612 4.29675e-19)
(0.639437 0.429782 -1.5166e-18)
(0.603086 0.391863 -6.11341e-19)
(0.533668 0.343 3.57297e-19)
(0.400974 0.2528 0)
(0.218334 0.135006 1.00763e-18)
(0.0525788 0.0324147 -1.1941e-18)
(0.435619 0.297724 8.75166e-20)
(0.987774 0.64174 -1.08291e-19)
(1.20677 0.80716 0)
(1.24199 0.832808 -1.04104e-20)
(1.20477 0.833091 9.78706e-21)
(1.14817 0.809516 0)
(1.08357 0.784168 5.91473e-20)
(1.01304 0.753849 7.84891e-20)
(0.935663 0.716613 -2.23828e-19)
(0.851184 0.670153 9.77514e-20)
(0.76951 0.615133 0)
(0.707676 0.562568 6.10517e-19)
(0.667789 0.516317 4.25492e-21)
(0.629616 0.476343 2.31845e-19)
(0.609089 0.440156 2.75406e-19)
(0.581877 0.410588 0)
(0.515592 0.349523 -5.88757e-19)
(0.381154 0.257731 1.15542e-18)
(0.202828 0.133745 -1.22469e-18)
(0.0464939 0.0303335 2.57474e-18)
(0.434584 0.312746 0)
(0.979301 0.673668 0)
(1.19445 0.845297 -5.00551e-20)
(1.22873 0.872344 0)
(1.19087 0.871884 0)
(1.13403 0.846808 -1.4656e-19)
(1.06907 0.820212 6.05423e-20)
(0.997726 0.788466 1.72321e-20)
(0.918828 0.750181 -5.14938e-20)
(0.832684 0.703612 0)
(0.750883 0.64837 -1.36711e-19)
(0.68579 0.591095 -4.97958e-19)
(0.635802 0.540448 -5.98824e-19)
(0.613305 0.497341 -2.40533e-19)
(0.587698 0.4621 2.99293e-19)
(0.553343 0.414903 -7.06603e-19)
(0.486103 0.359159 1.26781e-18)
(0.356545 0.257021 5.27459e-21)
(0.187049 0.130603 -1.17763e-18)
(0.0407508 0.0278736 -1.74073e-19)
(0.433457 0.327437 0)
(0.970336 0.702806 -9.04964e-20)
(1.18207 0.880193 6.40706e-20)
(1.2156 0.908941 0)
(1.17727 0.908158 0)
(1.1203 0.88189 2.96085e-19)
(1.05481 0.854171 0)
(0.982664 0.821162 0)
(0.90292 0.781677 -4.88471e-19)
(0.815694 0.732694 1.33436e-19)
(0.729678 0.673833 -1.21063e-18)
(0.659593 0.615119 0)
(0.614581 0.56229 -6.47088e-19)
(0.573599 0.513559 1.12831e-20)
(0.553163 0.46631 -9.59376e-19)
(0.529542 0.428456 3.80727e-19)
(0.467087 0.356235 3.039e-21)
(0.338581 0.255232 -1.3405e-18)
(0.17326 0.126232 6.35355e-19)
(0.0360548 0.0256531 1.8635e-19)
(0.432467 0.341664 0)
(0.962792 0.731659 -1.33116e-19)
(1.1704 0.913684 6.76974e-20)
(1.20283 0.943547 7.04895e-20)
(1.16397 0.942135 -2.06098e-20)
(1.10684 0.914803 2.98581e-20)
(1.04116 0.886259 -3.86019e-20)
(0.968678 0.852259 4.76224e-19)
(0.887759 0.812099 5.22527e-19)
(0.797609 0.763693 1.01647e-18)
(0.707783 0.706288 1.00597e-18)
(0.636264 0.644371 1.76153e-19)
(0.581471 0.585169 9.31475e-19)
(0.55445 0.53258 5.74756e-19)
(0.52906 0.48572 6.8904e-19)
(0.497595 0.423342 -4.18182e-19)
(0.43564 0.357643 -4.91432e-19)
(0.314471 0.245436 5.76099e-19)
(0.159361 0.118741 -3.40488e-19)
(0.0340656 0.0268907 6.039e-19)
(0.431381 0.355445 1.92358e-19)
(0.954867 0.75788 2.07588e-19)
(1.15876 0.944377 4.05056e-20)
(1.1903 0.975585 1.62853e-20)
(1.15106 0.973866 3.45201e-20)
(1.09398 0.945682 -8.27105e-20)
(1.02811 0.916361 3.74857e-20)
(0.955153 0.881569 -2.13727e-20)
(0.873289 0.840516 -6.05114e-19)
(0.782421 0.790474 -1.10247e-18)
(0.692249 0.72927 6.97513e-20)
(0.615162 0.667603 0)
(0.558834 0.609803 0)
(0.5112 0.549625 -2.98957e-19)
(0.487423 0.485128 -1.12402e-18)
(0.467086 0.431146 9.02285e-19)
(0.4171 0.334616 5.40074e-19)
(0.312868 0.225343 0)
(0.166716 0.0971293 1.08623e-18)
(0.0281383 0.00494415 -6.47907e-19)
(0.430446 0.368512 -1.01808e-19)
(0.948037 0.783651 9.03991e-20)
(1.14779 0.97383 -1.00247e-19)
(1.17825 1.00583 -7.36925e-20)
(1.13863 1.00346 -3.51649e-21)
(1.08154 0.974475 -2.63732e-20)
(1.01563 0.94465 0)
(0.942372 0.909189 -5.96876e-19)
(0.859721 0.867841 7.56959e-20)
(0.766219 0.818432 0)
(0.670109 0.761219 0)
(0.587834 0.697519 1.11496e-19)
(0.524891 0.631627 1.50041e-19)
(0.489207 0.567783 -3.21803e-19)
(0.457885 0.506415 8.07605e-19)
(0.425475 0.416083 -9.82734e-19)
(0.374784 0.321174 -1.15581e-18)
(0.299454 0.200639 1.02074e-18)
(0.203174 0.121724 -3.88877e-19)
(0.117478 0.0874934 2.26574e-19)
(0.429258 0.380825 1.309e-19)
(0.940785 0.806886 0)
(1.1369 1.00075 0)
(1.16655 1.03383 -1.90899e-20)
(1.12667 1.03112 1.54533e-20)
(1.0697 1.00145 -2.09374e-20)
(1.00372 0.971077 1.61497e-19)
(0.930273 0.93516 6.10791e-19)
(0.846991 0.893515 1.09444e-18)
(0.753109 0.84337 -8.21951e-20)
(0.657099 0.78261 1.6934e-19)
(0.572173 0.720179 -9.93221e-19)
(0.504684 0.658993 -9.86664e-19)
(0.441976 0.590349 -1.71992e-19)
(0.40329 0.504609 0)
(0.376013 0.425963 -1.15077e-20)
(0.337858 0.26448 6.31093e-19)
(0.293067 0.101315 -1.07238e-18)
(0.252497 -0.0462967 8.14809e-19)
(0.0797135 -0.0924276 6.7795e-19)
(0.428169 0.39255 -2.90393e-19)
(0.934384 0.829736 -1.31778e-19)
(1.1266 1.0267 6.65118e-21)
(1.15524 1.06043 4.78699e-20)
(1.11507 1.05715 0)
(1.05816 1.02688 -9.80902e-20)
(0.992237 0.996287 -2.30121e-19)
(0.918621 0.960134 -1.26187e-21)
(0.834659 0.918331 -5.73239e-19)
(0.738155 0.869078 -8.04912e-20)
(0.636206 0.812577 7.47607e-20)
(0.544829 0.751825 8.72185e-19)
(0.46841 0.683848 9.63569e-19)
(0.418104 0.61171 1.66681e-19)
(0.369778 0.53875 8.54897e-19)
(0.306899 0.410747 0)
(0.20211 0.256626 0)
(0.0325041 0.257441 7.47032e-19)
(-0.0711542 0.628924 -3.30634e-20)
(0.00220131 1.51406 -9.09803e-19)
(0.42671 0.403679 1.60879e-19)
(0.927615 0.850395 3.63972e-19)
(1.11635 1.05058 -4.8848e-19)
(1.14423 1.08541 2.35244e-19)
(1.10382 1.08203 -2.00046e-21)
(1.04699 1.05141 -5.58024e-20)
(0.980993 1.02062 0)
(0.907167 0.984429 -5.0932e-19)
(0.8225 0.943173 0)
(0.725421 0.893911 1.1348e-18)
(0.624217 0.835989 -9.01073e-20)
(0.531945 0.775604 1.01034e-19)
(0.451665 0.717748 1.09295e-18)
(0.365465 0.651769 -3.60397e-19)
(0.279708 0.551335 -4.36987e-19)
(0.208938 0.472311 0)
(0.104206 0.563658 0)
(0.0339862 1.27274 0)
(0.076663 2.43778 -4.25007e-19)
(0.106488 2.89832 -2.60048e-19)
(0.425307 0.414299 0)
(0.92164 0.870724 0)
(1.10669 1.0737 1.79008e-19)
(1.13363 1.10921 -1.8989e-19)
(1.09294 1.10551 7.52862e-20)
(1.03617 1.07465 6.00132e-20)
(0.970192 1.04402 2.9183e-20)
(0.896184 1.00809 -2.27218e-20)
(0.811064 0.967179 8.00812e-20)
(0.712212 0.919696 -1.30219e-18)
(0.605724 0.866699 1.63435e-19)
(0.504335 0.81177 8.62358e-19)
(0.412148 0.751754 -1.08939e-18)
(0.34166 0.67726 -1.18691e-18)
(0.273064 0.616077 4.0106e-19)
(0.204609 0.73719 0)
(0.13904 1.50808 5.64484e-19)
(0.136946 2.67584 6.34254e-19)
(0.144018 3.08187 -7.09748e-19)
(0.134662 3.21937 7.75176e-19)
(0.423549 0.424234 0)
(0.915305 0.888864 3.28202e-19)
(1.09713 1.0948 -4.4746e-20)
(1.12341 1.13148 2.75107e-19)
(1.08252 1.12794 -7.90247e-20)
(1.02582 1.09703 0)
(0.959774 1.06651 0)
(0.885659 1.0309 0)
(0.800046 0.991142 4.54037e-19)
(0.700814 0.944942 6.0315e-20)
(0.594311 0.890982 0)
(0.494578 0.836668 -8.5823e-19)
(0.406942 0.78851 0)
(0.295276 0.733263 8.50174e-19)
(0.213443 0.809616 -5.67733e-19)
(0.16878 1.44826 -4.58973e-19)
(0.172673 2.66556 -1.09334e-18)
(0.192541 3.12596 -5.77359e-19)
(0.182904 3.2705 -7.92581e-19)
(0.167816 3.31133 6.38311e-19)
(0.421935 0.433515 -1.15579e-19)
(0.909739 0.906784 1.53171e-20)
(1.08815 1.11533 -5.02438e-20)
(1.11359 1.15271 -2.11056e-19)
(1.07242 1.14907 0)
(1.01582 1.11822 0)
(0.949807 1.08816 0)
(0.875611 1.05321 3.51694e-20)
(0.789832 1.01432 -5.736e-19)
(0.689191 0.969847 0)
(0.578892 0.922349 0)
(0.472749 0.877144 0)
(0.363587 0.829942 0)
(0.307898 0.820567 6.14931e-19)
(0.283439 1.18205 1.51641e-18)
(0.268488 2.34724 4.53165e-19)
(0.279518 3.08147 9.183e-19)
(0.272465 3.2893 -7.0089e-19)
(0.222068 3.35688 2.6184e-19)
(0.188178 3.36945 0)
(0.420017 0.442306 1.19522e-19)
(0.903578 0.923003 -7.33457e-19)
(1.07904 1.13447 -1.94716e-19)
(1.10396 1.17311 -4.20914e-20)
(1.06263 1.16984 1.84151e-20)
(1.00614 1.13918 -4.41716e-20)
(0.940146 1.10947 -5.55443e-21)
(0.866037 1.07511 -4.00198e-19)
(0.779962 1.03763 0)
(0.679191 0.995749 -7.52545e-20)
(0.569442 0.948464 6.8458e-20)
(0.464433 0.901613 0)
(0.380673 0.872411 0)
(0.323982 0.996437 -7.68653e-19)
(0.289959 1.83971 9.05042e-20)
(0.286495 2.93243 -3.36242e-19)
(0.305508 3.294 6.96379e-19)
(0.278526 3.39564 5.06782e-19)
(0.210982 3.42107 -6.81016e-19)
(0.185144 3.42978 3.39639e-19)
(0.417946 0.451193 2.37061e-19)
(0.897639 0.940688 7.17819e-19)
(1.06971 1.15488 2.3296e-19)
(1.09388 1.19414 0)
(1.05235 1.19079 0)
(0.996076 1.16023 3.52297e-20)
(0.93025 1.13107 8.52946e-20)
(0.85624 1.09744 3.57391e-19)
(0.770345 1.06117 2.27771e-20)
(0.669097 1.02086 9.66007e-19)
(0.557389 0.979763 -1.12831e-18)
(0.447077 0.944081 0)
(0.365668 0.94952 0)
(0.347282 1.3444 -5.20429e-19)
(0.353309 2.45396 -6.26706e-19)
(0.394755 3.1994 0)
(0.420198 3.38064 -6.82062e-19)
(0.350308 3.44521 6.09148e-20)
(0.276619 3.48943 2.98338e-19)
(0.252388 3.51538 -9.18131e-20)
(0.415141 0.460504 -4.53207e-19)
(0.890223 0.957859 -3.45385e-19)
(1.05926 1.17534 0)
(1.08309 1.21587 0)
(1.04157 1.21285 0)
(0.985551 1.18236 0)
(0.919994 1.15338 -9.85954e-20)
(0.846427 1.12032 3.17261e-19)
(0.760695 1.08523 0)
(0.659769 1.04807 -8.80049e-19)
(0.549306 1.00881 2.02301e-18)
(0.447378 0.975503 8.22637e-20)
(0.393329 1.0609 1.07633e-19)
(0.398427 1.7301 8.47811e-19)
(0.420036 2.88425 -4.47442e-19)
(0.457461 3.32784 0)
(0.439659 3.45733 1.85655e-19)
(0.350982 3.54573 9.72491e-20)
(0.268845 3.61357 1.72184e-19)
(0.193066 3.59343 -3.11002e-20)
(0.412139 0.469969 2.16733e-19)
(0.88283 0.977514 -3.55585e-19)
(1.04819 1.19791 0)
(1.07133 1.23875 -6.12609e-20)
(1.02973 1.23541 2.07739e-19)
(0.97415 1.20476 0)
(0.909016 1.17619 0)
(0.835886 1.14359 -5.51789e-19)
(0.750792 1.10974 -5.68218e-20)
(0.650486 1.07385 8.61081e-19)
(0.537763 1.03916 -9.62295e-19)
(0.447905 1.03129 5.56639e-19)
(0.413294 1.24082 0)
(0.444501 2.15614 -4.48171e-19)
(0.488478 3.14144 2.95186e-19)
(0.548023 3.43538 1.73983e-19)
(0.541506 3.53651 0)
(0.473997 3.62676 -5.41506e-20)
(0.399267 3.67113 -4.59e-19)
(0.316132 3.64184 -1.06616e-19)
(0.407893 0.479822 -4.34938e-19)
(0.873429 0.996226 5.09964e-19)
(1.03572 1.22035 3.48213e-19)
(1.05876 1.26238 -8.58853e-20)
(1.01735 1.25921 -3.18399e-19)