/*--------------------------------*- C++ -*----------------------------------*\
  =========                 |
  \\      /  F ield         | OpenFOAM: The Open Source CFD Toolbox
   \\    /   O peration     | Website:  https://openfoam.org
    \\  /    A nd           | Version:  9
     \\/     M anipulation  |
\*---------------------------------------------------------------------------*/
FoamFile
{
    format      ascii;
    class       volScalarField;
    location    "25";
    object      p;
}
// * * * * * * * * * * * * * * * * * * * * * * * * * * * * * * * * * * * * * //

dimensions      [0 2 -2 0 0 0 0];

internalField   nonuniform List<scalar> 
2200
(
0.418104
0.396606
0.3807
0.365033
0.350424
0.337907
0.327548
0.319438
0.313712
0.310666
0.311003
0.314634
0.320803
0.329221
0.339801
0.352484
0.367203
0.382966
0.398926
0.420442
0.350536
0.347278
0.34436
0.340246
0.334786
0.328318
0.321688
0.315702
0.311135
0.30866
0.30898
0.312093
0.317122
0.323454
0.330328
0.336964
0.342563
0.346735
0.349667
0.352959
0.310597
0.310822
0.312884
0.314238
0.314647
0.313799
0.311826
0.309143
0.306529
0.304926
0.305301
0.30758
0.310695
0.313746
0.315971
0.316966
0.316639
0.31551
0.313661
0.313427
0.288119
0.289567
0.292195
0.294681
0.297128
0.299148
0.300319
0.300555
0.300167
0.299735
0.300188
0.301361
0.302323
0.302521
0.30168
0.299914
0.297661
0.295283
0.29265
0.291238
0.273919
0.275896
0.278726
0.28156
0.284411
0.287238
0.289661
0.291453
0.292604
0.293233
0.293746
0.293998
0.293538
0.292264
0.290228
0.287693
0.285041
0.282281
0.279489
0.277542
0.266636
0.268232
0.270443
0.272999
0.275687
0.278346
0.28088
0.283241
0.285143
0.286426
0.287036
0.286823
0.285745
0.283987
0.281902
0.279568
0.277111
0.274696
0.27256
0.270977
0.263253
0.264247
0.26555
0.267498
0.269717
0.271911
0.274083
0.27633
0.278462
0.280143
0.280879
0.280506
0.279375
0.277872
0.276228
0.274431
0.272506
0.270754
0.269549
0.268559
0.261006
0.261648
0.262332
0.26371
0.265397
0.267119
0.268835
0.270656
0.272536
0.274268
0.275143
0.274998
0.274326
0.273431
0.272375
0.271165
0.269843
0.268714
0.268148
0.267501
0.25832
0.258762
0.25923
0.260351
0.261745
0.26322
0.264713
0.266235
0.267798
0.269338
0.270437
0.270856
0.270782
0.270381
0.26973
0.268832
0.267858
0.267024
0.26669
0.266244
0.254608
0.25485
0.255305
0.256476
0.257929
0.259522
0.261186
0.262827
0.264419
0.26597
0.267358
0.268232
0.268502
0.268237
0.267576
0.266706
0.265794
0.264975
0.264657
0.264398
0.250551
0.250647
0.251099
0.252255
0.253718
0.255412
0.257316
0.259328
0.261356
0.263302
0.264994
0.266017
0.26625
0.265936
0.265286
0.264525
0.26368
0.262935
0.262651
0.262547
0.246706
0.246718
0.247123
0.248076
0.249352
0.250901
0.252715
0.254799
0.257182
0.259647
0.261737
0.263001
0.263452
0.263483
0.263225
0.262754
0.262211
0.26175
0.261563
0.261542
0.242932
0.242854
0.243233
0.243956
0.245061
0.246425
0.248028
0.24998
0.252394
0.255191
0.257835
0.259771
0.261012
0.261667
0.261903
0.261867
0.261718
0.261548
0.261445
0.261436
0.239027
0.238946
0.239253
0.239906
0.241004
0.242396
0.244075
0.246157
0.248721
0.251841
0.255093
0.257738
0.259613
0.260778
0.261425
0.261761
0.2619
0.261921
0.261898
0.261892
0.234749
0.234744
0.235
0.235664
0.236843
0.238386
0.24037
0.242894
0.245998
0.249774
0.253757
0.256994
0.259267
0.260781
0.261812
0.262446
0.262761
0.262903
0.262946
0.262942
0.229688
0.22966
0.229967
0.230701
0.231917
0.23357
0.235817
0.238819
0.242648
0.24739
0.252401
0.256483
0.259348
0.261383
0.262838
0.263756
0.264307
0.264631
0.264745
0.26473
0.223655
0.223611
0.223945
0.224685
0.22591
0.227694
0.230209
0.233651
0.238222
0.244056
0.250368
0.255644
0.259481
0.262262
0.264256
0.265615
0.266503
0.267021
0.2672
0.267163
0.216134
0.216086
0.216451
0.217346
0.218826
0.220957
0.223966
0.228103
0.233637
0.240755
0.248593
0.255232
0.260182
0.263771
0.26635
0.268136
0.269333
0.270018
0.270271
0.270221
0.207201
0.207135
0.207575
0.20867
0.210534
0.213263
0.217093
0.222308
0.229227
0.238042
0.247661
0.255816
0.261873
0.266285
0.269436
0.271625
0.273093
0.273911
0.274213
0.274149
0.196357
0.19631
0.196907
0.198324
0.200701
0.204171
0.209031
0.215649
0.224391
0.235396
0.247201
0.257156
0.264498
0.269843
0.273628
0.276265
0.278005
0.278969
0.279343
0.279268
0.183091
0.182997
0.183746
0.185569
0.188632
0.193088
0.199315
0.207766
0.21879
0.232484
0.246964
0.259063
0.267964
0.274434
0.27904
0.282262
0.284397
0.285577
0.286012
0.285904
0.166508
0.166462
0.167519
0.169901
0.173885
0.179716
0.187831
0.198664
0.212575
0.229525
0.247148
0.261743
0.272474
0.280278
0.285868
0.289772
0.292328
0.293733
0.294258
0.294127
0.14571
0.145603
0.147061
0.150327
0.155745
0.163629
0.17434
0.188403
0.205965
0.226807
0.248081
0.265527
0.27833
0.287631
0.294295
0.298989
0.302111
0.303829
0.304439
0.304251
0.118269
0.118444
0.12078
0.125555
0.133267
0.144208
0.158715
0.177025
0.199084
0.224542
0.249966
0.270544
0.285583
0.296565
0.304523
0.310162
0.313894
0.315907
0.316602
0.316379
0.0817935
0.082233
0.0861265
0.0937966
0.105385
0.121222
0.140902
0.164564
0.19206
0.222823
0.252811
0.276805
0.294318
0.307139
0.316509
0.323259
0.327815
0.330308
0.331123
0.330762
0.0328972
0.0334565
0.0409145
0.0539373
0.0719662
0.0946282
0.121054
0.151377
0.185225
0.221879
0.256791
0.284364
0.304462
0.319276
0.330251
0.338286
0.343767
0.346641
0.347438
0.346993
-0.0330198
-0.029916
-0.0138752
0.00819485
0.0350153
0.0658434
0.100184
0.138038
0.178939
0.222234
0.262763
0.29465
0.318132
0.335699
0.34895
0.358962
0.36613
0.369707
0.370505
0.370236
-0.109241
-0.0985346
-0.0712847
-0.0393908
-0.00285948
0.0368565
0.0793545
0.124966
0.173213
0.223575
0.270373
0.307362
0.334951
0.355981
0.372254
0.384808
0.394435
0.399588
0.401296
0.401613
-0.175785
-0.159471
-0.125483
-0.0853351
-0.0397014
0.00858248
0.059177
0.112503
0.168043
0.225337
0.278179
0.319913
0.350965
0.374842
0.393439
0.407867
0.418654
0.425145
0.427402
0.427434
-0.225179
-0.210915
-0.171713
-0.125814
-0.0731942
-0.0178124
0.0400884
0.100642
0.163103
0.226921
0.285251
0.330928
0.364862
0.390816
0.411077
0.426758
0.438142
0.444715
0.446996
0.447174
-0.265868
-0.252566
-0.210131
-0.160477
-0.102669
-0.0416466
0.0224677
0.0893515
0.15799
0.227681
0.29101
0.340242
0.376513
0.403782
0.424561
0.440474
0.452227
0.459058
0.461631
0.461853
-0.301046
-0.287443
-0.2428
-0.190438
-0.128604
-0.0630239
0.0062441
0.0784672
0.152531
0.227672
0.295593
0.347861
0.38558
0.413542
0.434915
0.451252
0.463075
0.470258
0.473019
0.473226
-0.331796
-0.318112
-0.271545
-0.216923
-0.151783
-0.0824362
-0.00887598
0.0679454
0.146904
0.227015
0.298919
0.353414
0.392496
0.421401
0.443057
0.459536
0.471686
0.47897
0.481889
0.482059
-0.35952
-0.34581
-0.297588
-0.240796
-0.1728
-0.10036
-0.0231849
0.0576483
0.140942
0.225305
0.300828
0.357908
0.398628
0.428173
0.450316
0.467039
0.47908
0.486623
0.489206
0.489106
-0.38492
-0.3713
-0.321774
-0.262805
-0.192199
-0.117167
-0.0369335
0.047362
0.134456
0.222778
0.302079
0.361924
0.403909
0.434507
0.457103
0.473892
0.485864
0.493132
0.495851
0.495815
-0.408902
-0.394984
-0.34449
-0.283522
-0.210548
-0.133238
-0.0503564
0.0369514
0.127455
0.21969
0.302872
0.365491
0.409378
0.44084
0.463741
0.480505
0.492496
0.499657
0.502403
0.502487
-0.43146
-0.417374
-0.366133
-0.303338
-0.228331
-0.148902
-0.0636214
0.0263695
0.120014
0.215919
0.30289
0.368645
0.414721
0.447143
0.470497
0.487447
0.499417
0.506365
0.509181
0.509259
-0.45276
-0.438685
-0.386883
-0.322594
-0.245857
-0.164416
-0.0768818
0.0155862
0.112164
0.2116
0.302621
0.371774
0.41972
0.453381
0.477414
0.494578
0.506607
0.513535
0.516142
0.516201
-0.473288
-0.459048
-0.406888
-0.34142
-0.263257
-0.179942
-0.0902665
0.00453205
0.103829
0.2066
0.301294
0.373711
0.424387
0.459946
0.484705
0.502076
0.51402
0.520638
0.52322
0.523216
-0.493524
-0.478709
-0.426263
-0.3598
-0.280486
-0.19552
-0.103885
-0.00693755
0.0948216
0.200526
0.298883
0.375074
0.429064
0.46662
0.492496
0.510052
0.521761
0.528182
0.530427
0.530289
-0.513461
-0.497838
-0.445078
-0.377692
-0.297443
-0.2111
-0.11777
-0.0188731
0.0851417
0.1937
0.295728
0.375695
0.433118
0.47351
0.500986
0.518936
0.530015
0.535573
0.537486
0.537265
-0.532951
-0.516585
-0.463396
-0.39508
-0.314016
-0.226561
-0.13183
-0.0312414
0.0747763
0.185706
0.290579
0.374723
0.436533
0.480461
0.510354
0.528967
0.539028
0.543397
0.544381
0.544066
-0.551803
-0.53489
-0.481214
-0.411982
-0.330174
-0.241815
-0.145974
-0.0440364
0.0636563
0.176621
0.284825
0.373504
0.439277
0.487388
0.520614
0.541007
0.550266
0.55083
0.550111
0.550495
-0.570009
-0.552716
-0.498512
-0.428399
-0.34589
-0.256785
-0.160072
-0.0570324
0.0520953
0.167215
0.278175
0.369886
0.440445
0.493675
0.531523
0.55519
0.565194
0.561544
0.556354
0.553993
-0.587525
-0.569926
-0.515231
-0.444325
-0.361164
-0.271406
-0.173967
-0.0700436
0.040319
0.157091
0.269774
0.364717
0.439867
0.498585
0.542723
0.571934
0.586758
0.577906
0.572635
0.577369
-0.604376
-0.586481
-0.531314
-0.45972
-0.375964
-0.285626
-0.187588
-0.0829573
0.0283738
0.14622
0.260604
0.358263
0.437161
0.501461
0.552566
0.589972
0.614152
0.59673
0.55214
0.507214
-0.620487
-0.602361
-0.546782
-0.474647
-0.390418
-0.299607
-0.201089
-0.0959257
0.0159928
0.134717
0.250359
0.349306
0.43108
0.500821
0.559598
0.607968
0.647439
0.658155
0.678082
0.728766
-0.635829
-0.617646
-0.561725
-0.489228
-0.404695
-0.313581
-0.214797
-0.109428
0.00270399
0.121824
0.237986
0.337695
0.421281
0.494366
0.556404
0.606367
0.638498
0.642355
0.615105
0.623081
-0.650361
-0.632284
-0.576095
-0.503394
-0.418709
-0.327487
-0.228652
-0.123323
-0.0113096
0.107681
0.223705
0.322967
0.405677
0.478019
0.53843
0.583333
0.587938
0.548548
0.492753
0.483881
-0.664119
-0.646293
-0.589896
-0.517144
-0.432451
-0.341318
-0.242643
-0.137617
-0.0261224
0.0922209
0.207462
0.305511
0.385083
0.45093
0.503971
0.522275
0.493673
0.425127
0.354538
0.34223
-0.677131
-0.659653
-0.603145
-0.530496
-0.445934
-0.355078
-0.256767
-0.152285
-0.0415831
0.0755357
0.189194
0.284315
0.357919
0.410827
0.439702
0.431548
0.384065
0.284913
0.198854
0.181893
-0.689859
-0.672793
-0.616243
-0.54382
-0.459499
-0.369048
-0.271242
-0.167492
-0.0579149
0.0574624
0.168822
0.259952
0.326512
0.363456
0.358102
0.323951
0.219962
0.0986691
-0.00817875
-0.0312889
-0.703183
-0.686468
-0.629875
-0.557735
-0.473707
-0.383683
-0.286458
-0.183585
-0.0753267
0.0379697
0.146066
0.232334
0.290274
0.304877
0.267134
0.181345
0.0237565
-0.129371
-0.257225
-0.282219
-0.717599
-0.701131
-0.64436
-0.57247
-0.488734
-0.399096
-0.302471
-0.200552
-0.0938084
0.0168223
0.12063
0.201269
0.248116
0.236754
0.175179
0.0237025
-0.182891
-0.400873
-0.583869
-0.63001
-0.733178
-0.716803
-0.659738
-0.588038
-0.504549
-0.415251
-0.319249
-0.218396
-0.113379
-0.00568437
0.0931429
0.168602
0.200654
0.155781
0.0597235
-0.138159
-0.382609
-0.685064
-1.01781
-1.16027
-0.74997
-0.733642
-0.676103
-0.60451
-0.521201
-0.432219
-0.336854
-0.237137
-0.133938
-0.029373
0.0635838
0.132672
0.148795
0.0692
-0.0776159
-0.300787
-0.553955
-0.920119
-1.53228
-2.11733
-0.767975
-0.751617
-0.693508
-0.621938
-0.538697
-0.449982
-0.355239
-0.256677
-0.155412
-0.0541375
0.0330224
0.0937349
0.0934631
-0.00974144
-0.213813
-0.47204
-0.697214
-0.961077
-1.56385
-3.17051
-0.787254
-0.770829
-0.712012
-0.640418
-0.557179
-0.468729
-0.374642
-0.277311
-0.178082
-0.0801281
0.00148318
0.0529456
0.0326544
-0.0729046
-0.316326
-0.587136
-0.756943
-0.817419
-0.841494
-1.25053
-0.807725
-0.79128
-0.731789
-0.660246
-0.577002
-0.488889
-0.395595
-0.29966
-0.202703
-0.108714
-0.0325935
0.0096778
-0.0295205
-0.123134
-0.372816
-0.611333
-0.743406
-0.765606
-0.722585
-0.769556
-0.829363
-0.812866
-0.752813
-0.681434
-0.598186
-0.510534
-0.418192
-0.323866
-0.229538
-0.140121
-0.0691106
-0.0368025
-0.0864749
-0.176323
-0.410292
-0.605296
-0.70506
-0.713755
-0.758668
-0.773069
-0.852018
-0.835309
-0.775064
-0.704001
-0.620685
-0.533617
-0.442375
-0.349878
-0.258483
-0.17365
-0.107401
-0.0838102
-0.13749
-0.236186
-0.44655
-0.604332
-0.690795
-0.650196
-0.676666
-0.680644
-0.875459
-0.858351
-0.798431
-0.727759
-0.644281
-0.557996
-0.468
-0.377445
-0.289218
-0.209019
-0.147474
-0.134014
-0.184849
-0.306391
-0.48668
-0.607172
-0.671917
-0.699882
-0.683289
-0.690734
-0.899125
-0.881762
-0.822866
-0.752507
-0.668769
-0.583459
-0.494757
-0.406282
-0.321605
-0.246167
-0.18858
-0.187945
-0.228447
-0.373134
-0.535885
-0.627868
-0.633753
-0.694771
-0.662547
-0.672536
-0.922627
-0.9053
-0.847835
-0.777601
-0.69377
-0.609656
-0.522296
-0.435838
-0.355013
-0.284187
-0.229129
-0.240326
-0.281751
-0.430952
-0.567297
-0.658374
-0.630849
-0.669256
-0.656633
-0.658501
-0.945435
-0.928525
-0.872437
-0.802468
-0.719008
-0.636145
-0.550026
-0.465541
-0.388593
-0.322744
-0.268429
-0.291576
-0.343493
-0.476782
-0.574377
-0.652231
-0.670539
-0.653004
-0.660013
-0.654301
-0.966956
-0.950763
-0.895824
-0.826321
-0.744002
-0.662242
-0.577282
-0.494712
-0.421227
-0.360849
-0.305697
-0.337212
-0.41481
-0.538037
-0.570408
-0.581626
-0.668991
-0.630736
-0.655855
-0.65032
-0.986147
-0.97099
-0.917335
-0.848503
-0.768101
-0.687085
-0.603264
-0.522364
-0.451377
-0.397381
-0.340558
-0.376287
-0.487397
-0.615496
-0.59385
-0.462596
-0.56374
-0.592758
-0.624986
-0.637342
-1.00208
-0.988283
-0.936359
-0.868455
-0.790083
-0.709568
-0.626914
-0.547682
-0.477924
-0.430349
-0.376214
-0.404524
-0.561228
-0.725993
-0.731636
-0.662253
-0.688568
-0.70232
-0.721685
-0.719976
-1.01356
-1.00145
-0.951939
-0.885259
-0.808464
-0.728649
-0.647263
-0.569407
-0.500345
-0.45629
-0.409375
-0.422585
-0.638851
-0.92516
-1.17545
-1.27705
-1.28192
-1.23114
-1.18207
-1.14383
-1.0197
-1.00949
-0.962941
-0.897782
-0.822171
-0.74339
-0.663106
-0.585757
-0.516391
-0.472217
-0.436601
-0.43405
-0.687783
-1.09885
-1.6653
-2.03254
-2.0707
-2.01412
-1.85977
-1.7541
-1.01948
-1.01113
-0.968212
-0.904702
-0.830085
-0.752181
-0.672665
-0.595609
-0.523966
-0.474166
-0.446626
-0.434086
-0.659545
-1.0258
-1.51045
-1.77478
-1.7513
-1.65334
-1.54499
-1.48857
-1.01177
-1.00468
-0.965875
-0.904609
-0.831482
-0.754328
-0.675088
-0.597139
-0.521301
-0.460454
-0.426754
-0.381593
-0.469348
-0.475415
-0.489311
-0.473245
-0.383019
-0.290762
-0.206953
-0.126819
-0.994692
-0.987828
-0.95479
-0.896865
-0.825603
-0.749138
-0.669307
-0.589218
-0.507323
-0.430533
-0.373951
-0.260678
-0.149705
0.131074
0.446634
0.699241
0.89742
1.02971
1.09892
1.12216
-0.963543
-0.956921
-0.932703
-0.880597
-0.812002
-0.736433
-0.655904
-0.573166
-0.485641
-0.388637
-0.304533
-0.160242
0.101168
0.510478
0.951762
1.31349
1.57018
1.72014
1.78461
1.80354
-0.917893
-0.91313
-0.901446
-0.857012
-0.791951
-0.717756
-0.637354
-0.551867
-0.461513
-0.350314
-0.241031
-0.12263
0.1785
0.570209
0.975417
1.31981
1.58016
1.73852
1.80926
1.82868
-0.874609
-0.873533
-0.868226
-0.828836
-0.767371
-0.695064
-0.616155
-0.529978
-0.439877
-0.331784
-0.216611
-0.134859
0.101103
0.41161
0.729585
1.00449
1.2231
1.36271
1.43104
1.45445
-0.838774
-0.841216
-0.833391
-0.798557
-0.740003
-0.670711
-0.595149
-0.51298
-0.428609
-0.33899
-0.233064
-0.167004
-0.0152925
0.220937
0.474072
0.676982
0.835972
0.947881
1.00295
1.0213
-0.785219
-0.788628
-0.783132
-0.756993
-0.704883
-0.642289
-0.574039
-0.500805
-0.425505
-0.349954
-0.25627
-0.195189
-0.107856
0.0750612
0.278165
0.428411
0.544247
0.629252
0.667546
0.675999
-0.70995
-0.712576
-0.710075
-0.69349
-0.65417
-0.605165
-0.549472
-0.488124
-0.421922
-0.356948
-0.276153
-0.219881
-0.172151
-0.0374607
0.114207
0.220179
0.301498
0.360223
0.38657
0.394218
-0.623826
-0.625454
-0.624456
-0.614296
-0.589813
-0.557128
-0.516445
-0.469545
-0.412893
-0.359021
-0.291462
-0.243928
-0.217714
-0.123383
-0.0109214
0.061553
0.117307
0.162289
0.178607
0.18325
-0.541319
-0.542539
-0.542033
-0.536775
-0.524159
-0.50519
-0.47798
-0.446068
-0.40063
-0.35647
-0.303101
-0.261912
-0.248221
-0.18199
-0.0995705
-0.0525665
-0.0100949
0.0186063
0.0337661
0.0400623
-0.476074
-0.476641
-0.476761
-0.474982
-0.469644
-0.459964
-0.44394
-0.42384
-0.390465
-0.350867
-0.305298
-0.272116
-0.25192
-0.21078
-0.157081
-0.122887
-0.0937171
-0.0748201
-0.0655161
-0.0621787
-0.434248
-0.434429
-0.434751
-0.434831
-0.433283
-0.428981
-0.419741
-0.406668
-0.383595
-0.345813
-0.30151
-0.268166
-0.246041
-0.218903
-0.188177
-0.16606
-0.147822
-0.136456
-0.131433
-0.132463
-0.415278
-0.41511
-0.415213
-0.415635
-0.415542
-0.413238
-0.407091
-0.395605
-0.376716
-0.347891
-0.30271
-0.266069
-0.239352
-0.222549
-0.204596
-0.195493
-0.186947
-0.186401
-0.186567
-0.188325
-0.415781
-0.415395
-0.415205
-0.415462
-0.415604
-0.413065
-0.408845
-0.399645
-0.382008
-0.359779
-0.314578
-0.279105
-0.236929
-0.246887
-0.233787
-0.230139
-0.226858
-0.230859
-0.23546
-0.236104
-0.432452
-0.431885
-0.431486
-0.43151
-0.431393
-0.429727
-0.427476
-0.421356
-0.411832
-0.392407
-0.34792
-0.306414
-0.282263
-0.29092
-0.275939
-0.262857
-0.25343
-0.246856
-0.248836
-0.250273
-0.462317
-0.461691
-0.461216
-0.461135
-0.461523
-0.461727
-0.463411
-0.464073
-0.467596
-0.457571
-0.423763
-0.367772
-0.349051
-0.337323
-0.313274
-0.288301
-0.262905
-0.240278
-0.229657
-0.238747
-0.498765
-0.498641
-0.499004
-0.49987
-0.50195
-0.506209
-0.515322
-0.529782
-0.553107
-0.567009
-0.546455
-0.463062
-0.417512
-0.391513
-0.354521
-0.318829
-0.282782
-0.25892
-0.244593
-0.253963
-0.536361
-0.536591
-0.537781
-0.540473
-0.546008
-0.556995
-0.578075
-0.614052
-0.666067
-0.728577
-0.724545
-0.608644
-0.517565
-0.461046
-0.410677
-0.367916
-0.323511
-0.309157
-0.301883
-0.303795
-0.565845
-0.566825
-0.569299
-0.574088
-0.583872
-0.60339
-0.640362
-0.704488
-0.804654
-0.925195
-0.939038
-0.809509
-0.690175
-0.596197
-0.505242
-0.431436
-0.382001
-0.366998
-0.375209
-0.375819
-0.574406
-0.576003
-0.580034
-0.587642
-0.601305
-0.628548
-0.680352
-0.771504
-0.924735
-1.10433
-1.14775
-1.01123
-0.861679
-0.729557
-0.612439
-0.533086
-0.506613
-0.482617
-0.483396
-0.482659
-0.553851
-0.556297
-0.559275
-0.567353
-0.584725
-0.616138
-0.673664
-0.775201
-0.949795
-1.17575
-1.26386
-1.10984
-0.9334
-0.775105
-0.673385
-0.619174
-0.586154
-0.588075
-0.579642
-0.576813
-0.501982
-0.504234
-0.507567
-0.514039
-0.529415
-0.560246
-0.616561
-0.716847
-0.882047
-1.09151
-1.17509
-1.03411
-0.851772
-0.735275
-0.666665
-0.627176
-0.607674
-0.611535
-0.608277
-0.6065
-0.421806
-0.423468
-0.426448
-0.43203
-0.443864
-0.468309
-0.51414
-0.596313
-0.728343
-0.886602
-0.946792
-0.822523
-0.682808
-0.643958
-0.61941
-0.588769
-0.597488
-0.595795
-0.592783
-0.590399
-0.32591
-0.326896
-0.328609
-0.331994
-0.339566
-0.355794
-0.386854
-0.443081
-0.531962
-0.634624
-0.67162
-0.572185
-0.521461
-0.523208
-0.527968
-0.537431
-0.541209
-0.538072
-0.534683
-0.532748
-0.229851
-0.230246
-0.230814
-0.231901
-0.235167
-0.243277
-0.259625
-0.29025
-0.338229
-0.39952
-0.410542
-0.35528
-0.377141
-0.397686
-0.422159
-0.448723
-0.444842
-0.443384
-0.442229
-0.441026
-0.145606
-0.145505
-0.145312
-0.144806
-0.144979
-0.147015
-0.151975
-0.162561
-0.177453
-0.196387
-0.194722
-0.21454
-0.252759
-0.28871
-0.320671
-0.33903
-0.337913
-0.33923
-0.340099
-0.339622
-0.0806178
-0.0802267
-0.0797445
-0.0785807
-0.0772656
-0.0760358
-0.0744809
-0.0730534
-0.0685538
-0.0513713
-0.067279
-0.12093
-0.157882
-0.197408
-0.225283
-0.23609
-0.239318
-0.242273
-0.242667
-0.242717
-0.0361175
-0.0356234
-0.0351281
-0.0340284
-0.0325299
-0.0305119
-0.0270565
-0.0218938
-0.0132757
0.0045496
-0.00362252
-0.055352
-0.0929169
-0.124177
-0.145177
-0.151789
-0.156649
-0.158528
-0.159319
-0.159788
-0.0101579
-0.00972052
-0.00936679
-0.00868353
-0.00758397
-0.00597328
-0.00292051
0.00185025
0.0090421
0.0200567
0.0126943
-0.0233265
-0.0513311
-0.0714043
-0.0868268
-0.0924712
-0.0938489
-0.0949927
-0.0956874
-0.0961531
0.00180119
0.00213644
0.00233661
0.00247436
0.00300441
0.00377326
0.0054988
0.0082861
0.0124021
0.0178332
0.0137991
-0.0074829
-0.0244519
-0.0364943
-0.0432397
-0.046132
-0.0472435
-0.0475827
-0.0480017
-0.0483416
0.00359225
0.00372735
0.00376585
0.00352261
0.00357757
0.00372124
0.00428467
0.00535413
0.00683769
0.00831335
0.00728685
-0.000905911
-0.00656314
-0.00949215
-0.0118873
-0.0122362
-0.0124029
-0.0122051
-0.0123497
-0.0125061
-1.51231
-0.630501
-0.357165
-0.0687312
0.126003
0.294587
0.436159
0.57992
0.733317
0.810199
-0.496019
-0.0693649
-0.0419149
0.154107
0.290014
0.411416
0.517012
0.609897
0.641027
0.596659
-0.0917865
0.13338
0.177286
0.318049
0.412204
0.49863
0.569969
0.623097
0.627548
0.639716
0.152329
0.305663
0.34231
0.451907
0.511182
0.573772
0.621516
0.65533
0.665444
0.688454
0.343196
0.448339
0.478457
0.553115
0.597637
0.642121
0.675965
0.701028
0.711563
0.742546
0.490093
0.563297
0.593834
0.640436
0.677587
0.709333
0.734755
0.755826
0.770583
0.798451
0.613262
0.666068
0.692395
0.722091
0.75104
0.775696
0.796342
0.815892
0.831125
0.857372
0.719328
0.757973
0.779592
0.801065
0.822802
0.842828
0.860579
0.878953
0.893932
0.917521
0.815186
0.844383
0.861766
0.877597
0.894316
0.910764
0.926518
0.943641
0.957235
0.979539
0.904428
0.925399
0.940658
0.954153
0.968028
0.98203
0.995606
1.01026
1.02179
1.04146
0.990927
1.00684
1.02086
1.03288
1.04496
1.05666
1.06781
1.07952
1.08718
1.104
1.07655
1.08952
1.10334
1.11504
1.12562
1.13538
1.14416
1.1524
1.15598
1.16727
1.16597
1.17697
1.19045
1.19966
1.20709
1.21428
1.22148
1.22806
1.22905
1.23649
1.26444
1.26917
1.27721
1.2817
1.28497
1.28944
1.29543
1.30321
1.30703
1.31692
1.37776
1.36404
1.3566
1.35096
1.34829
1.34969
1.3562
1.36862
1.38337
1.41302
1.49862
1.44292
1.41205
1.39498
1.38684
1.38685
1.39552
1.415
1.44704
1.5162
)
;

boundaryField
{
    wall-4
    {
        type            zeroGradient;
    }
    pressure-outlet-7
    {
        type            fixedValue;
        value           uniform 0;
    }
    velocity-inlet-6
    {
        type            zeroGradient;
    }
    velocity-inlet-5
    {
        type            zeroGradient;
    }
    frontAndBackPlanes
    {
        type            empty;
    }
}


// ************************************************************************* //
