/*--------------------------------*- C++ -*----------------------------------*\
  =========                 |
  \\      /  F ield         | OpenFOAM: The Open Source CFD Toolbox
   \\    /   O peration     | Website:  https://openfoam.org
    \\  /    A nd           | Version:  9
     \\/     M anipulation  |
\*---------------------------------------------------------------------------*/
FoamFile
{
    format      ascii;
    class       volScalarField;
    location    "41";
    object      p;
}
// * * * * * * * * * * * * * * * * * * * * * * * * * * * * * * * * * * * * * //

dimensions      [0 2 -2 0 0 0 0];

internalField   nonuniform List<scalar> 
918
(
0.577179
1.22787
0.00881881
0.576538
-0.00576828
1.19491
-0.478922
0.734444
0.557332
-0.0731528
-0.008848
0.553119
1.05542
0.821477
-1.10396
0.00997252
0.684328
-0.357746
0.556373
-0.00276528
0.770771
0.563913
0.566943
0.557529
0.621564
0.801512
0.936153
0.0210204
0.00152901
0.000375662
-0.0115166
-0.0315912
-0.0251901
1.07857
1.12964
1.15232
0.525564
0.352337
-0.342528
-0.410257
-0.402769
-0.522896
0.727622
0.727775
-0.158592
0.736884
0.744416
0.544502
0.556694
0.557595
0.558671
0.557626
0.559019
0.435732
-0.0775629
-0.109171
-0.0536244
-0.0452287
0.0850546
-0.00741873
-0.00977318
-0.00842922
-0.0126053
0.476203
0.548731
0.545879
0.558221
0.567049
1.16742
1.13934
1.16548
1.07909
1.09563
1.03342
1.00601
0.842262
0.863672
0.806022
0.794856
-1.54162
-2.50384
-0.508271
-0.254436
-0.0119291
0.0133127
0.0190877
0.676169
0.674649
0.685914
0.696828
1.10585
-0.354984
-0.469487
0.556503
0.555301
0.56368
0.564375
0.560389
0.559482
-0.00419873
-0.00535141
-0.00506567
-0.00333124
-0.00917612
0.759953
0.757601
0.558068
0.555085
0.574016
0.594996
0.586738
0.305832
0.625161
0.637868
0.625091
0.792106
0.78594
0.794928
0.909697
0.872676
0.973484
0.996731
0.0159103
0.00439312
-0.00142041
-0.00982775
-0.00365131
0.521489
0.514201
0.540588
0.528924
0.531373
0.268143
0.133207
0.437817
0.462793
-0.255783
-0.315642
-0.410937
-0.432446
-0.545944
0.623495
0.717997
0.71657
-0.17716
-0.102205
-0.232069
-0.0293373
-0.0893758
0.534894
0.541805
0.536853
0.552277
0.546774
0.548724
0.560942
0.558019
0.559576
0.4985
0.62247
0.361804
0.326856
-0.216889
-0.127233
-0.219382
-0.0315406
-0.0268402
0.0995647
0.124687
0.0730949
0.0636549
-0.0204979
-0.0137069
-0.0159608
-0.0116395
-0.0104233
0.469204
0.458408
0.488556
0.495895
0.538787
0.539967
0.54332
0.541786
0.956866
0.979155
0.986687
0.960546
-3.50484
-6.3079
0.0746962
0.21337
0.00091141
-0.00409199
0.0064571
-0.00463411
-0.000875179
-0.00347031
0.0238397
0.0276036
0.026273
0.038214
0.663184
0.662886
1.02532
1.02671
1.00623
0.956945
0.544605
0.546723
0.55226
0.548119
-0.0100682
-0.00696846
-0.00914159
0.745481
0.753416
0.751398
0.268665
0.181503
0.355131
0.383205
0.653254
0.641342
0.651443
0.685903
0.721932
1.00411
1.02232
1.02064
1.02905
1.07315
1.08961
1.05482
0.501505
0.51117
0.506291
0.543777
0.541486
0.542424
0.537974
0.539434
0.537262
-0.0187379
-0.402308
0.511756
0.530224
0.511472
0.517266
0.703457
0.78109
0.698556
0.708618
0.706482
0.0366211
-0.0206266
0.282898
0.249216
0.410448
0.445998
0.425408
0.927905
0.888561
0.93852
0.911974
0.873409
0.899121
-0.353862
-1.86683
-0.978476
0.567358
0.379196
0.467245
0.0465701
0.0237848
0.0323641
1.01998
1.09687
0.678226
0.847195
0.854011
0.760601
0.791528
0.845577
0.770995
0.805801
0.841107
0.82323
0.580039
0.523808
0.534798
0.851391
0.908117
0.154318
0.0979119
0.0532277
0.143902
0.202055
0.175454
1.05921
0.964228
1.03627
0.554836
0.555535
0.0124451
0.0134225
0.559704
0.559749
-0.00253736
0.00408472
0.450412
-0.81347
0.140195
0.548187
0.538375
0.555342
-0.0565799
0.390254
-0.00722692
0.0850832
0.0239763
0.551195
0.486762
0.447225
0.0201687
-0.00751376
-0.00353004
-0.18392
0.552508
0.550819
0.554808
0.55578
0.556444
0.00435214
0.00846138
0.00672138
-0.00269077
0.00107802
-0.00110618
0.519795
0.537583
-0.139466
0.554949
0.557074
0.556894
0.55009
0.555749
0.55398
0.00277556
-0.00581587
-0.011242
0.252586
0.376757
0.696189
0.78899
0.664162
0.437108
0.198775
0.596169
0.661565
0.564505
0.721814
0.711833
0.730058
0.20546
0.0563418
0.212992
0.154049
0.546056
0.544742
0.536645
0.533699
0.550203
0.548319
0.552869
0.549876
0.552819
0.554213
-0.0144496
-0.038007
-0.0529379
-0.117774
0.346648
0.607164
0.286323
0.31657
0.177049
-0.00446191
-0.00718487
-0.00757111
-0.0124228
0.0342801
0.00931875
0.0769533
0.0784311
0.0455794
0.0199475
0.0257825
0.014286
0.0161531
0.544458
0.54271
0.54913
0.557712
0.496089
0.499867
0.465735
0.485877
0.471467
0.412256
0.44648
0.42199
0.0107629
0.0249871
0.00733297
0.00212527
0.0127573
-0.00205724
0.00286991
0.00213662
0.00845717
0.000811809
-0.00243003
-0.0064835
-0.142802
-0.256209
1.01166
0.945365
0.155377
0.541705
0.548123
0.544909
0.549715
0.552843
0.553686
0.55143
0.547998
0.538087
0.539778
0.53632
0.537026
-0.0763369
-0.212899
-0.0406231
-0.110163
0.162076
0.644675
0.388652
0.327963
0.322335
0.545335
0.953381
0.746036
0.733292
0.753778
-0.318193
0.0780977
-0.251585
0.368524
0.19034
0.693768
0.744152
0.767076
0.713861
0.665636
-0.0886984
0.574261
-0.033449
0.0141736
0.209797
0.0966798
0.73445
0.69551
0.700129
0.718896
0.737807
0.701399
0.683792
0.678673
0.71462
0.718274
0.522402
0.283932
0.236994
0.198525
0.677167
0.561235
0.617087
0.528318
0.541076
0.54381
0.54241
0.524544
0.531966
0.527626
0.533651
0.536966
0.545921
0.546298
0.541697
0.543861
-0.0196423
-0.0229602
0.000992329
-0.106694
-0.097592
-0.156721
-0.0358385
0.106145
0.0689688
0.263498
0.369188
0.0815267
-0.0340165
-0.00492264
0.0308458
0.207838
0.232931
0.109191
0.196675
0.185339
0.169749
0.270619
0.275958
0.00911537
0.0042574
0.00399558
0.000705738
0.0550313
0.126172
0.136294
0.0270041
0.02193
-0.00859778
-0.00934541
0.0112279
0.00772909
0.0100703
0.0482853
-0.0310914
0.00270778
0.0196066
0.0285656
0.0245685
0.0192835
0.537063
0.539148
0.538851
0.546713
0.56394
0.579703
0.53772
0.517804
0.508802
0.511773
0.485471
0.495544
0.49138
0.504931
0.525054
0.534106
0.531837
0.534472
0.517453
0.519024
0.505954
0.509672
0.485346
0.466892
0.455393
-0.0223489
0.0245927
0.0123029
-0.0197659
0.0126019
-0.00467159
0.0204972
0.0359594
0.0212345
0.018863
0.0115453
0.00501929
0.00650823
-0.0484389
0.0338676
-0.157456
-0.190672
-0.259291
0.916302
1.03628
0.838701
0.614428
0.628996
0.868018
0.95495
0.576247
0.762506
0.786183
0.597465
0.867078
0.546502
0.546112
0.543715
0.543194
0.544424
0.0134747
0.114739
0.122475
0.178159
0.293441
0.406765
0.329105
0.207203
0.340083
0.343879
0.639755
0.653584
0.606385
0.628705
0.628919
0.452461
0.530061
0.58343
0.538339
0.586672
0.608402
0.567428
0.598172
0.546182
0.502197
0.499223
0.447673
0.469707
0.446623
0.428114
0.536195
0.514169
0.524301
0.514905
0.534294
0.558139
0.554955
0.586339
0.597553
0.518657
0.476334
0.486323
0.515122
0.476447
0.490775
0.506415
0.243705
0.14277
0.228545
-0.061299
0.018334
0.00341522
-0.0437021
0.00220806
0.287782
-0.408684
-0.382367
-1.01464
0.514324
0.983148
0.686843
0.659609
0.73442
0.713449
0.717702
0.740207
0.745843
0.667827
0.685491
0.689118
0.649157
0.673304
0.695824
0.693216
0.545506
0.416277
0.409885
0.365805
0.237887
0.273452
0.476183
0.397928
0.323151
0.325646
0.488334
0.375488
0.442762
0.481507
0.41313
0.367662
0.572825
0.637738
0.627328
0.601787
0.520382
0.53495
0.559506
0.595349
0.62206
0.65428
0.533353
0.539171
0.540425
0.537963
0.535166
0.538104
0.538233
0.540767
0.541563
0.544492
0.543495
-0.00676325
0.00404307
-0.00948006
-0.0156972
0.0133746
0.0091747
0.0535041
0.0390091
0.0237251
0.0308996
0.00445561
-0.000398598
0.00553156
0.0145078
0.130749
0.144039
0.127336
0.0879799
0.276992
0.407493
0.478067
0.356415
0.248947
0.272466
0.295557
0.0201886
0.0479043
0.0336376
0.0753223
0.0669152
0.000846766
-0.00583229
-0.00138999
0.00350316
0.0163989
-0.00367252
-0.00454782
0.00213538
-0.00207164
-0.00572209
-0.00804978
0.519992
0.513534
0.515001
0.508988
0.507787
0.521792
0.526022
0.527855
0.533179
0.535233
0.525714
0.531206
0.534817
0.0188074
-0.000834184
-0.00797637
0.00669682
0.0056668
0.00581927
0.00378477
0.142105
0.0727104
0.0779873
0.0316319
-0.0963259
-0.0388091
0.504591
0.501752
0.497094
0.735605
0.585969
0.504306
0.599567
0.705568
0.292005
0.49104
0.324113
0.907188
0.800172
0.946588
0.562036
0.258156
0.414699
0.465266
0.27251
0.344909
0.349504
0.236965
0.268666
0.301802
0.403344
0.279918
0.254559
0.0120322
0.199654
0.31688
0.297729
0.426331
0.488522
0.276698
0.196959
0.152667
0.63095
0.649372
0.667607
0.63883
0.662593
0.596031
0.584585
0.602409
0.611535
0.60775
-0.742383
-0.449896
-1.39395
-0.708703
-0.257981
0.545077
0.508146
0.787076
0.671692
0.733649
0.717988
0.675343
0.641229
0.656531
0.687307
0.381532
0.493406
0.467916
0.472969
0.373243
0.305353
0.607703
0.601539
0.637534
0.661541
0.62864
0.661295
0.531142
0.530778
0.530377
0.526766
0.525048
0.527283
0.0909777
0.0598927
0.0945956
0.0758383
0.0538103
0.0419952
0.0231035
0.014549
0.00814456
0.00873261
0.0207834
0.0238634
0.183108
0.124517
0.0484857
0.0769788
0.0173921
-0.0489367
-0.0673748
0.0344453
0.127517
0.117679
0.424184
0.676346
0.497137
0.666609
0.505612
0.561749
0.487822
0.481012
0.507632
0.395039
0.474654
0.24647
-0.259084
-0.167021
0.802571
0.819771
0.602426
0.418232
0.188259
0.375509
0.570495
0.505187
0.543765
0.612927
0.603786
0.0295206
0.0949045
0.35886
0.586184
0.249344
0.241773
0.23607
0.411686
0.334877
)
;

boundaryField
{
    wall-4
    {
        type            zeroGradient;
    }
    velocity-inlet-5
    {
        type            zeroGradient;
    }
    velocity-inlet-6
    {
        type            zeroGradient;
    }
    pressure-outlet-7
    {
        type            fixedValue;
        value           uniform 0;
    }
    wall-8
    {
        type            zeroGradient;
    }
    frontAndBackPlanes
    {
        type            empty;
    }
}


// ************************************************************************* //
