/*--------------------------------*- C++ -*----------------------------------*\
  =========                 |
  \\      /  F ield         | OpenFOAM: The Open Source CFD Toolbox
   \\    /   O peration     | Website:  https://openfoam.org
    \\  /    A nd           | Version:  9
     \\/     M anipulation  |
\*---------------------------------------------------------------------------*/
FoamFile
{
    format      ascii;
    class       surfaceScalarField;
    location    "41";
    object      phi;
}
// * * * * * * * * * * * * * * * * * * * * * * * * * * * * * * * * * * * * * //

dimensions      [0 3 -1 0 0 0 0];

internalField   nonuniform List<scalar> 
1300
(
3.75095
5.62643
-3.08702
3.75095
-7.61033
5.62643
-4.39732
4.39732
-0.831142
0.831142
1.87641
1.87454
-2.88507
2.88507
-2.34057
2.34057
-2.55107
2.55107
-5.24644
5.24644
-5.06911
5.06911
4.66553
-4.66553
-6.19689
6.19689
-1.17079
1.17079
-3.78233
3.78233
3.16973
-3.16973
-2.28247
2.28247
-0.20667
0.20667
-0.553503
4.30446
3.19745
3.19745
-2.02455
2.02455
-4.86458
4.86458
6.21805
-6.21805
5.01537
-5.01537
-1.92834
-2.24888
1.78811
-11.5702
-5.82222
-5.82222
-8.44038
8.44038
-2.81395
2.81248
2.94437
-2.94437
-1.78161
1.78161
-4.33107
-0.0662538
-4.33107
4.39441
0.00291071
4.39441
-0.919776
0.0886342
-0.919776
3.88224
-3.88224
0.707365
0.123777
0.707365
3.06499
-3.06499
-1.87709
3.7535
1.87387
-1.87186
6.17632
-1.87909
3.75363
-5.98611
5.98611
-3.09806
0.212998
-3.09806
2.70525
0.179817
2.70525
-6.81146
6.81146
-2.4134
0.0728263
-2.4134
2.27418
0.0663889
2.27418
2.8716
-2.8716
-2.65448
0.103406
-2.65448
2.43704
0.114034
2.43704
0.353529
5.2729
-5.97996
8.79244
-5.2729
0.0264619
5.20834
0.0380951
5.20834
-5.1061
0.0369932
-5.1061
5.01184
0.0572677
5.01184
4.75627
-0.0907394
4.75627
-4.78075
0.115224
-4.78075
-3.52652
-4.07794
-6.3621
0.165217
-6.3621
-1.18378
0.01299
-1.18378
1.124
0.0467914
1.124
-3.64078
3.64078
-4.17747
0.395136
-4.17747
3.12417
0.0455689
3.12417
1.8685
1.88245
5.61946
-5.61946
2.44972
-2.24315
-0.039323
-2.24315
-2.2692
-2.74616
2.2692
0.0132728
-0.451356
0.244686
-0.451356
3.15933
0.0381188
3.15933
2.27923
0.157807
-2.27923
0.254684
3.24153
-3.24153
1.36044
0.664105
1.36044
-5.56565
5.56565
4.95457
0.0572722
-4.95457
0.0899863
6.15699
0.0610555
6.15699
-6.19957
-0.0184818
-6.19957
2.7115
-4.96038
-2.4948
6.00599
0.190897
-6.00599
0.183774
2.91505
0.0293277
2.91505
-2.92033
2.92033
-2.98364
0.0392697
-2.98364
-2.1833
0.401691
-2.1833
1.47947
0.302145
1.47947
-4.19643
-0.134636
-4.19643
-4.31265
0.135189
4.31265
0.081755
1.0995
-1.0995
-1.02561
0.105836
-1.02561
-4.02682
-0.16961
4.02682
-0.144577
-3.77051
-0.111739
-3.77051
-3.02384
0.0401923
3.02384
0.0411585
3.11268
0.0466504
-3.11268
0.0476859
-1.87083
3.75328
-1.88013
3.75399
-5.60279
-0.383328
-5.60279
6.29759
-0.311473
6.29759
3.45641
0.325924
-3.45641
0.358341
2.57246
0.132792
2.57246
-6.7787
-0.0327576
-6.7787
6.78645
0.0250154
6.78645
2.48545
0.08701
-2.48545
0.0720518
2.23902
0.0351606
2.23902
2.8878
-0.0162037
2.8878
-2.86866
-0.00293682
-2.86866
2.79851
-2.79851
2.72994
0.0685711
-2.72994
0.0754652
-11.1329
11.1145
-0.0351382
-11.0978
5.17321
5.17321
4.18649
0.569772
4.18649
-4.99648
0.215731
-4.99648
2.93178
-5.42658
3.09906
-6.62558
4.69529
-16.2655
4.31982
-8.39776
6.64118
-6.64118
6.5182
0.122979
-6.5182
0.156092
-1.23792
0.0541392
-1.23792
-3.03541
-0.605367
-3.03541
4.29107
-0.650287
4.29107
-3.02872
3.02872
-3.07781
0.0490928
3.07781
0.0463549
2.2269
0.0121183
-2.2269
-0.0162478
0.581709
0.125656
-0.581709
0.130353
3.43731
-0.19578
3.43731
-3.05225
-0.189275
-3.05225
-1.29652
0.0585921
1.29652
0.0639269
-5.8144
0.248754
-5.8144
-11.1908
0.0929817
-11.1527
-6.10658
-6.10658
2.33379
11.1262
-2.88886
0.0201991
2.88886
0.0261878
2.97569
0.0530313
-2.97569
0.0553519
-2.86174
0.0632285
2.86174
0.058592
-2.56055
0.377251
-2.56055
-1.06745
1.06745
-1.24117
0.173719
1.24117
0.238296
1.36231
-0.262803
1.36231
1.08613
0.0378702
-1.08613
0.0605206
-3.68657
-0.0839362
-3.68657
6.53144
-0.233849
6.53144
-2.94476
-0.107489
2.94476
-0.0569621
-0.0333302
11.1478
-5.13988
0.0337776
5.13988
-11.2089
11.2426
-3.23401
0.673454
3.23401
0.952486
5.2878
0.277852
-5.2878
0.291315
6.72827
0.0581734
-6.72827
0.0870971
-2.54461
-0.490801
-2.54461
-5.01889
-0.583893
5.01889
-0.727825
-11.4745
-0.204972
11.6795
-11.4172
6.01937
0.137618
-6.01937
11.3802
-1.01162
-0.0878873
1.01162
0.0558356
1.68643
-0.324127
1.68643
3.60905
-0.171744
-3.60905
-0.0775193
-6.68512
-0.0935792
6.68512
-0.153687
-2.10142
-0.443194
2.10142
-0.414986
-4.26701
4.30513
1.90931
-2.53532
-2.42506
-5.28149
1.85191
1.90137
4.30163
-10.1879
-6.07758
-10.0041
7.26517
-6.97385
-9.26645
9.17571
7.70378
-7.81552
-5.7852
5.83156
6.4824
-6.44125
1.87879
1.87471
7.9276
-7.71461
-15.6435
15.2602
7.47809
-7.40526
15.8202
-15.8529
-17.9166
17.9748
-5.70895
5.81236
-6.72801
6.72507
-6.95285
6.89589
-2.99799
-3.6276
13.1837
-13.0185
8.37643
-8.41575
-8.54391
8.93905
3.38248
0.922655
3.42913
-1.88225
3.76103
-1.87138
3.78069
2.67759
-5.67558
2.74899
-5.17404
4.14491
4.23152
-4.15818
-1.12331
-5.92111
5.95043
-5.8193
5.87789
8.98902
-9.05528
-1.88516
3.75987
-1.86883
3.7702
-3.42506
-2.36014
3.37949
0.922135
8.10308
5.08064
-8.29397
-1.71014
-7.95189
7.78014
-8.18892
7.99965
-0.439254
5.81875
-5.37949
4.42533
-1.55903
7.37778
5.70614
5.92187
5.86627
-5.58842
1.10758
-6.48707
-6.39709
-2.47006
2.5759
2.41723
-2.29345
6.01316
1.69062
5.86858
-5.65707
-2.15845
-5.74101
3.821
2.01055
3.8701
4.07741
2.405
4.1176
3.03079
-3.03571
0.00491915
-3.05636
6.08715
0.724162
-5.4165
-4.49437
4.95557
2.97203
5.13539
-5.50239
-2.21221
-5.14405
-9.54749
-6.09603
-10.1314
10.105
5.15519
9.79353
-11.9881
11.8344
4.76264
2.71545
4.82903
-4.9014
-2.50386
-4.82935
11.6361
-2.61636
-9.01976
-10.3572
-7.55944
10.3322
5.48801
11.0028
6.97201
11.0899
4.44032
7.19579
-9.92833
2.36889
-3.86467
-1.84428
-3.78921
3.68015
2.13221
3.79418
-4.21391
-2.5141
-4.19371
-4.28897
-2.66388
4.30517
2.4199
-4.40428
-3.78464
4.51177
2.38412
4.06118
-10.1388
4.33658
-7.96417
-9.24623
-3.77227
-9.09014
3.50002
2.60096
-6.10098
-2.17556
8.47291
-4.24139
7.3496
-5.09981
-3.31594
-5.11606
-6.81984
-1.72408
-6.68465
-8.88185
8.39105
-9.18423
8.53394
12.6024
-5.67437
-6.92805
-3.96825
-2.473
3.92056
-0.491431
-3.71095
3.71587
0.0500824
3.83077
4.75343
4.262
-3.8864
-1.9329
-3.83105
3.83029
2.0476
3.89352
6.77124
2.21779
6.77415
-6.4781
-2.57718
-6.61273
9.07288
-8.67119
2.89949
-2.84089
5.34403
2.65562
-5.14825
-2.80364
6.19778
-3.17988
-3.0179
-12.2044
10.5513
1.65316
-4.82667
-0.401342
-0.194672
-5.49692
-3.76953
5.3817
0.540173
11.0915
7.32192
-5.5126
5.76135
6.16688
6.22416
-0.172931
5.8326
-5.15915
5.32972
-2.49232
-2.8374
5.34086
-5.51047
-1.27187
-5.3985
4.12664
0.35811
1.68196
-1.43727
-1.9242
-0.545865
-1.86368
1.45139
0.965843
1.57704
0.937474
1.63842
-2.95117
0.566396
2.38478
-2.0137
-1.72706
-3.70592
-1.10661
4.81253
5.6508
2.12935
-5.57328
-0.167734
2.62076
-2.57396
-0.727815
-2.9781
2.18651
-2.91432
-3.68795
-1.92165
5.6096
-3.3705
-0.460548
3.31747
0.552625
-3.82606
-2.09505
3.78679
0.330809
-3.12592
6.19044
-3.06453
-5.05881
2.52836
3.55879
4.53891
-4.78985
2.44673
2.34312
-1.23106
4.23934
0.896053
4.37213
-6.82356
4.61135
5.76282
3.17623
-6.08874
0.944688
-5.87887
8.48812
-7.31001
-1.17811
4.09173
4.39639
7.11418
5.48824
-5.70105
12.8152
-1.16421
-6.1458
7.04308
-3.86685
4.79664
-8.66349
-10.2849
4.13908
-9.16474
10.9535
-1.7888
-3.63361
-8.35447
12.7984
-1.20521
-11.5931
8.58832
-4.15982
-4.26711
8.42693
-6.77618
6.77097
-1.95024
-4.82074
-10.1339
-5.71902
10.2275
1.60689
-9.85781
12.2267
-2.66202
4.09732
0.731711
4.13248
3.23566
-5.41401
2.17835
3.54051
-5.49075
2.05929
-7.47331
-6.77536
12.1315
-5.3561
-10.5476
-9.57592
-0.971711
2.53813
9.68857
-9.51014
7.45319
2.05695
3.30772
0.585794
-3.3763
-0.412912
0.245791
4.53483
-4.78062
4.03998
4.19778
3.32916
1.20567
3.84191
2.10852
-3.8681
-0.325613
-4.15487
1.49099
-1.73497
-3.67915
5.17014
-4.06586
0.386707
-2.73957
-3.50712
6.24669
-4.58385
3.03863
3.15181
5.08624
-4.91258
1.40546
-2.3985
-2.51408
2.6604
-4.39537
1.97763
3.19252
4.36175
0.577103
5.92131
6.21015
-8.52228
0.558101
11.2908
-9.58066
2.48247
8.60742
-9.93567
0.359744
-8.7304
0.981017
-5.22241
-5.11997
5.1232
-6.84728
-3.54028
6.16561
0.60854
-6.24736
-0.437288
-6.03364
-2.8482
-6.47684
-3.05096
-6.13326
-8.75201
-1.65242
-7.0996
6.73863
-6.68276
-3.44862
7.41058
1.12336
-7.4159
7.32801
-7.49108
7.16695
0.0949887
3.62088
4.35698
1.88398
-2.38982
4.27381
-5.10975
7.32753
-8.62734
3.5176
4.0815
-6.65869
-4.54584
5.03678
4.0361
5.33892
8.93113
-10.4401
1.50899
-10.7371
12.0597
-1.3226
-16.5155
5.77842
-7.58441
2.5717
0.327789
2.62584
0.599547
2.48888
-3.08843
-2.24135
-2.17742
-2.38028
-3.46147
5.84175
1.14751
-3.4633
2.31579
-3.54081
4.68832
-0.127723
-3.33558
5.3037
-2.81481
5.63149
-3.66853
1.96295
3.38297
5.71586
-2.33289
4.39356
-1.73794
1.87154
-4.20444
-1.58992
-2.96604
5.09825
-3.28065
3.66736
-0.317626
3.98499
-4.07818
0.898307
-0.749026
3.44876
3.70344
4.28965
-3.08397
2.93269
-4.67063
-1.27175
-4.09353
-0.901012
-0.294738
-3.75287
4.04761
6.03271
-6.32745
-5.25689
9.56485
-4.30796
7.71822
-5.40051
-2.31772
-4.27129
-4.3999
3.89404
1.93856
9.65679
0.210636
-5.61114
-4.94851
-3.99602
3.19657
2.13315
-1.89697
3.55014
2.09164
-0.409689
0.522604
1.05444
1.83987
-1.31726
0.252478
1.58739
-1.18479
1.90432
0.716439
-1.94219
0.078511
-1.32569
3.5122
1.05909
-2.02493
0.707667
1.02864
-3.52096
4.91242
-2.56341
-2.349
5.94105
1.15684
-3.72025
4.24166
-3.88355
2.34294
-3.44955
-1.37732
-5.26087
-3.57025
-2.56097
4.87676
-3.28078
5.41012
1.18881
-5.24239
6.4312
-3.62853
1.70688
-3.08761
3.80404
-1.05979
-2.02782
2.86432
2.74529
-2.97986
0.00175844
-0.115544
2.3583
-2.47384
-0.556024
-2.56972
-4.57211
4.90292
-2.10669
4.55342
2.16711
-1.9153
6.46872
1.81061
-3.7259
-3.24821
-3.70875
-1.38278
3.15613
-0.584985
-4.24436
-5.40572
4.15735
0.214778
-6.92305
7.72635
-0.803302
-3.95101
-0.660333
4.75206
-5.96651
0.475757
-3.90721
3.81913
4.71519
4.92996
-11.3786
-0.214563
-6.22339
1.13151
-7.3549
5.5279
-3.57153
7.7106
-10.3671
6.91844
-9.24371
6.53249
-0.822408
6.24671
-4.06836
2.77305
-8.49207
-6.88518
5.41718
-2.70173
6.14889
-3.06318
9.21207
-5.7252
5.16966
4.04241
-0.985522
-4.13053
-5.18372
4.1982
-0.0140616
4.11841
4.97599
-2.86747
4.65038
2.2591
-4.6576
-2.13627
-6.49641
1.83881
-3.3446
-1.91751
3.75633
3.16872
3.75452
1.24225
-3.34161
7.2081
-8.17981
-1.852
-3.26797
5.16869
-0.970482
3.36966
-6.63763
-1.85274
4.84658
-0.811543
-4.03504
0.827789
-4.36807
1.67095
-6.03902
5.17633
-5.61362
2.21642
-9.80083
-5.19948
-5.14365
-2.25438
-5.2367
-7.60693
5.35255
-1.82851
5.4995
-8.57048
7.75893
-3.48924
8.84179
-5.42935
-1.04749
5.84433
1.32262
10.1644
0.169831
-4.71567
-1.8899
3.94354
-2.05363
1.30667
-3.58304
0.360493
2.48085
3.4602
-6.60749
-0.0512004
-4.76687
-3.92424
7.96034
5.6406
11.6733
1.23319
9.15224
-1.1919
10.3854
4.14703
4.38532
-3.02211
4.5311
1.0255
4.5431
-0.865085
2.82804
1.76075
1.77374
0.800222
2.31467
1.38877
3.21298
0.124549
-2.05287
4.63502
-8.63105
-0.976123
-8.06127
1.11443
5.72307
-4.60863
3.09664
-0.963496
1.04301
0.0402125
-1.54295
1.50274
-2.79719
-1.95264
-0.365252
-1.64546
2.35312
1.86675
-1.98787
-0.809315
0.360664
-3.93091
3.08888
-3.08713
-0.341839
6.08936
-2.77505
0.301208
-1.06817
-2.26852
-2.81438
2.73587
6.17674
0.291982
3.11221
5.1949
3.09986
0.23239
3.88921
-5.678
-3.5841
-5.89257
-0.364663
4.3874
1.72734
7.96123
5.76975
4.79927
-1.83837
-10.0182
6.5532
-2.0221
5.2306
-1.19556
-4.84346
5.01496
2.31258
-5.6235
0.00988074
-4.83358
-6.85568
-0.526267
8.2852
-9.63814
8.59065
5.74245
1.35715
-4.41371
-0.72994
4.23999
0.145335
10.5308
-1.12592
-6.80267
7.92859
-4.59715
3.62103
0.817167
2.73297
2.31991
1.35641
-5.44626
-10.0549
-1.96705
-1.5539
-4.31606
0.496471
-2.36322
6.24913
-2.6281
3.93141
5.30049
6.3435
-2.15444
-4.17301
6.4624
-2.53099
3.81251
)
;

boundaryField
{
    wall-4
    {
        type            calculated;
        value           uniform 0;
    }
    velocity-inlet-5
    {
        type            calculated;
        value           uniform -3.75095;
    }
    velocity-inlet-6
    {
        type            calculated;
        value           uniform -5.62643;
    }
    pressure-outlet-7
    {
        type            calculated;
        value           nonuniform List<scalar> 8(3.08702 7.61033 4.17723 9.78206 7.60446 5.20629 6.03084 9.01511);
    }
    wall-8
    {
        type            calculated;
        value           uniform 0;
    }
    frontAndBackPlanes
    {
        type            empty;
        value           nonuniform List<scalar> 0();
    }
}


// ************************************************************************* //
