/*--------------------------------*- C++ -*----------------------------------*\
  =========                 |
  \\      /  F ield         | OpenFOAM: The Open Source CFD Toolbox
   \\    /   O peration     | Website:  https://openfoam.org
    \\  /    A nd           | Version:  9
     \\/     M anipulation  |
\*---------------------------------------------------------------------------*/
FoamFile
{
    format      ascii;
    class       volVectorField;
    location    "41";
    object      U;
}
// * * * * * * * * * * * * * * * * * * * * * * * * * * * * * * * * * * * * * //

dimensions      [0 1 -1 0 0 0 0];

internalField   nonuniform List<vector> 
918
(
(0.985163 -0.000502658 0)
(0.00501144 2.96625 0)
(0.00613252 0.822606 0)
(0.979703 0.00214794 0)
(-0.0164981 2.02846 2.66503e-20)
(-0.00704475 2.94879 -2.56018e-18)
(0.823872 1.16319 4.21794e-19)
(0.272156 0.129343 -1.63156e-20)
(0.999908 -0.00028178 0)
(0.0606791 0.809983 0)
(0.0179725 0.619441 0)
(0.734862 -0.0154845 0)
(0.0111277 2.93036 0)
(0.00227025 2.79518 0)
(-0.0176152 3.15562 7.5884e-19)
(-0.0161031 1.86964 -1.09291e-20)
(0.33759 0.034179 1.06886e-18)
(0.190261 1.1744 2.92056e-19)
(0.96277 0.00501962 0)
(-0.00214092 0.595649 0)
(0.0590166 0.17335 -7.72967e-19)
(1.00198 -0.00498067 0)
(1.00022 -0.0097911 0)
(0.975727 -0.00644012 0)
(0.585242 -0.0376793 0)
(0.0160049 2.63911 0)
(-0.0149762 2.91007 9.48043e-19)
(0.00251046 0.891749 0)
(0.0108997 1.11379 0)
(-0.000734738 0.867182 0)
(-0.0171271 2.6083 0)
(-0.00168591 2.0826 -2.12692e-20)
(-0.0100204 1.84988 0)
(-0.0206026 2.9876 -9.23009e-23)
(-0.016689 3.00529 1.9897e-18)
(0.0021 3.00018 0)
(0.870745 -0.00942218 0)
(0.404124 0.937883 1.92175e-19)
(0.802523 1.18098 -4.58565e-19)
(0.948176 1.01896 5.06731e-19)
(0.673517 1.27398 -9.6887e-20)
(0.672335 1.26076 5.6022e-19)
(0.312037 0.207795 1.59173e-20)
(0.286612 0.100064 0)
(1.12593 0.54797 0)
(0.277746 0.199765 7.27502e-20)
(0.242119 0.130608 -7.54934e-20)
(0.919777 -0.00745303 0)
(1.00027 0.000151489 0)
(0.99991 0.000334364 0)
(1.00363 -0.00776928 0)
(1.00096 -0.000930116 0)
(1.00017 2.97431e-05 0)
(0.0775371 1.81291 -8.33545e-19)
(0.0273684 0.990733 0)
(0.0939629 0.873082 0)
(0.013005 0.940335 0)
(0.03395 0.75156 0)
(0.0219901 1.99882 0)
(0.0156292 0.830104 0)
(0.0118567 0.645706 0)
(0.0158326 0.811087 0)
(0.00459358 0.595211 0)
(0.838425 -0.0157392 0)
(0.846964 0.02891 0)
(0.767731 -0.00411815 0)
(0.817378 0.038976 0)
(0.703201 -0.0187106 0)
(0.0146878 3.00041 9.50286e-19)
(0.0114953 3.00804 0)
(0.00610962 3.00277 0)
(0.0135456 2.99737 1.08005e-23)
(0.00796685 2.95847 -1.41236e-18)
(0.0145034 2.98203 0)
(0.0108748 2.90355 0)
(0.0243194 2.93067 2.19173e-24)
(0.00459826 2.82527 0)
(0.0308181 2.91642 0)
(-0.00504626 2.74505 0)
(0.308441 3.5525 0)
(-0.131848 3.63397 0)
(0.139597 3.24614 -7.06186e-19)
(-0.0127797 2.98177 0)
(-0.00870834 2.02792 0)
(-0.00672946 2.15266 1.07791e-20)
(-0.00222965 1.88921 -2.06993e-20)
(0.43671 0.142869 -3.69827e-19)
(0.337878 0.0184151 -3.56608e-19)
(0.418025 0.159489 -1.11383e-18)
(0.322913 0.0515231 -7.34863e-19)
(0.222359 0.961327 0)
(0.27241 1.31957 -3.536e-19)
(0.371276 1.25898 5.92223e-19)
(0.987471 0.00854988 0)
(0.941928 0.00584562 0)
(1.0003 0.000578122 0)
(1.00286 0.00930571 0)
(1.00302 0.00845992 -2.8462e-18)
(0.991913 0.00970076 2.14937e-18)
(-0.0159134 0.80036 0)
(-0.00190139 0.588159 0)
(-0.0118663 0.932376 0)
(-0.000221013 0.805025 0)
(-0.0140031 0.586657 0)
(0.09438 0.176802 2.38918e-19)
(0.151739 0.153368 0)
(0.99354 -0.00838078 0)
(0.954424 -0.00651785 0)
(0.765824 0.0461626 0)
(0.701501 0.0567549 0)
(0.663805 -0.0307381 0)
(0.96189 -0.00881842 0)
(0.618028 0.076258 0)
(0.445326 -0.0113514 1.57759e-18)
(-0.0368476 2.86278 7.17729e-19)
(0.0414984 2.9095 0)
(0.0544456 2.88531 0)
(-0.0046762 2.69965 0)
(-0.0130325 2.98525 9.0007e-19)
(-0.0179602 2.89519 0)
(-0.0153883 2.98806 -2.78582e-18)
(-0.0133045 2.9252 9.53037e-19)
(0.0326141 1.33889 0)
(0.0533665 1.38798 0)
(-0.0036593 2.11639 1.876e-22)
(-0.00406789 2.06686 0)
(-0.0211788 1.85372 0)
(0.938029 -0.0076531 0)
(0.856437 -0.00968062 0)
(0.863375 0.00625333 0)
(0.949221 -0.0080378 0)
(0.883686 -0.00811298 0)
(0.516391 1.13166 -2.42089e-19)
(0.565873 1.18335 0)
(0.36785 0.881851 3.53553e-20)
(0.310033 0.740802 0)
(0.907977 1.05797 -1.37734e-19)
(1.01726 0.86006 2.73176e-19)
(0.3649 1.36972 0)
(0.528974 1.33633 0)
(0.543109 1.29019 0)
(0.115818 0.180203 -3.07567e-19)
(0.34532 0.199778 0)
(0.310963 0.0930361 2.07958e-19)
(0.988198 0.915752 0)
(1.05342 0.765469 0)
(1.07737 0.70559 -2.03887e-19)
(1.10722 0.608609 0)
(1.15637 0.393416 5.47009e-20)
(0.957537 -0.0088254 0)
(0.962399 -0.0101008 0)
(0.90152 -0.00799182 0)
(0.984173 -0.00917264 0)
(0.974652 -0.00937607 0)
(0.937064 -0.00636046 0)
(1.00019 0.00233684 0)
(1.0009 0.00140271 0)
(0.99991 0.000854511 0)
(0.0350164 2.06555 4.59476e-19)
(0.120833 1.75513 0)
(0.0160392 2.18142 7.19262e-19)
(0.0517961 1.86721 -6.08659e-19)
(0.106309 1.1812 -2.386e-19)
(0.0464272 1.06724 0)
(0.141917 1.0255 0)
(0.00590521 0.895677 0)
(0.0182778 0.703423 0)
(-0.00496722 2.23445 -1.28869e-21)
(0.0264414 2.00448 0)
(-0.00771239 2.23629 -5.9558e-20)
(0.0241297 2.00298 1.07305e-19)
(0.00398473 0.871122 0)
(0.010208 0.849838 0)
(0.00955867 0.669672 0)
(-0.00503927 0.802269 0)
(0.0029389 0.583131 0)
(0.935749 0.00898521 0)
(0.845974 -0.0152421 0)
(0.925661 -0.000171961 0)
(0.840397 -0.0127438 0)
(0.812065 0.00102908 0)
(0.901469 0.0200285 0)
(0.877677 0.0241917 0)
(0.788739 -0.000957464 0)
(0.00562118 3.06471 -8.91309e-21)
(0.0166266 3.05788 0)
(0.0146606 2.96905 0)
(0.00858703 2.87621 0)
(0.925599 3.96909 0)
(1.24023 3.30168 9.29183e-19)
(0.06994 3.07394 0)
(-0.0284921 2.90545 0)
(0.0336186 1.43182 0)
(-0.00778103 1.75132 0)
(0.027708 1.60742 0)
(-0.0267886 2.56529 -2.9398e-21)
(-0.0149383 2.25468 0)
(-0.0209901 2.40354 0)
(0.0168353 1.92888 -1.67829e-21)
(-0.005082 2.22328 2.25485e-20)
(-0.0144324 2.1867 2.10436e-20)
(0.00699281 1.90097 0)
(0.46534 0.12087 5.55968e-19)
(0.366154 0.00560018 -5.46036e-19)
(0.25985 1.57553 0)
(0.270507 0.736108 -3.21306e-19)
(0.177612 1.66109 -1.07833e-18)
(0.227454 1.20283 1.08098e-18)
(0.902218 0.00649783 0)
(0.967492 0.0110535 0)
(0.974618 0.010788 0)
(0.923432 0.00649581 0)
(-0.0059931 0.787839 0)
(-0.0138853 0.790894 0)
(-0.0103979 0.584958 0)
(0.239217 0.194825 6.70701e-19)
(0.200087 0.182474 -7.94663e-19)
(0.204419 0.141333 0)
(1.08492 0.0819973 3.0058e-20)
(1.0678 0.036919 0)
(1.004 0.0383495 0)
(0.900033 -0.00721381 0)
(0.497409 0.10118 0)
(0.541881 0.0848553 -2.52253e-18)
(0.399629 0.00249608 9.44595e-19)
(0.00901374 2.98081 7.63401e-19)
(-0.0330817 2.86568 4.64573e-20)
(0.00368869 3.05021 -1.88336e-20)
(0.0201621 3.04342 6.69969e-19)
(-0.0150115 2.99657 3.12612e-20)
(-0.012974 2.94948 -1.25715e-22)
(-0.0172703 3.01193 -5.77136e-19)
(0.0148728 3.02378 4.17546e-19)
(0.00737047 3.03681 -6.62796e-19)
(0.932741 -0.00175459 0)
(0.938622 -0.00360042 0)
(0.844482 -0.00925624 0)
(0.956707 0.0117558 0)
(0.942998 0.0130108 0)
(0.88175 0.00605147 0)
(0.917979 0.0164762 0)
(0.926464 0.0147176 0)
(0.838601 0.00360355 0)
(0.71995 1.41065 2.73051e-20)
(0.753574 1.51987 0)
(0.186771 0.324538 7.3543e-20)
(0.21894 0.658232 5.94604e-19)
(0.259616 0.719029 -3.4601e-19)
(0.265143 0.533398 6.88105e-19)
(0.337078 0.790121 1.61666e-18)
(0.134195 0.221457 3.79755e-19)
(0.391987 0.179049 7.79813e-19)
(0.372141 0.192729 2.03188e-19)
(0.320199 0.0729561 3.87929e-19)
(1.14738 0.451717 2.38949e-20)
(1.16599 0.248417 1.84564e-20)
(0.00703442 2.2303 2.83403e-19)
(0.047337 1.93528 0)
(0.964803 0.0283616 0)
(0.939058 0.0131651 0)
(0.863506 -0.0185899 0)
(0.0112329 3.07445 0)
(0.0197242 2.944 1.23267e-18)
(0.0164603 2.95636 0)
(0.00629724 2.85067 -1.22292e-18)
(0.00617383 3.09084 2.99717e-19)
(0.00727218 3.08255 0)
(0.786714 1.82266 -1.56829e-19)
(1.248 2.50087 3.97976e-19)
(0.768931 1.96246 -1.22924e-18)
(0.0202344 2.98155 -6.63127e-19)
(0.0358941 3.0018 0)
(-0.0336391 2.87876 0)
(-0.00605925 2.21271 -1.33546e-20)
(-0.00437895 2.23497 -4.53876e-20)
(0.0178103 1.96186 -9.83486e-21)
(0.275949 1.38325 1.04547e-18)
(0.229168 0.524049 -7.17009e-19)
(0.0633052 1.98931 7.9547e-19)
(0.135966 1.87693 -9.42044e-19)
(0.180499 1.4961 9.19555e-20)
(0.00166863 3.11897 -1.87778e-18)
(0.0154664 3.11823 2.0171e-18)
(-0.00892923 2.98122 8.30746e-19)
(-0.00363979 2.97758 -7.88346e-19)
(-0.0210744 2.88137 -8.46094e-19)
(0.00867741 3.10003 -2.23249e-18)
(0.00241337 3.10575 2.18439e-18)
(0.273673 0.681598 0)
(0.238268 0.671968 -1.22467e-18)
(0.0956029 0.222551 5.42946e-19)
(0.351386 0.916092 1.1279e-18)
(0.189607 0.266414 -1.73907e-18)
(1.16534 0.168767 7.71295e-20)
(1.16771 0.302165 0)
(1.15346 0.117775 -2.363e-20)
(-0.00203773 2.248 -1.94885e-21)
(0.00167859 2.23906 0)
(0.0329936 1.97024 0)
(0.339822 1.29144 -3.76321e-19)
(0.369443 1.12846 -8.12877e-19)
(0.203162 0.365392 1.44801e-18)
(1.00587 -0.0108594 0)
(1.00766 -0.00765298 5.25366e-19)
(0.0302473 1.31301 0)
(0.00401901 1.27465 0)
(1.00221 0.00350322 1.80101e-21)
(1.00366 0.00945069 1.07212e-18)
(-0.0210971 2.54744 3.72417e-21)
(-0.028352 2.58925 0)
(0.0359616 3.17876 4.47061e-19)
(0.395424 3.49128 0)
(1.1535 0.647925 -7.52153e-20)
(1.01294 0.0130534 -2.15243e-21)
(1.02127 -0.0104028 0)
(1.00169 0.00010993 7.53939e-23)
(0.101362 1.35776 0)
(0.146625 2.575 0)
(0.0238091 1.29276 0)
(0.00280125 2.63036 6.04241e-20)
(-0.0227326 2.5893 2.74782e-20)
(1.00139 0.0287242 2.44392e-21)
(1.06156 0.00340329 0)
(1.09442 0.0228158 0)
(-0.00989888 1.77611 0)
(-0.0267025 2.59286 0)
(-0.000343524 1.28367 0)
(0.294014 1.47076 -1.43169e-19)
(1.01127 -0.00965362 0)
(1.00939 -0.0149354 0)
(1.00237 0.000728231 6.71317e-19)
(1.00548 -0.00482305 -7.89044e-19)
(1.00118 -0.000995321 0)
(0.00549483 1.49369 0)
(0.0261602 1.37872 0)
(0.0302663 1.45439 0)
(0.00403896 1.27168 0)
(0.0125247 1.23728 0)
(0.00759262 1.21442 0)
(1.03458 -0.00641055 0)
(1.02048 0.0157014 -9.1318e-22)
(0.798759 1.26527 2.32973e-19)
(1.00223 0.000283666 -6.68733e-19)
(1.00406 0.00524747 7.82696e-19)
(1.00117 0.00206332 0)
(1.0128 0.0102763 6.65654e-19)
(1.00802 0.00829538 -8.06079e-19)
(1.00857 0.0146865 0)
(-0.0296736 2.62015 0)
(-0.0302777 2.59843 -8.3595e-21)
(-0.0296887 2.61265 6.96436e-21)
(1.22698 0.256322 6.50304e-19)
(1.15623 0.0837517 0)
(0.0437396 3.07718 -9.78477e-19)
(0.0656007 2.85374 -7.11102e-20)
(0.141842 3.19293 1.4917e-18)
(0.136663 3.22195 -2.23208e-19)
(0.134978 3.23423 0)
(0.020478 3.13768 2.53823e-19)
(0.0767448 3.16034 9.65656e-19)
(0.0692821 3.18645 -4.77993e-19)
(0.0230731 3.12952 0)
(0.640168 0.289128 0)
(0.565751 0.341333 0)
(1.11931 0.684118 1.86137e-19)
(1.11471 0.811361 -1.87403e-19)
(1.18144 0.568559 0)
(1.21228 0.504262 0)
(1.01614 0.0132851 -1.2411e-18)
(1.01498 0.01425 1.55792e-18)
(1.02522 -0.00991623 0)
(1.02329 -0.0119057 0)
(1.00644 0.00255568 0)
(1.01042 0.00369146 0)
(1.00461 0.00181495 0)
(1.00978 0.00616837 0)
(1.00786 0.00596983 0)
(1.00451 0.0046662 0)
(0.0893551 1.35418 0)
(0.0840703 1.32657 0)
(0.122451 1.39218 0)
(0.135571 1.40242 0)
(0.146641 2.59921 0)
(0.186615 2.66632 -4.49428e-19)
(0.102078 2.65616 0)
(0.0877215 2.66 2.23348e-19)
(0.0412341 2.68345 -1.93943e-19)
(0.0300165 1.30884 0)
(0.0180771 1.24419 0)
(0.0234009 1.32311 0)
(0.0284143 1.26304 0)
(0.00432595 1.98248 -2.33296e-20)
(-0.0209454 2.61724 1.10304e-20)
(-0.00819326 2.67329 4.92264e-20)
(-0.0177923 2.69159 0)
(-0.0247657 2.62335 -6.25892e-20)
(-0.024332 2.61814 -2.53368e-20)
(0.0139076 1.9819 2.01866e-20)
(-0.0094869 2.40706 -1.48018e-20)
(-0.013513 2.42666 -5.582e-20)
(1.01125 0.0365547 1.26487e-18)
(1.00707 0.0162005 -1.56216e-18)
(1.00256 0.0431399 -1.26529e-18)
(0.980913 0.0223871 1.61233e-18)
(1.06289 0.0072659 0)
(1.04841 -0.00870735 0)
(1.09192 0.0326992 0)
(1.07256 0.0115708 0)
(1.07037 -0.000561226 0)
(1.13699 0.0795013 0)
(1.10861 0.0420328 0)
(1.11162 0.0301487 0)
(-0.0178715 2.44532 -1.97673e-21)
(-0.0215411 2.01127 0)
(-0.0122094 2.22749 0)
(-0.0260954 2.61361 1.43179e-21)
(-0.0239093 2.62093 -4.45866e-22)
(-0.000666864 1.57258 4.7163e-22)
(0.010237 1.51673 -4.75427e-22)
(-0.000615648 1.38616 0)
(0.00697097 1.39746 0)
(0.011694 1.39459 0)
(-0.00565889 1.28697 0)
(0.00724474 1.22098 0)
(0.378355 1.48589 2.27037e-19)
(0.417607 1.49022 1.29132e-19)
(0.596607 2.44672 -2.44208e-19)
(0.401788 2.5413 7.21564e-19)
(0.350729 2.06567 7.99057e-20)
(1.02096 -0.00820106 0)
(1.01545 -0.00979698 0)
(1.01489 -0.0155313 0)
(1.00745 -0.00118788 0)
(1.00493 -0.000955024 0)
(1.00776 -0.00476167 0)
(1.00924 -0.00371323 0)
(1.01417 -0.00448236 0)
(1.02119 0.0160812 1.21535e-18)
(1.01801 0.015729 -1.55766e-18)
(1.02163 0.0180255 -1.22389e-18)
(1.01952 0.0167045 1.53237e-18)
(0.765244 1.31435 0)
(0.700888 1.36667 2.13805e-19)
(0.87478 1.211 6.90432e-20)
(0.917695 1.16298 -9.18266e-20)
(1.15714 2.60874 3.19417e-19)
(0.804028 0.111139 6.15959e-19)
(1.15929 0.104004 0)
(1.20487 0.186906 -5.22474e-19)
(1.18853 0.150012 -2.20836e-20)
(1.00396 0.1469 0)
(0.13574 2.96075 5.75489e-19)
(0.112965 2.86637 -1.23906e-18)
(0.0234153 2.37275 8.35727e-19)
(0.0909625 -0.0269983 -3.73847e-19)
(0.340207 3.42035 -1.96656e-19)
(0.194156 3.31296 0)
(0.237193 3.35496 2.56112e-19)
(0.245168 3.03398 -1.88804e-18)
(0.340055 3.19334 0)
(0.00673708 3.12094 4.90255e-20)
(0.0162326 3.12984 -5.76758e-19)
(0.0149029 3.12589 8.48884e-19)
(0.0359279 3.13994 0)
(0.0344478 3.15063 0)
(1.21597 2.60796 0)
(0.541303 0.834864 -5.47763e-19)
(1.0395 0.987525 1.79045e-20)
(0.975891 1.06491 0)
(0.828549 0.968115 -1.23486e-19)
(1.06422 0.879388 2.86452e-20)
(0.364041 0.389835 -9.62676e-19)
(0.6858 0.316576 -2.14602e-20)
(0.647315 0.229424 4.41456e-19)
(0.585856 0.372725 3.26428e-20)
(0.499713 0.339404 -1.31456e-18)
(0.657898 0.332704 0)
(0.703789 0.418589 7.49731e-19)
(0.711481 0.419729 0)
(0.621142 0.361292 0)
(0.586194 0.284374 0)
(0.803698 0.614522 4.44678e-19)
(1.22669 0.278362 -5.49244e-19)
(1.2238 0.413429 0)
(1.23348 0.354602 0)
(0.735636 0.186149 6.54791e-19)
(0.851032 0.535387 -4.08146e-19)
(0.747503 0.507002 7.2336e-19)
(0.951628 0.424187 -7.9637e-19)
(1.01967 0.0147349 8.35469e-19)
(1.01783 0.014219 -8.40346e-19)
(1.01594 0.0155486 0)
(1.036 -0.0059503 0)
(1.02963 -0.00859979 -7.8771e-19)
(1.0276 -0.0121391 7.79932e-19)
(1.02503 0.0099013 0)
(1.02364 0.0135245 0)
(1.01142 0.00406824 0)
(1.01427 0.00901371 0)
(1.01513 0.00395556 0)
(1.01423 0.00276689 0)
(0.0593991 1.339 0)
(0.0626634 1.29681 0)
(0.144589 1.36667 -2.223e-20)
(0.269683 1.46761 7.24381e-20)
(0.163127 1.4394 1.49987e-19)
(0.19408 1.44653 -2.46078e-19)
(0.165387 1.38969 0)
(0.131288 1.59335 -1.04093e-19)
(0.116051 1.5657 0)
(0.348766 2.01828 -1.1615e-19)
(0.345478 2.34983 6.51583e-19)
(0.186752 1.45057 9.07729e-20)
(0.26205 1.38136 1.09219e-20)
(0.197062 1.37016 -8.84476e-21)
(0.272531 1.32326 -1.30109e-19)
(0.24043 1.57676 0)
(0.261125 1.61651 1.33787e-19)
(0.0348754 2.26558 -4.4055e-20)
(0.0440762 2.67219 0)
(0.0673606 2.40304 1.67954e-19)
(0.0627732 2.4243 0)
(0.071113 2.6731 -2.4732e-19)
(0.0513239 2.70207 0)
(0.0310844 1.40554 -4.71009e-21)
(0.0383328 1.45893 0)
(0.0317304 1.37673 0)
(0.0275197 1.37736 5.31413e-21)
(0.00152546 2.65806 -1.84218e-20)
(0.0306346 2.70169 2.22893e-19)
(0.0124758 2.72763 1.55375e-21)
(0.00529272 1.82979 2.08441e-20)
(-0.00155753 1.67558 9.07105e-21)
(0.0232321 1.29409 0)
(0.0241648 1.22422 0)
(0.0496411 1.57004 1.85568e-20)
(0.0304151 1.44339 1.337e-20)
(0.0395467 1.50859 -1.65174e-20)
(0.0413215 1.59465 0)
(-0.0302562 2.28097 3.96541e-20)
(-0.0336655 2.56092 -1.60963e-20)
(-0.017248 2.45802 -3.1289e-21)
(-0.00400016 1.84836 -2.52729e-20)
(-0.0273263 2.50896 -8.67165e-21)
(-0.0226171 2.45122 4.26818e-20)
(1.0196 0.0207884 -8.30588e-19)
(1.01578 0.0263516 8.34061e-19)
(1.01495 0.0162968 0)
(1.01166 0.0687987 1.1719e-18)
(0.990688 0.0575902 -1.3145e-18)
(0.950648 0.0422761 1.4715e-18)
(1.01392 0.105748 -1.56302e-19)
(1.04225 -0.00600706 0)
(1.05035 -0.0018332 7.52914e-19)
(1.03859 -0.0100401 -7.54313e-19)
(1.06949 0.0409929 -4.4911e-20)
(1.06326 0.0224327 3.86248e-19)
(1.06271 0.0538536 0)
(1.0521 0.0482899 -1.38931e-19)
(1.03268 0.0410963 0)
(1.02603 0.0370697 0)
(1.02783 0.0128514 0)
(1.02425 0.0156696 0)
(1.03986 0.0310274 2.85908e-19)
(1.03926 0.0260524 -6.31125e-19)
(1.05037 0.0324366 -3.03237e-19)
(1.04869 0.0322267 -3.33721e-19)
(1.07009 0.0628624 6.53778e-19)
(1.09445 0.0502772 0)
(1.10242 0.0938205 0)
(-0.0267496 2.28936 2.85806e-20)
(-0.02045 2.0301 -2.93291e-21)
(-0.0207184 2.03365 0)
(-0.030048 2.45404 -2.8491e-20)
(-0.0217227 2.4123 4.84586e-21)
(-0.0357039 2.48599 1.65924e-21)
(-0.0225543 2.62988 2.15994e-20)
(-0.0281223 2.57224 -2.26979e-21)
(-0.0227942 2.5248 7.30249e-21)
(-0.0207492 2.62383 -8.50881e-21)
(-0.0248073 2.62528 1.16521e-20)
(-0.0133839 1.483 -1.42592e-22)
(0.00571174 1.61918 5.07471e-21)
(0.365849 1.42817 -9.07518e-20)
(0.364555 1.36891 6.17902e-20)
(0.646384 1.41475 -2.06708e-19)
(0.515205 1.48062 -1.25897e-19)
(0.568964 1.45059 0)
(0.592316 2.42267 2.16386e-19)
(0.660155 2.4156 3.44345e-19)
(0.410419 2.51538 8.42385e-20)
(0.403468 2.54324 -6.51899e-19)
(0.511448 2.48832 6.36692e-19)
(0.551695 2.46048 0)
(0.488633 2.51554 -5.75144e-19)
(0.248657 2.59044 1.20372e-18)
(0.353604 2.56374 -8.17062e-20)
(0.284475 2.65209 -1.65067e-18)
(0.944103 2.38021 7.42117e-19)
(0.836245 2.38238 0)
(1.01098 0.000420447 2.72431e-20)
(1.01524 -0.00549797 -2.21176e-20)
(1.01763 -0.003635 -4.04084e-19)
(1.01491 -0.000961429 4.05913e-19)
(1.01233 0.00104173 0)
(0.634328 1.28263 0)
(0.65407 1.18072 0)
(0.76003 1.09021 0)
(0.646934 1.14381 0)
(1.18662 2.62321 5.84165e-20)
(1.07461 2.36812 0)
(0.838742 2.18902 3.99663e-21)
(0.825378 2.44859 0)
(0.922512 2.53988 -4.42738e-19)
(0.957826 2.49585 2.94703e-19)
(0.815351 0.165797 0)
(0.779105 0.137254 1.68074e-19)
(0.923629 0.141276 9.7794e-19)
(0.839497 0.143581 -3.65362e-19)
(0.810722 0.082266 -1.12573e-18)
(1.07709 0.228392 -9.49968e-19)
(0.994095 0.286274 -1.55772e-20)
(0.925303 0.28591 9.07084e-19)
(1.00198 0.217701 7.5879e-19)
(0.953176 0.184907 -1.30156e-18)
(0.917409 0.187175 1.62719e-19)
(0.952747 0.249181 -3.48682e-19)
(0.931047 0.212091 0)
(0.99204 0.180756 6.42427e-19)
(1.0426 0.182008 0)
(1.04039 0.207962 0)
(1.10623 0.116125 3.05022e-19)
(1.06636 0.170941 -1.41471e-20)
(1.07184 0.229551 -1.66711e-19)
(1.10397 0.198064 0)
(1.02272 0.04461 6.44384e-19)
(1.04101 0.0571713 8.04459e-19)
(1.03422 0.0434162 -6.3923e-19)
(1.04278 0.0636725 -5.39037e-19)
(1.0193 0.0714805 -8.24258e-19)
(0.987809 0.153694 0)
(0.99865 0.102041 0)
(0.967076 0.0647609 -5.24122e-19)
(0.916475 0.0878108 2.05861e-19)
(1.03795 0.101733 7.45419e-19)
(1.0676 0.119391 -8.80464e-19)
(1.07114 0.151153 7.86104e-19)
(1.02921 0.140144 0)
(1.07362 0.106571 0)
(1.05455 0.0884535 -3.59085e-19)
(1.04447 0.093542 -6.10121e-19)
(0.579759 1.07604 1.4729e-19)
(0.613147 1.41048 -4.89207e-20)
(1.1573 2.74079 -2.38053e-19)
(1.22389 3.0816 3.6452e-21)
(1.24933 2.72247 -1.56814e-19)
(1.27938 2.70631 -1.9087e-20)
(1.20741 2.34619 -1.01481e-20)
(1.21111 2.9856 -1.0195e-19)
(1.23042 2.95084 2.48225e-19)
(1.21489 3.23505 -1.40122e-19)
(1.3757 2.96689 1.9379e-19)
(1.36626 2.88496 0)
(0.546558 0.842834 -5.12819e-20)
(0.135645 1.25305 5.8754e-19)
(0.533781 0.443581 6.2186e-19)
(0.372225 0.194868 6.86005e-19)
(0.525347 0.373236 7.4241e-19)
(0.546695 0.471509 -1.19296e-18)
(0.54806 0.472562 9.74294e-19)
(0.495419 0.392866 -3.75439e-19)
(0.415425 0.324626 8.50953e-19)
(0.739846 0.247587 -3.74768e-19)
(0.705174 0.276738 0)
(0.683857 0.199562 9.13874e-21)
(0.731395 0.508227 3.94678e-19)
(0.703368 0.479067 -1.43841e-18)
(0.615591 0.468667 1.51392e-20)
(0.625542 0.457897 0)
(0.677765 0.730283 4.1513e-19)
(0.83053 0.773126 4.265e-19)
(0.7541 0.854745 -4.98118e-19)
(0.873566 0.807855 -1.70593e-19)
(0.90402 0.851524 -4.32623e-20)
(0.911784 0.851951 4.43007e-20)
(0.846963 0.644664 -7.38137e-19)
(0.925829 0.702979 1.58505e-19)
(0.980806 0.716911 0)
(0.972108 0.69256 -2.17752e-19)
(1.02301 0.322865 2.30125e-19)
(1.14148 0.292646 3.19075e-19)
(1.06425 0.262858 3.8856e-19)
(1.01149 0.355909 -4.62102e-19)
(1.05675 0.420269 0)
(1.10921 0.404815 0)
(0.915222 0.354662 6.38146e-21)
(0.841094 0.286765 0)
(0.876229 0.281963 4.26522e-19)
(0.907363 0.291654 -4.47536e-21)
(0.944816 0.426856 2.22137e-18)
(0.902278 0.487082 5.74869e-19)
(0.905675 0.450366 -6.09258e-19)
(0.82283 0.433814 6.52673e-19)
(0.805884 0.428764 3.91216e-19)
(0.776194 0.412841 -3.84452e-19)
(1.02724 -0.000512708 6.73241e-19)
(1.02001 -0.000136334 0)
(1.01849 0.00079015 4.38671e-19)
(1.02152 -0.00184746 -9.93774e-19)
(1.02229 0.0042487 4.82892e-19)
(1.02042 0.011116 -1.01128e-18)
(1.02139 0.0105145 0)
(1.02068 0.0107947 -2.10684e-19)
(1.016 0.00763338 5.28532e-19)
(1.01673 0.0104013 -2.63701e-19)
(1.01743 0.00974583 1.94226e-19)
(0.0305319 1.31329 0)
(0.0344148 1.34939 0)
(0.0425202 1.31697 0)
(0.0402189 1.27414 0)
(0.0704263 1.37673 2.12656e-20)
(0.0766376 1.34938 4.98546e-22)
(0.11255 1.50725 -3.12067e-20)
(0.0942867 1.35815 1.05473e-20)
(0.034535 1.44823 -3.80884e-20)
(0.0381029 1.44095 2.97559e-20)
(0.0616412 1.36079 -8.08116e-21)
(0.0543806 1.36249 -2.05751e-21)
(0.0458844 1.3384 -5.01116e-22)
(0.038886 1.35982 -3.57735e-21)
(0.108447 2.37316 -1.85815e-19)
(0.0973745 2.42013 0)
(0.172295 2.04845 1.21108e-19)
(0.11143 1.71069 5.43613e-20)
(0.230561 2.04431 -9.93917e-20)
(0.205755 2.43732 0)
(0.265882 2.38868 -6.34996e-19)
(0.303939 2.38665 4.50457e-19)
(0.231485 2.00433 -2.76123e-19)
(0.15516 2.16547 1.81699e-19)
(0.145158 2.27734 0)
(0.0205624 1.87272 -4.53913e-20)
(-0.000484024 2.40065 -9.78114e-20)
(0.00631226 2.15287 0)
(0.0132635 2.4614 -1.39426e-20)
(0.0283922 2.30531 3.44399e-20)
(0.0240309 1.3906 -4.41934e-22)
(0.0194071 1.37724 1.20959e-20)
(0.0194496 1.38037 -8.04638e-21)
(0.0253264 1.37875 1.18375e-21)
(0.0302041 1.40978 0)
(0.0163171 1.36108 0)
(0.000784047 1.28177 -5.29867e-21)
(0.0123923 1.35022 4.50595e-22)
(0.0135929 1.35264 0)
(0.0145173 1.28149 -5.69885e-21)
(0.0126376 1.21102 1.10287e-20)
(1.0403 0.0111396 0)
(1.04633 0.00743 -7.06231e-20)
(1.03857 0.0206913 -5.08902e-19)
(1.04801 0.0196266 0)
(1.05168 0.0194265 0)
(1.03631 0.0111545 -6.64482e-21)
(1.03093 0.011042 8.16847e-19)
(1.03184 0.0159948 9.90658e-19)
(1.02586 0.0199725 0)
(1.0231 0.0203696 0)
(1.03519 0.0243586 5.07698e-19)
(1.02624 0.025766 0)
(1.02447 0.0258774 0)
(-0.0250965 2.02636 0)
(0.00686913 1.65056 -4.83904e-21)
(-0.00644375 1.76032 -1.98646e-20)
(0.00286912 1.36232 0)
(-0.0121001 1.55133 4.65495e-21)
(0.00286509 1.44999 -2.35625e-21)
(0.00141454 1.37109 0)
(0.389196 1.66833 0)
(0.366553 1.29748 -1.14178e-19)
(0.301534 1.34172 0)
(0.42062 1.29525 6.22404e-20)
(0.466419 1.45595 0)
(0.447388 1.40126 -4.79733e-22)
(1.03564 2.68728 -1.58224e-20)
(0.965428 2.41087 -9.32838e-19)
(0.915524 2.19177 1.06412e-18)
(0.849754 2.37479 2.47395e-19)
(0.84727 2.4979 0)
(0.917215 2.49434 0)
(0.927447 2.37347 0)
(0.906263 2.35984 -9.61072e-19)
(0.688657 2.46592 -4.14151e-19)
(0.801027 2.45611 -1.01595e-19)
(0.811634 2.43006 7.74431e-20)
(0.694509 2.39065 0)
(0.799357 2.38658 0)
(0.75802 2.39882 -3.74757e-19)
(0.769074 2.48746 0)
(0.614354 1.09899 0)
(0.484968 0.927366 -5.1919e-19)
(0.553586 0.961756 -3.30109e-20)
(0.521203 1.05548 0)
(0.522343 1.00531 7.79633e-19)
(0.777128 0.879818 -1.40791e-19)
(0.785245 1.0164 0)
(0.759641 0.97672 2.06056e-19)
(0.64571 1.03506 0)
(0.65056 0.94304 0)
(1.165 2.76257 -2.43241e-19)
(1.14276 2.82608 -1.05352e-19)
(0.932388 2.34634 1.13467e-19)
(0.900032 2.32421 -8.76356e-20)
(1.12981 2.73564 0)
(1.08309 2.70577 1.05498e-19)
(1.08973 2.48775 -3.27393e-19)
(0.983516 2.23582 -3.05469e-20)
(0.496093 1.35327 0)
(0.509795 1.07494 -1.29898e-19)
(0.563723 1.16602 0)
(0.858725 0.224187 0)
(0.786753 0.176048 0)
(0.727949 0.139301 0)
(0.855131 0.228834 -6.71346e-19)
(0.758659 0.212913 3.93429e-19)
(0.931836 0.074545 -4.25176e-19)
(0.947173 0.120628 0)
(0.926674 0.133554 1.82223e-19)
(0.86633 0.109274 7.31335e-19)
(0.837053 0.0669238 -4.57605e-19)
(1.162 3.36031 -7.14147e-19)
(1.20979 3.27965 0)
(1.16037 3.38832 -1.47364e-18)
(0.647915 3.5491 1.2517e-18)
(0.872687 3.11642 6.19816e-20)
(0.518053 0.849168 6.17672e-19)
(0.433588 0.844462 0)
(0.336935 0.480003 -1.56557e-19)
(0.455256 0.677904 8.88577e-19)
(0.537006 0.448206 -2.14885e-19)
(0.509913 0.505042 2.45788e-19)
(0.663466 0.528194 5.32167e-19)
(0.694089 0.552058 0)
(0.647162 0.608323 0)
(0.604193 0.548239 0)
(0.988827 0.600985 1.07586e-19)
(0.905848 0.536336 -5.59287e-19)
(0.93125 0.571088 4.27727e-19)
(0.966322 0.506011 -4.32611e-19)
(1.07003 0.478472 0)
(1.07778 0.569191 -1.09205e-19)
(0.846263 0.38589 -8.92197e-19)
(0.849355 0.373525 -1.10292e-18)
(0.795966 0.37821 6.95665e-19)
(0.792376 0.348747 -7.11271e-19)
(0.842386 0.307289 -5.55743e-19)
(0.794144 0.305377 6.82219e-19)
(1.02667 0.0056642 -5.16603e-19)
(1.02641 0.00588338 1.05339e-18)
(1.02931 -0.000131118 6.52893e-19)
(1.03334 0.000740083 -7.86466e-19)
(1.03355 0.00851615 0)
(1.03008 0.0090945 -1.27853e-18)
(0.0649286 1.64327 2.97214e-20)
(0.0455364 1.57296 0)
(0.0879646 1.69634 1.84516e-19)
(0.0986488 1.67784 -1.6408e-19)
(0.0884794 1.52507 5.85502e-20)
(0.0860437 1.50634 0)
(0.0128871 1.67935 0)
(0.00114638 1.48206 -3.80146e-21)
(0.00134238 1.42331 3.42251e-21)
(-0.00618303 1.5426 4.34653e-21)
(0.00132168 1.8845 -8.5945e-21)
(-0.0150016 1.93669 7.02057e-21)
(0.495207 1.37148 -3.02963e-19)
(0.489347 1.37449 3.32005e-19)
(0.443558 1.29248 -5.73957e-20)
(0.432613 1.29168 9.43033e-21)
(0.625959 1.29899 0)
(0.543803 1.3868 7.62059e-20)
(0.559412 1.39507 -7.41622e-20)
(0.455016 1.27785 5.56916e-20)
(0.509119 1.233 0)
(0.561537 1.19935 0)
(0.654858 2.42448 6.08561e-19)
(0.66951 2.46108 1.30659e-18)
(0.715521 2.47316 -9.00151e-19)
(0.614848 2.44822 -2.10969e-19)
(0.559931 2.54076 2.95134e-19)
(0.509964 2.51415 -7.86345e-19)
(0.976127 2.38032 -5.95732e-19)
(1.01226 2.39407 0)
(0.922013 2.16998 -6.89689e-19)
(1.05325 2.68497 0)
(1.05543 2.67171 0)
(0.612622 2.27389 -1.2438e-19)
(1.04278 3.16316 1.27846e-19)
(0.913879 3.03309 -3.13509e-20)
(0.280625 0.908241 0)
(0.320379 0.76751 -3.26211e-19)
(0.481072 0.72433 -3.29197e-19)
(0.390356 2.02054 0)
(0.467227 2.78512 -4.31469e-20)
(0.42375 2.54903 0)
(0.693355 0.678087 -8.80628e-19)
(0.7754 0.678971 1.20195e-18)
(0.796197 0.621855 -1.1904e-18)
(0.674753 0.641072 -1.13911e-19)
(0.730184 0.594255 -4.72091e-19)
(1.00502 2.76624 -9.72129e-20)
(1.0423 2.82341 -1.77142e-19)
(0.640936 2.15064 6.79772e-19)
(0.597463 1.71549 -4.83567e-19)
(0.700514 1.9082 -4.19443e-19)
(0.990734 2.44961 -1.1528e-19)
(0.995554 2.44349 3.10947e-19)
(0.661763 1.84751 2.89949e-20)
(0.452919 1.3353 1.51383e-19)
)
;

boundaryField
{
    wall-4
    {
        type            noSlip;
    }
    velocity-inlet-5
    {
        type            fixedValue;
        value           uniform (1 0 0);
    }
    velocity-inlet-6
    {
        type            fixedValue;
        value           uniform (0 3 0);
    }
    pressure-outlet-7
    {
        type            zeroGradient;
    }
    wall-8
    {
        type            noSlip;
    }
    frontAndBackPlanes
    {
        type            empty;
    }
}


// ************************************************************************* //
