/*--------------------------------*- C++ -*----------------------------------*\
  =========                 |
  \\      /  F ield         | OpenFOAM: The Open Source CFD Toolbox
   \\    /   O peration     | Website:  https://openfoam.org
    \\  /    A nd           | Version:  9
     \\/     M anipulation  |
\*---------------------------------------------------------------------------*/
FoamFile
{
    format      ascii;
    class       volScalarField;
    location    "16";
    object      p;
}
// * * * * * * * * * * * * * * * * * * * * * * * * * * * * * * * * * * * * * //

dimensions      [0 2 -2 0 0 0 0];

internalField   nonuniform List<scalar> 
918
(
0.231475
0.911589
0.0151065
0.230792
0.000306134
0.878696
-0.839207
0.414563
0.211533
-0.293975
0.0192017
0.202842
0.739338
0.507052
-1.46518
0.0119731
0.369086
-0.729087
0.210245
0.00801854
0.486462
0.218247
0.221235
0.21178
0.269666
0.498417
0.62015
0.00680414
-0.003514
0.00105469
0.00492513
-0.00257348
0.00360945
0.762313
0.813429
0.836094
0.181998
0.0131639
-0.689128
-0.767565
-0.755378
-0.900734
0.403955
0.407522
-0.485022
0.417078
0.432637
0.198999
0.210853
0.211822
0.213004
0.21186
0.213274
0.199567
-0.346522
-0.397941
-0.210834
-0.153575
0.0624051
0.0194915
0.0115777
0.0265849
0.0230102
0.140435
0.199298
0.19778
0.208779
0.21701
0.851138
0.823019
0.849156
0.762991
0.779423
0.717254
0.689746
0.526527
0.548099
0.493564
0.481343
-1.90729
-2.87729
-0.864428
-0.604858
0.00129299
0.0181114
0.0230892
0.353549
0.361197
0.361998
0.374921
0.788025
-0.716928
-0.837879
0.210211
0.209124
0.217994
0.218643
0.214656
0.213772
0.0142669
0.0192547
-0.00120031
0.00572399
0.00545404
0.466579
0.463759
0.212263
0.209172
0.225032
0.247107
0.237065
-0.0165123
0.28288
0.306349
0.300519
0.477634
0.477283
0.483954
0.593662
0.557236
0.657231
0.68047
0.0100543
0.00261208
0.00936836
0.00769775
0.00957569
0.176752
0.170525
0.193287
0.184479
0.186435
-0.0676421
-0.203273
0.0943851
0.112707
-0.589822
-0.660254
-0.784608
-0.78736
-0.909633
0.209147
0.389176
0.393765
-0.498529
-0.41549
-0.565386
-0.341345
-0.414194
0.190321
0.19681
0.191971
0.206364
0.20088
0.20282
0.215202
0.212243
0.213778
0.23349
0.32672
0.118429
0.132155
-0.599945
-0.460762
-0.561725
-0.0942247
-0.067414
0.0662088
0.0731722
0.0524467
0.0493752
-0.0332981
0.002714
-0.0172896
0.0245657
0.023659
0.134094
0.125241
0.149211
0.155654
0.190785
0.191922
0.195106
0.194352
0.640338
0.66279
0.670342
0.643942
-3.8853
-6.70365
-0.27188
-0.127724
0.00239156
0.00289776
0.00120017
0.00410648
0.00350395
0.00160684
0.0292095
0.0274724
0.0255675
0.028353
0.338019
0.343818
0.738585
0.726341
0.704422
0.678309
0.198475
0.200556
0.20595
0.201727
0.0239875
0.0211217
0.0243443
0.431399
0.450187
0.44983
-0.0505443
-0.139435
0.0312551
0.0582346
0.324835
0.310125
0.327588
0.36565
0.403934
0.68788
0.706261
0.704501
0.712963
0.756914
0.773242
0.738686
0.160318
0.167738
0.16388
0.19791
0.194599
0.195595
0.190824
0.192774
0.189982
-0.357571
-0.745682
0.160897
0.170197
0.148782
0.151491
0.293548
0.380338
0.369648
0.378947
0.382455
-0.275989
-0.343577
0.1136
0.112093
0.082775
0.113475
0.0972718
0.61164
0.571901
0.621902
0.595264
0.556617
0.582666
-0.699289
-2.22694
-1.33063
0.240154
0.0435048
0.136243
0.0456006
0.0297267
0.0374233
0.683995
0.761237
0.39725
0.574405
0.53481
0.443039
0.47377
0.531224
0.455733
0.490986
0.526506
0.50532
0.166038
0.16066
0.141427
0.464752
0.523678
-0.165413
-0.213005
-0.271584
0.0762424
0.0918226
0.0954575
0.728686
0.59199
0.683525
0.209184
0.209843
0.0137654
0.0250373
0.213951
0.214094
0.00760395
0.00838539
0.114706
-1.1795
-0.169935
0.202427
0.19273
0.20942
-0.364221
0.242714
0.012728
0.0792732
0.0510917
0.201676
0.150505
0.116361
0.00721076
0.0180335
0.0139934
-0.546137
0.206855
0.205167
0.209039
0.210002
0.210731
0.00870788
0.01151
0.00771259
0.0119486
0.0123977
0.00957002
0.176287
0.189705
-0.487012
0.209054
0.211254
0.211082
0.204431
0.209779
0.207783
0.0157383
0.0102637
0.0098738
-0.0648733
0.0500774
0.374024
0.488421
0.320513
0.094233
-0.150712
0.269921
0.339177
0.234955
0.404998
0.37199
0.401474
-0.111283
-0.258443
-0.103807
-0.159993
0.19987
0.198789
0.191197
0.189503
0.204631
0.202821
0.207112
0.204215
0.206806
0.20811
-0.286127
-0.209118
-0.41801
-0.464811
0.164354
0.356088
0.116023
0.104255
0.121365
0.0177844
0.0226534
0.00967338
0.00705135
0.0374171
0.0509652
0.0738861
0.055386
0.0510558
0.0329208
0.0344384
0.0437031
0.0442978
0.196396
0.193716
0.200887
0.207777
0.157674
0.161056
0.132542
0.147885
0.138172
0.0824697
0.114169
0.0933884
0.00830172
0.00836769
0.00595709
0.0211527
0.0250117
0.0133553
0.0106699
0.0144337
0.0119025
0.0105436
0.0164435
0.0192501
-0.517095
-0.60643
0.667547
0.552014
-0.272675
0.195768
0.202219
0.198785
0.203999
0.207122
0.207747
0.205491
0.2024
0.190375
0.19269
0.188458
0.188193
-0.428644
-0.5648
-0.382905
-0.448519
-0.178839
0.314736
0.061344
0.00278046
-0.00151888
0.206944
0.573759
0.387985
0.44097
0.467533
-0.678776
-0.278568
-0.608334
0.00216035
-0.173896
0.374966
0.427585
0.450235
0.396354
0.344293
-0.435435
0.202798
-0.357716
-0.320822
-0.129493
-0.229083
0.41881
0.35587
0.36405
0.389287
0.412298
0.365291
0.345734
0.344839
0.37988
0.384842
0.178354
-0.0308432
-0.0783523
-0.113098
0.341269
0.219994
0.275284
0.194025
0.194658
0.198019
0.196819
0.180799
0.186986
0.182027
0.188045
0.190468
0.200367
0.199916
0.195873
0.198373
-0.126314
-0.0847846
-0.377529
-0.525689
-0.507561
-0.544047
-0.47762
-0.575404
-0.449994
-0.297258
-0.00562731
-0.662107
-0.542977
-0.571574
-0.539007
-0.478126
-0.439848
0.0598829
0.133825
0.0648751
0.107584
0.133356
0.143864
0.0244769
0.0203028
-0.00420822
0.0140598
0.06984
0.078238
0.092319
0.0359699
0.0327981
0.0229061
0.0224184
-0.00923732
-0.0172301
-0.00623133
-0.00137012
0.0211307
0.0226235
0.0265765
0.0341407
0.0338593
0.0393077
0.18859
0.189911
0.189346
0.203092
0.213614
0.228097
0.197804
0.175519
0.168436
0.169211
0.147749
0.154363
0.152668
0.162713
0.180818
0.188269
0.18596
0.188698
0.175131
0.176308
0.163091
0.167022
0.148764
0.131471
0.120915
0.0171006
0.0111881
0.0136571
0.0144116
0.0105145
0.0119552
0.0373808
0.0307742
0.0348378
0.0286301
0.0301938
0.0176607
0.0173123
-0.450848
-0.396973
-0.518129
-0.54484
-0.617056
0.568445
0.689883
0.491291
0.293237
0.300229
0.522372
0.651849
0.310329
0.368008
0.485577
0.183335
0.488353
0.200816
0.200938
0.198588
0.197809
0.198535
-0.33723
-0.237552
-0.226267
-0.17247
-0.0542178
0.0592708
-0.0609398
-0.131547
-0.000382416
0.0148922
0.310012
0.325381
0.269006
0.294951
0.293775
0.121961
0.197391
0.248866
0.206399
0.247597
0.268766
0.234217
0.261292
0.209844
0.170533
0.169897
0.118707
0.135118
0.113343
0.0983914
0.191072
0.171003
0.18046
0.172477
0.192188
0.219813
0.214651
0.237963
0.252138
0.180318
0.141769
0.151226
0.178512
0.140515
0.152698
0.165621
-0.134476
-0.227758
-0.144685
-0.423097
-0.32758
-0.344964
-0.388449
-0.359447
-0.0722724
-0.771943
-0.736548
-1.37305
0.140326
0.607009
0.369812
0.337548
0.407845
0.382528
0.382566
0.417652
0.426857
0.331998
0.349277
0.351614
0.308373
0.333452
0.358815
0.358864
0.1827
0.0695576
0.0560189
0.0268651
-0.0953697
-0.0641588
0.142563
0.0645499
-0.00855254
-0.0028219
0.158173
0.0546744
0.11436
0.151217
0.0854396
0.0431898
0.23149
0.301727
0.291498
0.265127
0.185993
0.199384
0.222149
0.254196
0.281736
0.319145
0.189612
0.192661
0.194635
0.19304
0.188607
0.191947
0.192049
0.194225
0.195238
0.197844
0.19693
-0.005065
-0.0137617
-0.0569355
-0.0261751
-0.254485
-0.293767
-0.370995
-0.325297
-0.0242823
-0.0547355
-0.176954
-0.0923556
-0.0576081
-0.0368889
-0.0505827
-0.0653677
-0.202356
-0.25943
-0.259464
-0.0613928
0.0744889
-0.0241084
-0.324741
-0.215202
-0.162011
0.0172651
0.0547792
0.0482889
0.0425979
0.0425915
0.0273545
0.0239714
0.021518
0.0251245
0.0254872
0.0217613
0.021744
0.0223746
0.023183
0.0225739
0.0223463
0.176232
0.170701
0.171951
0.167173
0.166696
0.177476
0.181329
0.182852
0.187446
0.189378
0.180972
0.185226
0.187972
0.0258982
0.0214179
0.0237061
0.0220274
0.0219249
0.0194327
0.0194922
-0.117823
-0.295832
-0.237769
-0.352038
-0.449966
-0.406142
0.146023
0.107277
0.132901
0.350727
0.215369
0.10625
0.181466
0.3048
0.00578458
0.178417
0.0223456
0.553477
0.421905
0.569882
0.224793
-0.101723
0.0472974
0.0934871
-0.0975837
-0.0140989
-0.00357683
-0.114721
-0.0803079
-0.0513425
0.0427408
-0.0802273
-0.117883
-0.367834
-0.197355
-0.0396208
-0.0602336
0.0708959
0.1263
-0.105153
-0.174024
-0.208448
0.29669
0.318449
0.335681
0.305742
0.328655
0.256088
0.246695
0.264103
0.274541
0.269306
-1.10679
-0.817423
-1.76461
-1.08446
-0.634202
0.172028
0.132883
0.402699
0.304483
0.382484
0.366148
0.33225
0.29819
0.303752
0.339392
0.0531646
0.160506
0.137488
0.139254
0.0465349
-0.0161008
0.267112
0.259212
0.300066
0.323382
0.290563
0.32409
0.184929
0.184659
0.187465
0.184132
0.18174
0.183568
-0.0542739
-0.0352554
-0.156528
-0.204348
-0.215241
-0.159102
0.0329782
0.0274872
0.0237984
0.0249431
0.0302589
0.0323161
-0.159412
-0.198306
-0.311384
-0.217101
-0.331271
-0.395627
-0.416735
-0.335975
-0.237887
-0.239157
0.105114
0.357839
0.197635
0.333342
0.167004
0.20713
0.134388
0.125273
0.153519
0.0373202
0.117334
-0.133192
-0.631164
-0.542522
0.41246
0.438473
0.229008
0.0377187
-0.188582
0.00223122
0.215705
0.157342
0.198308
0.263501
0.258791
-0.34011
-0.265732
-0.027667
0.195411
-0.103998
-0.115792
-0.125699
0.0472559
-0.0113364
)
;

boundaryField
{
    wall-4
    {
        type            zeroGradient;
    }
    velocity-inlet-5
    {
        type            zeroGradient;
    }
    velocity-inlet-6
    {
        type            zeroGradient;
    }
    pressure-outlet-7
    {
        type            fixedValue;
        value           uniform 0;
    }
    wall-8
    {
        type            zeroGradient;
    }
    frontAndBackPlanes
    {
        type            empty;
    }
}


// ************************************************************************* //
