/*--------------------------------*- C++ -*----------------------------------*\
  =========                 |
  \\      /  F ield         | OpenFOAM: The Open Source CFD Toolbox
   \\    /   O peration     | Website:  https://openfoam.org
    \\  /    A nd           | Version:  9
     \\/     M anipulation  |
\*---------------------------------------------------------------------------*/
FoamFile
{
    format      ascii;
    class       surfaceScalarField;
    location    "16";
    object      phi;
}
// * * * * * * * * * * * * * * * * * * * * * * * * * * * * * * * * * * * * * //

dimensions      [0 3 -1 0 0 0 0];

internalField   nonuniform List<scalar> 
1300
(
3.75095
5.62643
-6.12022
3.75095
-5.95004
5.62643
-4.53788
4.53788
-1.38957
1.38957
1.87671
1.87425
-3.35287
3.35287
-4.5404
4.5404
-2.75348
2.75348
-5.24642
5.24642
-5.06749
5.06749
4.68352
-4.68352
-4.85781
4.85781
-1.82684
1.82684
-3.71096
3.71096
3.1725
-3.1725
-4.877
4.877
-0.480732
0.480732
-0.55355
4.3045
3.1974
3.1974
-2.47243
2.47243
-4.85107
4.85107
6.2183
-6.2183
9.29924
-9.29924
-3.17902
-3.40436
1.32252
-8.15013
-4.62752
-4.62752
-8.44042
8.44042
-2.81399
2.81244
2.92289
-2.92289
-1.74435
1.74435
-4.50887
-0.0290102
-4.50887
4.49648
0.0413981
4.49648
-1.4903
0.100738
-1.4903
4.06971
-4.06971
1.22497
0.164596
1.22497
3.06603
-3.06603
-1.87721
3.75392
1.87374
-1.87169
6.1762
-1.87926
3.75351
-5.13527
5.13527
-3.16362
-0.189257
-3.16362
3.68031
-0.327434
3.68031
-5.2972
5.2972
-4.44873
-0.0916761
-4.44873
4.60592
-0.065519
4.60592
2.97657
-2.97657
-2.7862
0.0327224
-2.7862
2.70097
0.0525114
2.70097
0.353582
5.27285
-5.98001
8.79245
-5.27285
0.0264257
5.20849
0.0379286
5.20849
-5.10588
0.0383985
-5.10588
5.01007
0.0574173
5.01007
4.77544
-0.0919194
4.77544
-4.79804
0.114514
-4.79804
-3.32724
-3.42079
-4.95961
0.101803
-4.95961
-1.86578
0.0389419
-1.86578
1.76739
0.0594486
1.76739
-3.52914
3.52914
-4.13909
0.428125
-4.13909
3.1279
0.0446011
3.1279
1.86866
1.88229
5.61962
-5.61962
2.44712
-4.80656
-0.0704333
-4.80656
-4.95906
-4.34017
4.95906
-0.0820647
-0.798619
0.317886
-0.798619
3.15921
0.0381891
3.15921
2.62743
0.0735353
-2.62743
0.155004
3.39472
-3.39472
1.8275
0.644925
1.8275
-5.57208
5.57208
4.94853
0.0615424
-4.94853
0.0974537
6.15695
0.0613466
6.15695
-6.19957
-0.0187289
-6.19957
3.36852
-6.77288
-3.41556
4.74672
0.11109
-4.74672
0.119203
2.8987
0.0241957
2.8987
-2.90723
2.90723
-2.97438
0.0514822
-2.97438
-2.16725
0.422902
-2.16725
1.41357
0.330774
1.41357
-4.38584
-0.123022
-4.38584
-4.41823
0.279145
4.41823
0.0782453
0.891476
-0.891476
-1.60129
0.11099
-1.60129
-4.22016
-0.165682
4.22016
-0.150451
-3.94992
-0.119793
-3.94992
-3.02548
0.051109
3.02548
0.0405448
3.11208
0.0471327
-3.11208
0.0460514
-1.87084
3.75313
-1.88011
3.75385
-4.93835
-0.196919
-4.93835
5.1863
-0.0510328
5.1863
3.35361
0.357353
-3.35361
0.189991
4.05586
-0.375549
4.05586
-5.34141
0.0442053
-5.34141
5.22033
0.0768731
5.22033
4.29892
-0.243065
-4.29892
-0.149804
4.66514
-0.0592157
4.66514
3.0271
-0.0505317
3.0271
-2.93489
-0.0416722
-2.93489
2.81024
-2.81024
2.8028
0.00744561
-2.8028
0.0165965
-11.1327
11.114
-0.0350584
-11.0977
5.17344
5.17344
4.1985
0.576943
4.1985
-5.00914
0.211101
-5.00914
3.32336
-6.73892
3.41167
-6.73892
3.41475
-11.5649
3.35022
-6.77101
5.10208
-5.10208
5.04258
0.059493
-5.04258
0.082969
-1.86108
-0.00470091
-1.86108
-2.92272
-0.606415
-2.92272
4.04427
-0.515129
4.04427
-3.03099
3.03099
-3.08281
0.0518293
3.08281
0.0450825
4.73292
-0.0677853
-4.73292
-0.0736425
1.03115
0.193819
-1.03115
0.232532
3.59004
-0.195321
3.59004
-3.21722
-0.177502
-3.21722
-1.83721
-0.0238693
1.83721
-0.00970937
-5.81869
0.246611
-5.81869
-11.1907
0.093054
-11.1528
-6.10651
-6.10651
2.3339
11.1264
-2.90482
-0.0300695
2.90482
-0.00612611
2.97304
0.0579442
-2.97304
0.0658092
-2.84701
0.0367693
2.84701
0.0602207
-2.55769
0.390442
-2.55769
-0.980749
0.980749
-1.16832
0.187575
1.16832
0.24525
1.14547
-0.253997
1.14547
1.70009
0.0672976
-1.70009
0.0987997
-3.84635
-0.103565
-3.84635
5.27565
-0.0893536
5.27565
-3.10198
-0.115237
3.10198
-0.0748828
-0.0332992
11.1473
-5.14014
0.0342516
5.14014
-11.2086
11.2429
-3.23885
0.681156
3.23885
0.959652
5.29623
0.275846
-5.29623
0.287092
5.15786
0.0624737
-5.15786
0.0557806
-2.40999
-0.512735
-2.40999
-4.59045
-0.347896
4.59045
-0.546186
-11.4761
-0.200904
11.677
-11.4186
6.01959
0.137358
-6.01959
11.3802
-0.857261
-0.0342154
0.857261
0.123488
1.47262
-0.327149
1.47262
3.75075
-0.160707
-3.75075
-0.0956061
-5.34838
0.00697595
5.34838
-0.0727312
-1.90629
-0.503699
1.90629
-0.433666
-4.26658
4.30477
1.90962
-3.33659
-3.43629
-7.67676
1.85104
1.90209
4.29816
-7.14809
-4.41679
-7.02888
7.27547
-6.98838
-9.30316
9.21124
7.44673
-7.56652
-5.77864
5.82372
6.48151
-6.44097
1.8788
1.87512
6.74802
-6.93728
-15.0566
14.8597
9.71551
-9.80719
11.6529
-11.6087
-12.8693
12.9318
-5.75195
5.78467
-6.6291
6.58743
-6.79694
6.72206
-3.28257
-3.45634
9.23879
-9.13699
11.712
-11.7825
-7.62329
8.05142
3.38318
0.92159
3.43031
-1.88158
3.76038
-1.87193
3.78155
3.41932
-6.70189
3.3196
-6.75589
6.08345
5.62857
-6.00138
-1.67538
-5.84772
5.87192
-5.82313
5.88335
8.96281
-8.99182
-1.88588
3.761
-1.86797
3.77006
-3.42348
-2.35516
3.37888
0.919281
5.65195
3.58684
-5.76304
-1.26584
-7.65449
7.49379
-7.95966
7.78216
-0.458942
5.82898
-5.37004
4.39213
-1.55473
7.38371
5.72074
5.93184
5.86889
-5.59304
1.11949
-6.48953
-6.39207
-2.66046
2.77145
2.67577
-2.51118
5.87712
1.56961
5.72666
-5.47066
-2.09586
-5.57423
3.81518
2.00854
3.86701
4.05623
2.42529
4.10734
3.02825
-3.03663
0.00838149
-3.05855
6.0868
0.724368
-5.41371
-4.49443
4.99832
1.74971
4.67088
-4.49372
-2.44356
-4.30373
-9.62829
-5.42832
-9.97618
8.90847
5.95122
8.85744
-9.3485
9.27577
6.60854
3.10697
6.54302
-6.12995
-3.67724
-6.27975
10.6215
-2.07537
-8.5461
-7.41541
-5.45387
7.33854
4.3144
7.75934
5.17242
7.81512
3.40875
7.21272
-7.72315
2.26928
-3.84994
-1.90201
-3.83334
3.74405
2.04062
3.79657
-4.12844
-2.50066
-4.15851
-4.19669
-2.60026
4.24722
2.34021
-4.30518
-3.65448
4.42042
2.30164
3.12681
-7.5436
3.6442
-7.10054
-6.4508
-2.68619
-6.36783
4.18857
2.60213
-6.79071
-2.51331
10.9446
-5.31601
9.26921
-7.24309
-4.53936
-7.31674
-6.62193
-1.00137
-6.34278
-8.85772
8.34499
-9.26006
8.74494
13.4977
-6.76016
-6.73753
-3.97065
-2.47032
3.9246
-0.494291
-3.71036
3.71874
0.0500137
3.83156
4.75315
4.25886
-3.88816
-1.93496
-3.82235
3.84572
2.03763
3.88249
6.70667
2.25614
6.74807
-6.42224
-2.56958
-6.54526
9.09644
-8.67354
2.93766
-2.96153
5.20354
2.57862
-5.00822
-2.64627
6.01404
-3.03792
-2.97612
-12.2374
10.602
1.63543
-4.85373
-0.461601
0.019131
-5.51554
-3.78762
5.40103
0.530813
11.1328
7.34521
-5.51452
5.76113
6.16244
6.22398
-0.16809
5.84639
-5.16523
5.19598
-2.22312
-2.97286
5.26496
-5.43065
-1.2803
-5.23898
3.95869
0.296019
1.9027
-1.58481
-2.08812
-0.572334
-1.98932
1.62299
1.05278
1.81681
0.950241
1.82121
-2.99707
0.589233
2.40784
-2.04683
-1.92194
-3.55941
-0.897721
4.45713
5.47072
2.02307
-5.37511
-0.199113
2.73394
-2.67449
-0.794958
-2.76446
2.0165
-2.81145
-3.52045
-1.77559
5.29603
-3.36986
-0.452494
3.31192
0.555095
-3.791
-2.05672
3.73952
0.36782
-3.14011
6.25022
-3.11011
-5.07507
2.53188
3.55492
4.54042
-4.79096
2.43812
2.35285
-1.23605
4.81583
-0.144946
4.44028
-5.7035
3.25994
4.78149
3.26993
-5.13884
0.835116
-4.86838
10.5226
-8.10513
-2.41743
6.81929
3.70328
7.79141
5.70628
-5.87031
13.6617
-1.1248
-6.98033
5.99318
-2.72325
5.87051
-8.59376
-11.5768
4.59646
-9.67986
9.71191
-0.0320573
-2.41986
-6.92864
12.0997
-1.83944
-10.2603
7.018
-5.86236
-4.82347
10.6858
-7.93772
8.50071
-3.33093
-5.16977
-7.55366
-4.05507
7.54669
1.72908
-9.81568
12.085
-2.60296
5.81834
0.724687
5.75912
4.78509
-5.94526
1.16017
3.15263
-6.48357
4.325
-10.2703
-4.99938
9.72101
-4.72163
-7.68557
-6.91691
-0.768657
1.95809
10.1269
-7.13051
5.41013
1.72038
3.34535
0.537139
-3.35279
-0.480549
0.353385
4.45925
-4.81264
4.14995
4.22349
3.38537
1.07388
3.79853
2.07339
-3.7924
-0.366105
-4.05526
1.455
-1.71505
-3.57456
5.02955
-4.00363
0.429079
-2.67058
-3.51622
6.1868
-4.57259
3.08725
3.16297
5.12488
-4.89177
1.37555
-2.41654
-2.47523
2.62808
-4.34313
1.92633
3.10323
4.22797
0.57349
4.96358
4.75742
-7.56571
0.465175
8.34427
-7.07842
1.77375
6.04136
-7.18389
0.266974
-6.10086
1.07614
-6.39215
-5.71457
5.62242
-6.62378
-2.97135
6.04517
0.702892
-6.12342
-0.21936
-5.89659
-2.96113
-6.40029
-3.15499
-6.10508
-9.0253
-1.63349
-7.3918
6.71149
-6.81672
-3.15946
7.36291
1.38203
-7.2988
7.26458
-7.33893
7.01178
0.0946161
3.62413
4.35348
1.88316
-2.38808
4.27124
-4.96263
7.21877
-8.41211
3.44948
3.99305
-6.56263
-4.41906
5.01187
4.08457
5.34264
8.92098
-10.7
1.77903
-10.9533
12.0922
-1.1389
-16.6899
5.73662
-7.76891
2.69336
0.244297
2.68866
0.669012
2.39963
-3.06864
-2.29252
-2.30223
-2.25665
-3.28688
5.54353
1.10749
-3.33147
2.22398
-3.40757
4.51506
-0.116798
-3.21467
5.20615
-2.80652
5.45045
-3.52437
1.92608
3.20752
5.47132
-2.2638
4.19534
-1.61672
1.73781
-4.00161
-1.54907
-2.98906
5.02968
-3.19774
3.62682
-0.217045
3.84386
-4.0088
0.970884
-0.623428
3.60006
3.75506
4.10523
-3.03135
2.87251
-4.48923
-1.1291
-3.91574
-0.812517
-0.236685
-3.73889
3.97558
6.14995
-6.38663
-5.30641
9.63424
-4.32783
7.74311
-5.42568
-2.31743
-4.27981
-4.39373
3.88937
1.95702
9.70014
0.202094
-5.62777
-4.96314
-4.00349
3.20701
1.98897
-2.08587
3.7213
2.06674
-0.164042
0.628686
1.18813
1.90271
-1.27402
0.164151
1.73855
-1.42066
2.01196
0.721985
-2.07925
0.0899307
-1.3807
3.39719
1.02715
-2.07992
0.805905
1.13404
-3.35715
4.66941
-2.33562
-2.33379
5.80345
1.1844
-3.52002
4.05458
-3.75857
2.29129
-3.18901
-1.22873
-4.98729
-3.41768
-2.42999
4.65397
-3.11354
5.13661
1.13352
-4.93749
6.07101
-3.48477
1.70918
-3.00949
3.73147
-1.03029
-1.97919
2.6965
2.59953
-2.79646
0.0320051
-0.0999619
2.28666
-2.38663
-0.52479
-2.57162
-4.54708
4.9149
-2.14945
4.58757
2.12179
-1.9208
6.50837
1.81276
-3.73356
-3.26232
-3.71481
-1.38071
3.15971
-1.39486
-4.8849
-6.56463
5.12796
-0.687681
-6.93109
9.55582
-2.62473
-5.18138
1.92144
4.89784
-8.11619
1.63263
-3.79119
5.76463
5.61969
4.93201
-11.6803
1.42
-5.72906
2.90594
-8.63499
6.60921
-3.93736
8.53382
-11.1064
7.94692
-9.72436
6.11639
-2.5186
5.63002
-4.46984
2.91609
-6.97116
-5.24207
6.91697
-3.81
7.64165
-4.27286
11.9145
-6.87582
7.01866
4.89586
-1.46914
-5.8476
-6.8624
5.39326
0.156265
5.91539
4.95476
-2.88138
4.58866
2.25513
-4.67167
-2.088
-6.53803
1.86636
-3.37506
-1.90501
3.77137
3.21986
3.757
1.29614
-3.27645
6.84278
-7.61144
-2.12115
-3.59342
6.79582
-1.40255
4.13569
-7.72911
-2.25646
4.80228
-0.587801
-4.21448
1.95788
-4.92922
1.35366
-6.28289
5.27012
-5.48948
2.1645
-9.93341
-5.1343
-5.01081
-2.22199
-5.11694
-7.63027
5.40828
-1.89365
5.37093
-8.65019
8.06239
-3.44198
8.85025
-5.29266
-1.10763
5.72633
1.28545
10.1357
0.17944
-4.5985
-1.80801
3.90354
-2.09553
1.399
-3.55945
0.344092
2.49842
3.30503
-6.45711
-0.105521
-4.70402
-3.91323
7.9978
5.72101
11.871
1.17095
9.23476
-1.23696
10.4057
4.10568
4.35093
-2.94233
4.72136
1.03324
4.48272
-0.839194
2.76528
1.84947
1.88841
0.786082
2.29215
1.46291
3.26304
0.194394
-2.10783
4.65736
-8.66085
-0.970415
-8.0839
1.12734
5.7501
-4.62276
3.11586
-1.12689
1.02033
0.242943
-1.81388
1.57094
-2.72992
-1.97792
-0.239367
-1.52091
2.32681
1.87628
-2.08745
-0.642476
0.270543
-3.68822
2.91847
-2.88646
-0.28693
5.78408
-2.73492
0.348297
-1.02574
-2.22333
-2.79566
2.70573
6.24496
0.263406
3.13485
5.17831
3.12158
0.240207
6.90259
-6.93465
-3.36767
-5.51465
1.09456
5.99241
2.19902
7.92785
7.09488
5.69232
-2.03679
-9.64822
6.56015
-1.83879
5.42125
-1.20676
-5.07612
4.90754
2.31124
-5.61043
0.120947
-4.95518
-6.79396
-0.420293
8.48268
-9.71541
8.60779
5.64666
1.74515
-4.34279
-0.668018
4.15522
0.195714
10.6014
-1.13842
-6.88779
8.02621
-4.61168
3.64127
0.937716
2.78358
2.50865
1.38176
-5.50603
-10.1288
-1.76278
-1.59438
-4.09656
0.360571
-2.23685
6.27432
-2.63305
3.95689
5.39315
6.41348
-2.15184
-4.2348
6.47967
-2.52278
3.8907
)
;

boundaryField
{
    wall-4
    {
        type            calculated;
        value           uniform 0;
    }
    velocity-inlet-5
    {
        type            calculated;
        value           uniform -3.75095;
    }
    velocity-inlet-6
    {
        type            calculated;
        value           uniform -5.62643;
    }
    pressure-outlet-7
    {
        type            calculated;
        value           nonuniform List<scalar> 8(6.12022 5.95004 6.58338 6.82761 6.74804 6.78408 6.73503 6.76496);
    }
    wall-8
    {
        type            calculated;
        value           uniform 0;
    }
    frontAndBackPlanes
    {
        type            empty;
        value           nonuniform List<scalar> 0();
    }
}


// ************************************************************************* //
