/*--------------------------------*- C++ -*----------------------------------*\
  =========                 |
  \\      /  F ield         | OpenFOAM: The Open Source CFD Toolbox
   \\    /   O peration     | Website:  https://openfoam.org
    \\  /    A nd           | Version:  9
     \\/     M anipulation  |
\*---------------------------------------------------------------------------*/
FoamFile
{
    format      ascii;
    class       volVectorField;
    location    "16";
    object      U;
}
// * * * * * * * * * * * * * * * * * * * * * * * * * * * * * * * * * * * * * //

dimensions      [0 1 -1 0 0 0 0];

internalField   nonuniform List<vector> 
918
(
(0.985181 -0.000476612 0)
(0.00500077 2.96626 0)
(-0.00264058 1.63099 0)
(0.979733 0.00210073 0)
(-0.00204437 1.5862 1.49558e-21)
(-0.00702982 2.94878 -1.86572e-18)
(0.848703 1.20162 7.34382e-19)
(0.474103 0.222501 -9.07684e-21)
(0.999912 -0.00031464 0)
(-0.00751602 0.988121 0)
(-0.0010241 1.30918 0)
(0.805426 -0.0071417 0)
(0.0111049 2.93032 0)
(0.00171663 2.79438 0)
(-0.0177804 3.16817 1.09066e-18)
(-0.00590143 1.49963 -1.40227e-20)
(0.57835 0.10164 5.67516e-19)
(0.171375 1.1596 6.62532e-19)
(0.963751 0.00515806 0)
(-0.00390476 1.42756 0)
(0.158844 0.266147 -4.80143e-19)
(1.0017 -0.0050814 0)
(1.00026 -0.00976036 0)
(0.97573 -0.00650949 0)
(0.722665 -0.0267597 0)
(0.0182946 2.62974 0)
(-0.0151392 2.91016 6.44329e-19)
(-0.0148234 1.65075 0)
(-0.0138978 1.75545 0)
(-0.0129424 1.64622 0)
(-0.00371863 1.82016 0)
(-0.00231163 1.60604 -1.18343e-21)
(-0.00490708 1.50623 0)
(-0.0206262 2.98758 -6.52364e-23)
(-0.0167064 3.00531 1.45028e-18)
(0.00210707 3.00021 0)
(0.864742 -0.00733647 0)
(0.386333 0.925794 -2.62442e-20)
(0.842788 1.21313 -1.03457e-18)
(0.993204 1.06034 9.70225e-19)
(0.707126 1.30252 -1.72105e-19)
(0.703451 1.28406 9.72651e-19)
(0.500491 0.292193 8.85647e-21)
(0.492096 0.196514 0)
(1.18414 0.57231 0)
(0.471013 0.314406 4.16448e-20)
(0.431253 0.215815 -4.32156e-20)
(0.92017 -0.00692568 0)
(1.00039 7.82359e-05 0)
(0.999924 0.000342996 0)
(1.0035 -0.00779257 0)
(1.00093 -0.00106433 0)
(1.00016 -7.27069e-06 0)
(0.0689387 1.58008 -3.67406e-19)
(-0.011679 1.0436 0)
(0.0251503 0.906405 0)
(-0.04268 1.13263 0)
(-0.0282364 1.07178 0)
(-0.00649446 1.5796 0)
(-0.00696768 1.46496 0)
(-0.00852872 1.29358 0)
(-0.00776417 1.50075 0)
(-0.0055169 1.32353 0)
(0.882744 -0.000550486 0)
(0.889881 0.0095126 0)
(0.818253 -0.00051776 0)
(0.882658 0.0142338 0)
(0.790249 -0.00834634 0)
(0.0147058 3.00039 6.82928e-19)
(0.0115343 3.00787 0)
(0.0061415 3.00286 0)
(0.0135537 2.99732 7.61382e-24)
(0.0079992 2.95846 -1.015e-18)
(0.0145009 2.98207 0)
(0.0107799 2.90364 0)
(0.0254146 2.93019 1.36156e-24)
(0.00400707 2.82487 0)
(0.0318378 2.9152 0)
(-0.00698135 2.74432 0)
(0.309655 3.5665 0)
(-0.132657 3.64832 0)
(0.140144 3.25871 -1.01502e-18)
(-0.0113527 2.99188 0)
(-0.012661 1.79904 0)
(-0.00466224 1.63791 1.38333e-20)
(-0.00579924 1.51521 -2.21762e-20)
(0.639508 0.164536 -1.95732e-19)
(0.596573 0.0619069 -1.90439e-19)
(0.605297 0.19446 -5.85719e-19)
(0.556048 0.126934 -3.90623e-19)
(0.248001 0.956799 0)
(0.263408 1.28664 -6.46963e-19)
(0.330657 1.27234 1.06389e-18)
(0.988049 0.00843749 0)
(0.943627 0.00613782 0)
(1.00032 0.000560771 0)
(1.00285 0.00930453 0)
(1.00286 0.00838632 -1.08896e-18)
(0.992037 0.00979205 8.22208e-19)
(-0.0155429 1.55586 0)
(-0.00887747 1.41286 0)
(-0.0218354 1.65737 0)
(-0.0182319 1.59199 0)
(-0.00243843 1.45833 0)
(0.232728 0.282738 1.4782e-19)
(0.280106 0.263247 0)
(0.993567 -0.00829349 0)
(0.95436 -0.0067575 0)
(0.856473 0.0181272 0)
(0.823366 0.0331704 0)
(0.768743 -0.0177485 0)
(1.0144 -0.00573591 0)
(0.769275 0.048318 0)
(0.637177 -0.015886 7.60044e-19)
(-0.035157 2.8671 3.24194e-19)
(0.0439273 2.90772 0)
(0.0572035 2.88271 0)
(-0.00538894 2.69585 0)
(-0.0131859 2.98522 5.91853e-19)
(-0.0183879 2.89551 0)
(-0.0153963 2.98815 -1.87327e-18)
(-0.0134562 2.92522 6.47068e-19)
(-0.011996 1.81348 0)
(-0.00928872 1.80865 0)
(-0.00211123 1.636 -2.87473e-22)
(-0.00281288 1.606 0)
(-0.00535272 1.50109 0)
(0.929864 -0.00473428 0)
(0.854588 -0.00559305 0)
(0.858718 0.00958478 0)
(0.942714 -0.00532419 0)
(0.883407 -0.00677508 0)
(0.500815 1.12168 2.25525e-20)
(0.55416 1.17918 0)
(0.343019 0.858087 4.76226e-21)
(0.287783 0.719741 0)
(0.955518 1.09172 -2.79367e-19)
(1.06894 0.897144 5.7056e-19)
(0.43245 1.36304 0)
(0.554486 1.36536 0)
(0.5499 1.30926 0)
(0.0955212 0.125933 -1.16288e-19)
(0.531421 0.269261 0)
(0.515924 0.171336 1.12522e-19)
(1.04015 0.946677 0)
(1.10823 0.791577 0)
(1.13473 0.73695 -4.95941e-19)
(1.16249 0.630196 0)
(1.21334 0.411434 5.99112e-20)
(0.955136 -0.00767079 0)
(0.962243 -0.00926504 0)
(0.902395 -0.00819368 0)
(0.984167 -0.00899458 0)
(0.975051 -0.00915814 0)
(0.936836 -0.00630444 0)
(1.00004 0.00225208 0)
(1.00092 0.00151354 0)
(0.999887 0.000836908 0)
(0.0681855 1.80365 2.16349e-19)
(0.0745176 1.53505 0)
(0.0387554 1.79892 2.76702e-19)
(0.032873 1.58221 -2.34074e-19)
(0.0977489 1.15375 -5.48584e-19)
(0.0296449 1.04352 0)
(0.121618 0.993744 0)
(-0.0451762 1.25497 0)
(-0.0234755 1.18211 0)
(-0.00317506 1.72517 -9.66504e-22)
(0.000403819 1.60802 0)
(-0.00705669 1.70465 -4.43438e-20)
(-0.00872246 1.56438 8.55058e-20)
(-0.0295624 1.36029 0)
(-0.0175052 1.42725 0)
(-0.0135744 1.24871 0)
(-0.0118201 1.52235 0)
(-0.00838495 1.34374 0)
(0.958783 0.0141181 0)
(0.901875 0.0026858 0)
(0.940591 0.00943879 0)
(0.870651 0.00102557 0)
(0.819638 -0.00239014 0)
(0.909129 0.0020017 0)
(0.902516 0.00477467 0)
(0.818355 -0.00489036 0)
(0.00597603 3.06492 -5.99833e-21)
(0.016336 3.05799 0)
(0.01472 2.96915 0)
(0.00857845 2.87636 0)
(0.926508 3.98434 0)
(1.24181 3.31322 1.01338e-18)
(0.0714944 3.08431 0)
(-0.0261238 2.91226 0)
(-0.013339 1.79551 0)
(-0.0140255 1.79582 0)
(-0.0128824 1.79556 0)
(-0.0081484 1.80804 5.06445e-21)
(-0.0121986 1.80511 0)
(-0.00957462 1.80354 0)
(-0.000326268 1.52558 9.90253e-22)
(-0.000731227 1.66516 2.46687e-20)
(-0.00366611 1.65363 2.26589e-20)
(-0.00282756 1.51776 0)
(0.666303 0.118058 2.86922e-19)
(0.610341 0.0273299 -2.79691e-19)
(0.197 1.48639 0)
(0.29461 0.722456 -2.27481e-19)
(0.106338 1.59271 -7.72563e-19)
(0.183358 1.17756 7.69541e-19)
(0.902993 0.00947492 0)
(0.968505 0.0119848 0)
(0.97548 0.0109148 0)
(0.925894 0.00770394 0)
(-0.0155958 1.53525 0)
(-0.0164435 1.54368 0)
(-0.00932095 1.37438 0)
(0.427991 0.327599 3.81877e-19)
(0.357413 0.307636 -4.64834e-19)
(0.371573 0.2388 0)
(1.13215 0.082838 -3.10256e-21)
(1.11693 0.037701 0)
(1.04807 0.0338712 0)
(0.96035 0.00580142 0)
(0.678758 0.0847465 0)
(0.707781 0.0623975 -1.22359e-18)
(0.616871 0.012332 4.6741e-19)
(0.010022 2.98273 4.16736e-19)
(-0.0318405 2.86833 4.91421e-20)
(0.00381491 3.05026 -1.29649e-20)
(0.0199465 3.0435 4.66233e-19)
(-0.0150244 2.99656 2.15192e-20)
(-0.0129771 2.94941 -8.71299e-23)
(-0.0172934 3.01201 -4.08191e-19)
(0.0147876 3.02408 2.95275e-19)
(0.0072903 3.03678 -4.61267e-19)
(0.935586 0.00816134 0)
(0.932153 0.00272206 0)
(0.856046 -0.000585981 0)
(0.956314 0.0131092 0)
(0.941823 0.0133065 0)
(0.881096 0.00806678 0)
(0.914764 0.00701468 0)
(0.923137 0.0132596 0)
(0.832955 0.0049002 0)
(0.712925 1.40929 3.21979e-19)
(0.749414 1.52083 0)
(0.218675 0.363877 2.28419e-20)
(0.170179 0.550024 1.80596e-19)
(0.253349 0.669959 -1.06867e-19)
(0.217466 0.556001 1.96341e-19)
(0.281727 0.670959 6.9107e-19)
(0.111072 0.160642 2.16729e-19)
(0.583674 0.223667 4.2071e-19)
(0.555413 0.246437 1.03738e-19)
(0.536222 0.155705 2.11609e-19)
(1.20112 0.46732 2.92662e-19)
(1.21641 0.259172 3.07018e-19)
(0.0387598 1.7721 1.14347e-19)
(0.0312631 1.59601 0)
(1.0018 0.0259655 0)
(0.970807 0.0169295 0)
(0.92616 -0.000889079 0)
(0.0110137 3.07469 0)
(0.0201096 2.94419 7.99326e-19)
(0.0165525 2.95647 0)
(0.00609283 2.85064 -7.92822e-19)
(0.00613665 3.0921 1.89477e-19)
(0.00720454 3.08226 0)
(0.783957 1.82585 -2.38122e-19)
(1.24859 2.50853 6.54602e-19)
(0.766957 1.96699 -1.48913e-18)
(0.0212337 2.98525 -3.01054e-19)
(0.0372249 3.00839 0)
(-0.031833 2.88315 0)
(-0.00353333 1.66971 -5.01564e-21)
(-0.000922408 1.66906 -5.52253e-20)
(-0.000823476 1.53858 -6.88379e-21)
(0.252597 1.3338 7.08615e-19)
(0.263264 0.476345 -4.8961e-19)
(0.063138 1.77175 4.86276e-19)
(0.0992642 1.69515 -6.18726e-19)
(0.109143 1.39905 9.61269e-20)
(0.00617314 3.11814 -9.95186e-19)
(0.0129701 3.11884 1.08511e-18)
(-0.00873862 2.98073 5.14323e-19)
(-0.00325527 2.97778 -4.53805e-19)
(-0.0217087 2.88198 -5.23827e-19)
(0.00862509 3.09892 -1.38629e-18)
(0.00185857 3.1058 1.38808e-18)
(0.208035 0.58418 0)
(0.149368 0.548686 -3.53088e-19)
(0.141624 0.188668 1.55902e-19)
(0.316979 0.800771 6.47227e-19)
(0.174525 0.210972 -9.87903e-19)
(1.21298 0.170531 -5.52362e-20)
(1.21524 0.311021 0)
(1.2002 0.118473 1.20426e-19)
(0.00577008 1.75491 -1.16103e-21)
(0.0275707 1.77485 0)
(0.0128906 1.60517 0)
(0.307534 1.20054 -2.54234e-19)
(0.355893 1.02007 -5.42783e-19)
(0.186563 0.311346 9.20495e-19)
(1.00583 -0.0110349 0)
(1.00771 -0.00776721 1.98617e-19)
(-0.0120434 1.80136 0)
(-0.0214596 1.80983 0)
(1.00232 0.00363667 1.90144e-21)
(1.00351 0.00937888 4.08367e-19)
(-0.00770644 1.81149 -6.66697e-21)
(-0.00598042 1.8103 0)
(0.0397819 3.18463 1.04736e-19)
(0.398858 3.50423 0)
(1.10162 0.644915 6.08882e-20)
(1.01167 0.0120802 -2.43224e-21)
(1.02086 -0.01137 0)
(1.00172 0.000178061 7.57223e-24)
(-0.128816 1.19823 0)
(-0.10094 2.46229 0)
(-0.0598886 1.71417 0)
(-0.0548072 1.93439 6.40132e-20)
(-0.0397133 1.8653 3.86241e-20)
(1.00379 0.00920669 2.35743e-21)
(1.0446 0.0154868 0)
(1.06992 0.0285463 0)
(-0.015291 1.79691 0)
(-0.0103529 1.82414 0)
(-0.0259227 1.79254 0)
(0.308947 1.30498 -4.69651e-19)
(1.01121 -0.00970691 0)
(1.00948 -0.0155116 0)
(1.00227 0.00047913 2.50564e-19)
(1.00572 -0.0048752 -2.99308e-19)
(1.00106 -0.000981059 0)
(-0.0172186 1.79501 0)
(-0.0149062 1.79534 0)
(-0.014205 1.79664 0)
(-0.0247434 1.79442 0)
(-0.0205395 1.79232 0)
(-0.0241244 1.79511 0)
(1.02515 -0.00849868 0)
(1.02114 0.0185722 -1.01227e-21)
(0.796386 1.2638 5.26556e-19)
(1.00305 0.000314165 -2.54225e-19)
(1.00328 0.00575181 3.03827e-19)
(1.00123 0.00204711 0)
(1.01181 0.0103444 2.46684e-19)
(1.00782 0.00812254 -3.05894e-19)
(1.00872 0.0142673 0)
(-0.0102725 1.82403 0)
(-0.00833031 1.81861 1.27229e-20)
(-0.0084797 1.81753 -8.84353e-21)
(1.18225 0.252238 -5.78749e-20)
(1.12165 0.0832563 0)
(0.0570039 3.07935 -5.11602e-19)
(0.0690015 2.8513 -4.14438e-20)
(0.147995 3.20043 7.80698e-19)
(0.142516 3.22865 2.30501e-21)
(0.140296 3.24516 0)
(0.0217293 3.13881 1.10283e-19)
(0.0811792 3.16353 4.99509e-19)
(0.0743652 3.19083 -2.13523e-19)
(0.0264685 3.12824 0)
(0.695806 0.32544 0)
(0.625518 0.392252 0)
(1.08048 0.674753 -2.37781e-19)
(1.07483 0.808353 3.7396e-19)
(1.13855 0.560996 0)
(1.17135 0.511354 0)
(1.01558 0.0129022 -4.58081e-19)
(1.0135 0.0146974 5.71615e-19)
(1.02428 -0.0125318 0)
(1.01834 -0.0200553 0)
(1.0068 0.00310843 0)
(1.00999 0.00395548 0)
(1.00424 0.00207116 0)
(1.00956 0.00662218 0)
(1.00747 0.00536881 0)
(1.0055 0.00496828 0)
(-0.140871 1.23892 0)
(-0.147166 1.25147 0)
(-0.0536906 1.16708 0)
(0.0680916 1.18635 0)
(-0.0824611 2.56753 0)
(0.0426312 2.59079 -2.52361e-19)
(-0.119017 2.46604 0)
(-0.0913378 2.35705 8.21204e-20)
(-0.044377 2.08441 -1.21513e-19)
(-0.0490648 1.723 0)
(-0.0316138 1.73851 0)
(-0.079142 1.68364 0)
(-0.0646193 1.63158 0)
(-0.122956 1.86353 -3.00955e-20)
(-0.0512893 1.88381 4.55728e-20)
(-0.0520904 1.92813 5.95935e-20)
(-0.0435474 1.90714 0)
(-0.0370175 1.86401 -8.80927e-20)
(-0.0187798 1.85091 -4.43304e-20)
(-0.112028 1.85095 2.39267e-20)
(-0.0738118 1.85981 -6.07822e-20)
(-0.0793048 1.89037 -7.87374e-20)
(1.01208 0.019206 4.54353e-19)
(1.01154 0.004461 -5.61721e-19)
(1.00547 0.0192486 -4.70404e-19)
(0.99307 0.014355 5.99058e-19)
(1.04312 0.0202133 0)
(1.0364 0.0085529 0)
(1.06394 0.0396389 0)
(1.05143 0.0237292 0)
(1.055 0.0117487 0)
(1.10511 0.0763692 0)
(1.08028 0.0487692 0)
(1.08964 0.0362094 0)
(-0.0110415 1.81329 -1.54876e-21)
(-0.0158581 1.80241 0)
(-0.0126469 1.80656 0)
(-0.0102826 1.82884 1.36756e-20)
(-0.00870029 1.83021 -6.02827e-22)
(-0.0211911 1.79837 1.39817e-20)
(-0.0212083 1.79732 -1.41273e-20)
(-0.0251774 1.79727 0)
(-0.022349 1.79771 0)
(-0.02137 1.7979 0)
(-0.0260167 1.79125 0)
(-0.0234405 1.78135 0)
(0.450086 1.38585 8.89567e-19)
(0.404164 1.41724 3.2707e-19)
(0.628735 2.4265 -1.61299e-19)
(0.41666 2.57195 4.03772e-19)
(0.537654 2.12881 -1.09809e-19)
(1.02116 -0.00799667 0)
(1.0156 -0.00937435 0)
(1.0163 -0.0147951 0)
(1.00776 -0.000759701 0)
(1.00446 -0.00127989 0)
(1.00726 -0.00481502 0)
(1.00993 -0.00378719 0)
(1.01385 -0.00433057 0)
(1.02249 0.0172128 4.42043e-19)
(1.01534 0.0212476 -5.5664e-19)
(1.02383 0.0158249 -4.40574e-19)
(1.01977 0.0117632 5.51386e-19)
(0.765219 1.29789 0)
(0.690187 1.35648 6.23779e-19)
(0.866814 1.19428 3.61699e-19)
(0.903907 1.16942 -4.80724e-19)
(1.14414 2.61617 -5.30029e-19)
(0.833706 0.105381 2.94462e-19)
(1.12313 0.0963771 0)
(1.16561 0.168853 5.21817e-20)
(1.1592 0.152955 2.28257e-21)
(0.973089 0.123351 0)
(0.151847 2.97203 1.07741e-19)
(0.129304 2.87814 -6.46315e-19)
(0.0445991 2.34733 4.77253e-19)
(0.113139 0.122407 -1.98028e-19)
(0.343214 3.43124 -4.4789e-19)
(0.198949 3.32383 0)
(0.239087 3.36852 5.83297e-19)
(0.256511 3.04457 -6.85179e-19)
(0.349636 3.20162 0)
(0.0074581 3.12051 2.63228e-20)
(0.0190448 3.12936 -3.35695e-19)
(0.0165408 3.12517 4.94107e-19)
(0.0383306 3.13997 0)
(0.0368914 3.15216 0)
(1.2139 2.61401 0)
(0.499375 0.842993 -2.29559e-19)
(1.01538 0.984723 -1.9976e-19)
(0.959164 1.04746 0)
(0.797582 0.954268 5.40398e-20)
(1.03577 0.869604 3.13872e-20)
(0.405094 0.483014 -5.34904e-19)
(0.720673 0.327007 -2.28242e-20)
(0.704048 0.288881 2.23529e-19)
(0.626973 0.425484 1.79414e-20)
(0.57065 0.414467 -7.37054e-19)
(0.704697 0.34921 0)
(0.717788 0.424887 3.7388e-19)
(0.721357 0.417239 0)
(0.671007 0.400872 0)
(0.667814 0.33191 0)
(0.735897 0.598039 1.37143e-19)
(1.1799 0.269296 3.07193e-20)
(1.18017 0.406066 0)
(1.18821 0.361861 0)
(0.764097 0.217834 3.34537e-19)
(0.784157 0.519419 -1.87136e-19)
(0.706427 0.502438 3.03729e-19)
(0.904892 0.397292 -2.87105e-19)
(1.01993 0.0160402 2.99881e-19)
(1.01741 0.014173 -3.09236e-19)
(1.01372 0.0167048 0)
(1.02404 -0.0124617 0)
(1.02323 -0.0167487 -2.7421e-19)
(1.01646 -0.0215859 2.71006e-19)
(1.03448 0.00612539 0)
(1.02757 0.0149197 0)
(1.01134 0.00417942 0)
(1.01507 0.00823135 0)
(1.0166 0.00384195 0)
(1.01339 0.0013444 0)
(-0.176493 1.35752 0)
(-0.159262 1.39131 0)
(-0.0722469 1.08599 3.76486e-19)
(0.312817 1.28558 2.9092e-19)
(0.148653 1.16494 6.35775e-19)
(0.224442 1.21812 -1.01479e-18)
(0.157904 1.18513 0)
(-0.117698 1.95298 6.75186e-19)
(-0.253731 1.84193 0)
(0.527324 2.23392 1.63712e-19)
(0.424628 2.46421 2.23021e-19)
(0.127681 1.68196 -5.93707e-19)
(0.391229 1.1757 2.93049e-19)
(0.221119 1.15675 -2.30685e-19)
(0.498736 1.23935 6.10662e-19)
(0.37993 1.76929 0)
(0.484107 1.77631 -4.75727e-19)
(-0.235459 2.05417 1.25091e-21)
(-0.0679823 2.15449 0)
(-0.251347 2.23029 6.50651e-21)
(-0.227564 2.13846 0)
(-0.0852564 2.31997 -9.2925e-20)
(-0.0477211 2.19177 0)
(-0.123315 1.77303 -1.98913e-20)
(-0.165881 1.82218 0)
(-0.154734 1.70136 0)
(-0.128888 1.72494 2.24415e-20)
(-0.0622219 1.96458 -1.41319e-20)
(-0.0466504 2.05596 1.34688e-19)
(-0.0426062 2.01013 9.15719e-22)
(-0.0662953 1.8264 2.63851e-20)
(-0.0830155 1.81816 1.26437e-20)
(-0.0264932 1.75463 0)
(-0.0208015 1.76037 0)
(-0.236883 1.90351 -2.3771e-21)
(-0.216361 1.7308 -1.81648e-20)
(-0.197221 1.82743 1.88692e-20)
(-0.317229 1.89324 0)
(-0.0175488 1.8184 -5.11881e-20)
(-0.0167521 1.82743 2.43182e-20)
(-0.017028 1.82808 -7.39537e-21)
(-0.0531579 1.82022 -3.15927e-20)
(-0.0276862 1.84559 -1.18202e-20)
(-0.0369889 1.85366 6.24687e-20)
(1.02307 0.00878024 -2.95215e-19)
(1.02002 0.00881437 2.98738e-19)
(1.01719 0.00157945 0)
(1.00003 0.0450522 4.25047e-19)
(0.993742 0.0334502 -4.98155e-19)
(0.967319 0.0244381 5.74694e-19)
(0.995474 0.0800082 -5.59852e-20)
(1.02622 -0.00235593 0)
(1.03252 0.0111066 2.48611e-19)
(1.02667 0.000771213 -2.4651e-19)
(1.04048 0.038705 -1.37724e-20)
(1.04448 0.027417 1.21579e-19)
(1.03759 0.0507824 0)
(1.03123 0.0407796 -4.56351e-20)
(1.02579 0.0257726 0)
(1.02229 0.0216841 0)
(1.03743 0.0078123 0)
(1.03265 0.00846885 0)
(1.0328 0.0249769 9.4943e-20)
(1.03527 0.0181304 -2.12396e-19)
(1.03413 0.0294799 -9.59352e-20)
(1.03333 0.0290101 -1.1129e-19)
(1.0338 0.0571891 2.01164e-19)
(1.0659 0.0521306 0)
(1.0619 0.0920848 0)
(-0.017928 1.81879 -1.99994e-20)
(-0.0169203 1.80663 -1.79734e-21)
(-0.019057 1.80729 0)
(-0.0127222 1.82004 2.12914e-20)
(-0.0114797 1.81508 3.22411e-21)
(-0.0118438 1.81885 -3.40217e-21)
(-0.0139489 1.84722 3.78287e-20)
(-0.0163514 1.83505 -2.62243e-21)
(-0.0188457 1.83742 1.30728e-20)
(-0.00774973 1.83616 -1.97258e-20)
(-0.00846693 1.83835 2.43743e-20)
(-0.0252875 1.79997 4.32222e-22)
(-0.023663 1.80216 2.33519e-20)
(0.524682 1.32327 -4.39664e-19)
(0.535587 1.36422 -4.77886e-19)
(0.649698 1.39214 -6.03112e-19)
(0.523309 1.43587 -3.24672e-19)
(0.538162 1.43323 0)
(0.614193 2.40074 1.31796e-19)
(0.708135 2.35529 2.41084e-19)
(0.425087 2.54301 1.01682e-19)
(0.418197 2.62879 -1.52538e-19)
(0.554122 2.56702 2.83939e-19)
(0.527581 2.46312 0)
(0.533854 2.46861 -3.63909e-19)
(0.113699 2.63494 6.81211e-19)
(0.295207 2.63468 -2.77577e-20)
(0.220013 2.6302 -9.57221e-19)
(0.921395 2.35498 1.92811e-19)
(0.825502 2.3298 0)
(1.01079 -4.49434e-05 1.00429e-20)
(1.01449 -0.00521461 -8.08832e-21)
(1.01624 -0.00378957 -1.46444e-19)
(1.01374 -0.00198043 1.47348e-19)
(1.01302 0.00077916 0)
(0.643973 1.25707 0)
(0.644794 1.15248 0)
(0.740004 1.08049 0)
(0.635704 1.10752 0)
(1.17522 2.63628 4.86891e-20)
(1.05082 2.36337 0)
(0.825767 2.28436 -2.19872e-21)
(0.807715 2.48528 0)
(0.895074 2.57725 -7.17955e-21)
(0.926742 2.53933 4.81153e-21)
(0.838345 0.132997 0)
(0.807819 0.144417 8.47393e-20)
(0.916126 0.124457 4.33336e-19)
(0.862076 0.118349 -1.74379e-19)
(0.856271 0.0737271 -5.21993e-19)
(1.02443 0.210971 -2.53031e-19)
(0.957576 0.27543 -1.51241e-20)
(0.884472 0.271553 3.92222e-19)
(0.962176 0.206591 2.94867e-19)
(0.932711 0.159999 -5.44027e-19)
(0.904726 0.175111 7.01912e-20)
(0.919804 0.239959 -1.38668e-19)
(0.901713 0.19418 0)
(0.968591 0.160513 2.6021e-19)
(1.00055 0.15932 0)
(0.99882 0.191879 0)
(1.05789 0.100792 8.5582e-20)
(1.02004 0.148033 -1.34888e-20)
(1.01662 0.211774 -4.69591e-20)
(1.04902 0.17898 0)
(1.01533 0.0240491 2.26013e-19)
(1.02681 0.0431378 2.67016e-19)
(1.02299 0.0275032 -2.23901e-19)
(1.01879 0.0478554 -1.80018e-19)
(1.00324 0.0486165 -2.9973e-19)
(0.976096 0.125498 0)
(0.984033 0.0773819 0)
(0.969147 0.0467118 -2.08518e-19)
(0.93263 0.0557513 8.70237e-20)
(1.00081 0.0796078 2.55467e-19)
(1.02246 0.101378 -2.59902e-19)
(1.02856 0.12235 2.36613e-19)
(0.992154 0.121875 0)
(1.03347 0.0906058 0)
(1.01988 0.0774302 -1.08994e-19)
(1.01713 0.0792882 -2.04005e-19)
(0.591142 1.06518 -1.02517e-19)
(0.643743 1.44198 2.0583e-19)
(1.16407 2.76517 1.08087e-19)
(1.22423 3.09573 -7.03581e-20)
(1.24229 2.73573 5.44994e-19)
(1.27641 2.71582 -3.33591e-19)
(1.19868 2.34769 -5.77394e-21)
(1.21054 3.00091 1.95517e-19)
(1.22683 2.96872 -2.20335e-19)
(1.2136 3.24781 -2.67e-19)
(1.37477 2.97768 3.69665e-19)
(1.36778 2.893 0)
(0.501283 0.852183 -1.24001e-20)
(0.161487 1.30049 3.5791e-19)
(0.523509 0.546472 3.54941e-19)
(0.351921 0.318648 3.86098e-19)
(0.566145 0.446607 4.1151e-19)
(0.543992 0.504359 -6.5181e-19)
(0.543976 0.524628 5.33875e-19)
(0.517315 0.483693 -2.13088e-19)
(0.481406 0.427457 4.94539e-19)
(0.771201 0.260115 -1.87153e-19)
(0.739404 0.297255 0)
(0.732395 0.247541 1.11928e-20)
(0.699752 0.517948 1.92858e-19)
(0.684215 0.485122 -7.10318e-19)
(0.611222 0.508094 1.99826e-20)
(0.633523 0.480484 0)
(0.626536 0.737567 1.5031e-19)
(0.776755 0.76122 5.74281e-20)
(0.709911 0.850754 -7.57358e-20)
(0.820376 0.790509 -2.01651e-20)
(0.865459 0.833395 1.34619e-20)
(0.872908 0.836626 -1.3786e-20)
(0.780493 0.629458 -2.33661e-19)
(0.866648 0.684851 1.8738e-20)
(0.930186 0.697212 0)
(0.91971 0.673185 -1.91438e-20)
(0.980905 0.309561 6.44187e-20)
(1.07539 0.278856 1.26866e-20)
(1.00915 0.255131 1.03349e-19)
(0.961802 0.337613 -1.47477e-19)
(0.997706 0.398656 0)
(1.05206 0.394187 0)
(0.883749 0.328693 3.12317e-21)
(0.828022 0.272486 0)
(0.833234 0.269967 2.01544e-19)
(0.883948 0.275691 -8.19397e-21)
(0.893656 0.398272 7.85563e-19)
(0.839739 0.45925 2.02201e-19)
(0.851601 0.424563 -2.51597e-19)
(0.79816 0.413543 2.69623e-19)
(0.783301 0.409707 1.84632e-19)
(0.778596 0.401386 -1.80397e-19)
(1.02526 -0.0127545 2.40088e-19)
(1.0221 -0.00773888 0)
(1.01952 -0.00592477 1.57998e-19)
(1.02401 -0.0106909 -3.57307e-19)
(1.02906 -0.000771794 1.72879e-19)
(1.02429 0.0111367 -3.66137e-19)
(1.02436 0.0143796 0)
(1.02184 0.0130857 -7.65816e-20)
(1.01761 0.00601087 1.90211e-19)
(1.01623 0.00985118 -9.67272e-20)
(1.02038 0.0105683 7.212e-20)
(-0.109429 1.60323 0)
(-0.184472 1.67371 0)
(-0.157039 1.49103 0)
(-0.0982424 1.52581 0)
(-0.331372 1.58246 -5.0813e-19)
(-0.287659 1.40238 1.66055e-19)
(-0.317888 1.85703 1.51293e-19)
(-0.362219 1.62933 -2.25473e-19)
(-0.271791 1.73507 5.27133e-20)
(-0.28672 1.72298 -4.09451e-20)
(-0.304604 1.55523 9.23648e-20)
(-0.286999 1.56068 1.79668e-19)
(-0.238183 1.58589 1.47938e-20)
(-0.234312 1.64189 5.67087e-21)
(-0.264694 2.27225 -2.83595e-21)
(-0.261593 2.38542 0)
(-0.315162 2.29661 -9.3795e-20)
(-0.371787 1.97697 -1.14672e-19)
(0.229794 2.22713 1.0902e-19)
(0.157401 2.62881 0)
(0.203855 2.55395 -5.30484e-20)
(0.303113 2.55385 3.66427e-20)
(0.00138311 2.29154 2.90291e-19)
(-0.154539 2.31137 -1.9135e-19)
(-0.12934 2.57173 0)
(-0.192357 1.92319 -2.67469e-20)
(-0.131116 1.9188 -1.09433e-19)
(-0.148553 1.8901 0)
(-0.13994 2.013 -3.86961e-21)
(-0.212022 2.01753 2.34667e-20)
(-0.0751383 1.76865 4.70396e-21)
(-0.0480081 1.77322 -6.97175e-20)
(-0.0455671 1.78658 1.98356e-20)
(-0.0758902 1.78905 2.36207e-20)
(-0.105985 1.78506 0)
(-0.0379736 1.78732 0)
(-0.0244134 1.78175 2.49529e-20)
(-0.0286536 1.79327 -7.86047e-21)
(-0.0309016 1.79073 0)
(-0.0230239 1.77149 1.86582e-20)
(-0.0207554 1.77111 -3.71344e-20)
(1.03368 0.0154344 0)
(1.03801 0.0166955 -2.35707e-20)
(1.03913 0.0195019 -1.69547e-19)
(1.03714 0.0203715 0)
(1.03671 0.0220026 0)
(1.04131 0.0100005 -5.65563e-21)
(1.03968 0.00862476 2.85154e-19)
(1.0377 0.0105095 3.42701e-19)
(1.03357 0.0094404 0)
(1.02796 0.00683377 0)
(1.03415 0.0166136 1.73013e-19)
(1.02647 0.0106361 0)
(1.0275 0.00857524 0)
(-0.0228045 1.82237 0)
(-0.0248568 1.80248 2.19572e-21)
(-0.0229873 1.81444 1.23905e-20)
(-0.0277151 1.79579 0)
(-0.0263563 1.80432 1.57292e-20)
(-0.0262529 1.80108 -7.61669e-21)
(-0.028205 1.79656 0)
(0.440013 1.67043 0)
(0.540464 1.3426 7.1668e-19)
(0.495883 1.36375 0)
(0.522388 1.36323 -9.18014e-19)
(0.519058 1.3883 0)
(0.53476 1.38064 4.07031e-19)
(1.01902 2.70737 -3.89824e-21)
(0.939663 2.39158 -2.42839e-19)
(0.86468 2.12817 2.97258e-19)
(0.841608 2.32271 1.13684e-19)
(0.831042 2.51121 0)
(0.881878 2.52112 0)
(0.891418 2.34763 0)
(0.895509 2.30535 -4.18343e-19)
(0.718497 2.47614 -7.38733e-20)
(0.798729 2.48375 -2.57011e-20)
(0.791088 2.45988 2.04225e-20)
(0.693544 2.34379 0)
(0.784764 2.33054 0)
(0.750433 2.34221 -2.27192e-19)
(0.762581 2.47557 0)
(0.603422 1.07491 0)
(0.477703 0.924462 -1.13468e-20)
(0.523053 0.955367 -1.53394e-21)
(0.519447 1.04348 0)
(0.512834 0.998038 2.10961e-20)
(0.728759 0.876714 1.41367e-20)
(0.762895 1.00884 0)
(0.732061 0.971039 -6.26008e-20)
(0.608933 1.01336 0)
(0.606039 0.935128 0)
(1.15596 2.79018 5.59987e-20)
(1.13936 2.85303 1.33299e-19)
(0.938719 2.38917 -2.98551e-19)
(0.909548 2.36065 4.0629e-20)
(1.11562 2.76097 0)
(1.0621 2.7333 -4.83702e-20)
(1.06898 2.49441 -7.06853e-20)
(0.951577 2.21647 -2.78764e-20)
(0.469338 1.40353 0)
(0.481013 1.04845 9.03714e-20)
(0.54987 1.13282 0)
(0.846204 0.217767 0)
(0.813298 0.165289 0)
(0.773891 0.183749 0)
(0.831589 0.227819 -3.17411e-19)
(0.781931 0.231812 1.96282e-19)
(0.934904 0.0530828 -1.75946e-19)
(0.940878 0.101209 0)
(0.926416 0.108481 8.09884e-20)
(0.889413 0.0817062 3.32274e-19)
(0.88607 0.0535634 -2.0471e-19)
(1.16229 3.37274 -9.81671e-19)
(1.20926 3.29241 0)
(1.16255 3.40056 -1.94882e-18)
(0.649017 3.56298 1.66913e-18)
(0.872698 3.13334 3.86786e-19)
(0.479574 0.874902 2.17536e-19)
(0.424909 0.86031 0)
(0.343613 0.562211 -8.10174e-20)
(0.407447 0.69028 3.71892e-19)
(0.519642 0.540841 -1.10852e-19)
(0.501966 0.565375 1.24756e-19)
(0.624262 0.553156 2.68439e-19)
(0.641903 0.564354 0)
(0.599333 0.630492 0)
(0.562316 0.567105 0)
(0.912946 0.580079 -4.99689e-20)
(0.84197 0.514015 -1.95511e-19)
(0.863239 0.551977 9.68704e-20)
(0.909291 0.485193 -1.41497e-19)
(1.00555 0.462723 0)
(1.02296 0.542056 -8.16411e-21)
(0.835546 0.364962 -4.02194e-19)
(0.839234 0.3523 -4.59535e-19)
(0.81034 0.363489 3.15295e-19)
(0.78898 0.341399 -3.57479e-19)
(0.829038 0.297306 -2.65552e-19)
(0.787466 0.303405 3.2666e-19)
(1.03458 -0.000579896 -1.81744e-19)
(1.03718 -0.000451702 3.70874e-19)
(1.02819 -0.00958041 2.25314e-19)
(1.03254 -0.00865022 -2.70684e-19)
(1.03675 0.00758125 0)
(1.03796 0.00792599 -4.488e-19)
(-0.352769 1.95071 2.85616e-20)
(-0.329593 1.87501 0)
(-0.389515 1.96736 -3.4175e-19)
(-0.379078 1.96018 3.53836e-19)
(-0.349307 1.85366 -2.622e-19)
(-0.374563 1.87141 0)
(-0.0470009 1.82042 0)
(-0.0364359 1.80021 -8.4659e-21)
(-0.0306565 1.80027 7.6795e-21)
(-0.0290336 1.80541 2.52726e-21)
(-0.0295041 1.82223 -1.61008e-20)
(-0.0346911 1.82375 9.49066e-21)
(0.468688 1.42731 3.52133e-19)
(0.450512 1.42349 -3.77278e-19)
(0.494381 1.34291 4.40048e-19)
(0.472982 1.36824 -2.0686e-20)
(0.630904 1.28408 0)
(0.554769 1.38752 5.2014e-19)
(0.584173 1.36666 -5.18028e-19)
(0.505299 1.31248 -4.16516e-19)
(0.50823 1.26878 0)
(0.539289 1.19261 0)
(0.712456 2.44636 1.06477e-19)
(0.713871 2.458 6.27672e-19)
(0.742978 2.45996 -4.1119e-19)
(0.684374 2.45293 -1.2092e-19)
(0.639673 2.59583 1.03134e-19)
(0.567652 2.58513 -3.15123e-19)
(0.951297 2.36057 -1.61461e-19)
(0.990709 2.39176 0)
(0.876174 2.1203 -2.14274e-19)
(1.03282 2.71722 0)
(1.02711 2.70148 0)
(0.612906 2.29327 2.3874e-19)
(1.04232 3.17659 4.78889e-19)
(0.913571 3.04865 -4.28415e-19)
(0.288692 0.98247 0)
(0.33773 0.84941 -1.47559e-19)
(0.477192 0.790981 -6.76095e-20)
(0.403205 2.0594 0)
(0.470377 2.79718 -2.69658e-19)
(0.432007 2.56678 0)
(0.633217 0.687816 -3.1148e-19)
(0.711714 0.668872 4.03905e-19)
(0.730469 0.613213 -3.95381e-19)
(0.614851 0.645707 -4.65572e-20)
(0.672838 0.60382 -1.91982e-19)
(1.00341 2.78224 -3.64078e-19)
(1.04144 2.83893 2.82547e-19)
(0.647542 2.19798 6.31313e-20)
(0.591317 1.73255 -7.56454e-20)
(0.719545 1.91671 9.04723e-20)
(0.98781 2.45938 -6.73703e-20)
(1.00216 2.46309 -1.63746e-19)
(0.667914 1.88523 -4.56446e-21)
(0.463759 1.33862 -7.14363e-20)
)
;

boundaryField
{
    wall-4
    {
        type            noSlip;
    }
    velocity-inlet-5
    {
        type            fixedValue;
        value           uniform (1 0 0);
    }
    velocity-inlet-6
    {
        type            fixedValue;
        value           uniform (0 3 0);
    }
    pressure-outlet-7
    {
        type            zeroGradient;
    }
    wall-8
    {
        type            noSlip;
    }
    frontAndBackPlanes
    {
        type            empty;
    }
}


// ************************************************************************* //
