/*--------------------------------*- C++ -*----------------------------------*\
  =========                 |
  \\      /  F ield         | OpenFOAM: The Open Source CFD Toolbox
   \\    /   O peration     | Website:  https://openfoam.org
    \\  /    A nd           | Version:  9
     \\/     M anipulation  |
\*---------------------------------------------------------------------------*/
FoamFile
{
    format      ascii;
    class       volScalarField;
    location    "40";
    object      p;
}
// * * * * * * * * * * * * * * * * * * * * * * * * * * * * * * * * * * * * * //

dimensions      [0 2 -2 0 0 0 0];

internalField   nonuniform List<scalar> 
918
(
0.581282
1.23224
0.00968664
0.580636
-0.0067281
1.19928
-0.473589
0.74028
0.561435
-0.0685607
-0.00543645
0.55708
1.05994
0.827084
-1.10033
0.0110883
0.690172
-0.35387
0.56047
0.00493001
0.77685
0.568015
0.571046
0.561631
0.625351
0.806256
0.941027
0.0196125
0.00197611
-0.000201744
-0.00992829
-0.030354
-0.0215067
1.08292
1.13402
1.15671
0.529674
0.355834
-0.337189
-0.405513
-0.399088
-0.511335
0.73336
0.733851
-0.152329
0.742401
0.750432
0.548605
0.560796
0.561694
0.562774
0.561728
0.563121
0.439389
-0.0732326
-0.104854
-0.0491552
-0.0402801
0.0869824
-0.00404077
-0.00594645
-0.00300458
-0.00779068
0.480399
0.552719
0.549879
0.562132
0.570833
1.17179
1.14369
1.16984
1.08358
1.10005
1.0379
1.01055
0.846908
0.868667
0.813682
0.801166
-1.53839
-2.50083
-0.504388
-0.250151
-0.00900317
0.0185703
0.0247423
0.681741
0.68001
0.691639
0.702939
1.10956
-0.350473
-0.46627
0.560596
0.559393
0.567778
0.568473
0.564487
0.563581
0.00435998
0.0024609
0.00220022
0.00369724
-0.000889845
0.766064
0.763805
0.56217
0.559188
0.57794
0.598868
0.590685
0.310558
0.629035
0.641498
0.630309
0.796134
0.790799
0.799226
0.914511
0.878623
0.97807
1.00116
0.0160443
0.00475043
0.00330639
-0.00965924
0.00214457
0.525603
0.51833
0.544663
0.53303
0.535479
0.271683
0.136799
0.441227
0.466214
-0.250416
-0.31055
-0.407305
-0.42761
-0.539487
0.62755
0.723768
0.722576
-0.171356
-0.0959151
-0.226353
-0.0231945
-0.0830552
0.539003
0.545909
0.540958
0.55638
0.550876
0.552827
0.56504
0.562116
0.563674
0.502278
0.626104
0.365129
0.330128
-0.213367
-0.123078
-0.215698
-0.0270124
-0.022399
0.102993
0.127881
0.0753188
0.0679554
-0.0153479
-0.00960762
-0.0110646
-0.00829536
-0.00550996
0.47347
0.462713
0.492716
0.500063
0.542859
0.544026
0.54732
0.545804
0.961219
0.983573
0.991242
0.964999
-3.50224
-6.30605
0.079008
0.217557
0.00258557
-0.0007892
0.00543318
-0.003765
0.000442522
-0.00511277
0.0342991
0.0355357
0.0275005
0.0391751
0.667956
0.667611
1.02884
1.02999
1.01013
0.960649
0.548687
0.55081
0.556354
0.55221
-0.00343955
0.000484317
-0.00100678
0.75144
0.75958
0.757602
0.273501
0.186411
0.359694
0.387692
0.657425
0.645048
0.655517
0.691486
0.729243
1.00857
1.02689
1.02506
1.03352
1.07751
1.09388
1.05931
0.505657
0.5153
0.510425
0.54786
0.545563
0.546509
0.542045
0.543506
0.541328
-0.0151583
-0.398836
0.515368
0.533747
0.514846
0.520752
0.707547
0.78506
0.704427
0.714593
0.712443
0.042516
-0.0145435
0.286366
0.252827
0.414854
0.450293
0.429768
0.932502
0.892919
0.943009
0.916218
0.877512
0.903126
-0.35043
-1.86391
-0.975272
0.572444
0.383756
0.472416
0.0518798
0.0283249
0.0362223
1.02363
1.10066
0.682014
0.850881
0.85797
0.765626
0.795564
0.852548
0.779923
0.813375
0.84651
0.825715
0.583941
0.527488
0.538568
0.855299
0.911866
0.159465
0.103519
0.0587318
0.146748
0.205692
0.178449
1.06325
0.967986
1.03994
0.558939
0.559638
0.0157747
0.0197315
0.563803
0.563847
-0.000597308
0.00285871
0.454738
-0.81004
0.146135
0.552281
0.542474
0.559444
-0.052234
0.39381
-0.00303842
0.0877446
0.032536
0.55516
0.490917
0.451499
0.0213053
0.00373683
0.00306869
-0.179356
0.55661
0.554921
0.558908
0.559882
0.560546
0.00849689
0.0129975
0.011204
0.00566937
0.0095241
0.00706813
0.523915
0.541627
-0.134609
0.559048
0.561172
0.560991
0.554181
0.559848
0.558074
0.00938132
-0.00546194
-0.0102752
0.257453
0.381132
0.700685
0.79386
0.668507
0.441281
0.202788
0.600512
0.665768
0.568818
0.726289
0.717146
0.735604
0.211088
0.062406
0.218608
0.159577
0.55015
0.548828
0.540743
0.537808
0.554298
0.552413
0.556968
0.553971
0.55692
0.558314
-0.0106744
-0.0337221
-0.0487187
-0.112625
0.350277
0.611279
0.289295
0.319644
0.180781
-0.0017922
-0.00304018
-0.00242068
-0.00783947
0.0374467
0.0172958
0.0807193
0.0833804
0.0500187
0.0234298
0.029416
0.0196675
0.0198031
0.54845
0.546649
0.553114
0.561668
0.500224
0.504007
0.469998
0.490033
0.475732
0.416526
0.450791
0.426311
0.015757
0.0272947
0.0104121
0.0108806
0.0164827
0.0104101
0.0130715
0.0107352
0.0142801
0.00840303
0.00335993
0.00154171
-0.138232
-0.251809
1.01551
0.949418
0.160223
0.545804
0.552224
0.54901
0.553812
0.556943
0.557786
0.555531
0.552099
0.542139
0.543846
0.540371
0.541073
-0.0720714
-0.208792
-0.0357408
-0.104857
0.165614
0.649187
0.393107
0.332562
0.327068
0.54959
0.956562
0.749924
0.738568
0.759586
-0.314599
0.0820044
-0.247631
0.371997
0.194108
0.698422
0.747952
0.770026
0.717822
0.669897
-0.0852287
0.577401
-0.0276163
0.019493
0.214587
0.102252
0.739892
0.700866
0.705923
0.724337
0.74349
0.706695
0.688603
0.683838
0.720162
0.723766
0.52679
0.289052
0.242414
0.203733
0.682647
0.566057
0.622224
0.533488
0.545155
0.547895
0.546494
0.528669
0.536078
0.531751
0.537737
0.541042
0.55002
0.550392
0.545792
0.547965
-0.0152807
-0.0182311
0.00478945
-0.102493
-0.0934042
-0.152544
-0.0318605
0.109582
0.0720552
0.26765
0.372886
0.0852792
-0.030176
-0.000812663
0.0342441
0.211722
0.236913
0.111922
0.20031
0.188086
0.172946
0.273799
0.279509
0.0117716
0.00701339
0.00750131
0.00389024
0.0579771
0.129439
0.139253
0.0301302
0.0253849
-0.00288542
-0.00571999
0.0142625
0.0111139
0.0130429
0.0521458
-0.0285822
0.00848988
0.0256622
0.0312612
0.0294148
0.0227279
0.541093
0.543118
0.542876
0.550835
0.567852
0.583544
0.541819
0.521916
0.512915
0.515882
0.489569
0.499627
0.495372
0.508969
0.529075
0.538112
0.53592
0.538545
0.521561
0.523108
0.51001
0.513772
0.48948
0.471189
0.45969
-0.0120046
0.0328488
0.0307377
-0.0120976
0.0180397
-0.000224336
0.0246162
0.0423477
0.0265247
0.0218468
0.0153246
0.0135885
0.0149755
-0.0442234
0.0378055
-0.153348
-0.186508
-0.255105
0.920147
1.04005
0.842559
0.618367
0.633086
0.871831
0.958547
0.580269
0.766411
0.790068
0.60125
0.871114
0.550605
0.550213
0.547815
0.547294
0.548529
0.0176654
0.118847
0.12692
0.182179
0.297015
0.410254
0.333073
0.211571
0.344472
0.348241
0.644356
0.658486
0.610708
0.632983
0.632665
0.457212
0.53522
0.588676
0.543092
0.591055
0.612993
0.572493
0.603163
0.550467
0.506454
0.503691
0.452054
0.47406
0.451117
0.432578
0.540251
0.51822
0.528321
0.519071
0.538493
0.562442
0.559103
0.590123
0.601371
0.522827
0.48069
0.490683
0.519354
0.48073
0.495004
0.51065
0.247202
0.14611
0.231868
-0.0582153
0.0218186
0.00692198
-0.0401706
0.00541409
0.290999
-0.405781
-0.379242
-1.01169
0.517224
0.986607
0.692446
0.665189
0.73993
0.718667
0.72266
0.745629
0.75153
0.673184
0.691163
0.694594
0.65403
0.677839
0.700926
0.698266
0.54924
0.420644
0.413921
0.370539
0.242991
0.27831
0.480841
0.4027
0.328147
0.330845
0.493436
0.380825
0.447752
0.486626
0.418378
0.373084
0.578032
0.643038
0.632706
0.607122
0.525597
0.54
0.564692
0.600538
0.627363
0.659512
0.537447
0.543264
0.544523
0.54205
0.539256
0.542186
0.542317
0.544851
0.545651
0.548581
0.547581
-0.00289081
0.00803622
-0.0049862
-0.0115171
0.0171554
0.0125148
0.0567219
0.0422013
0.0276765
0.0348966
0.008365
0.00347483
0.00974178
0.01866
0.133242
0.146397
0.130164
0.0905576
0.280543
0.411202
0.481857
0.359831
0.252403
0.275757
0.298926
0.0230728
0.0508333
0.0362688
0.0782791
0.0698663
0.00586386
0.00135251
0.00434873
0.0078348
0.0196963
0.000509874
0.00329333
0.00837013
0.00232947
-0.00127397
-0.000724959
0.524108
0.517641
0.519079
0.513047
0.511863
0.52587
0.5301
0.531921
0.537247
0.539282
0.529757
0.535247
0.538848
0.0247438
0.0069077
-0.00206464
0.0132826
0.0130757
0.014386
0.0102672
0.146274
0.0775926
0.083041
0.0357846
-0.0922945
-0.0350219
0.508603
0.505486
0.500772
0.73974
0.590168
0.508341
0.603507
0.709738
0.296186
0.495356
0.328483
0.911043
0.804087
0.950439
0.566205
0.261814
0.417839
0.468611
0.275933
0.348267
0.353547
0.241274
0.273
0.305764
0.407225
0.283585
0.258104
0.0157218
0.203332
0.320586
0.301456
0.429896
0.492014
0.280562
0.200553
0.156443
0.635801
0.654558
0.673184
0.643931
0.66787
0.600003
0.588725
0.606497
0.615359
0.611691
-0.739488
-0.447062
-1.39105
-0.705496
-0.255138
0.547734
0.510635
0.790327
0.675369
0.738036
0.722464
0.680132
0.645824
0.660723
0.691904
0.386799
0.498446
0.472894
0.47816
0.37852
0.310851
0.612906
0.606757
0.642818
0.666897
0.633839
0.666689
0.535236
0.534862
0.5345
0.530894
0.529149
0.531371
0.0942302
0.0633385
0.0980538
0.0784944
0.0567092
0.0452983
0.0276103
0.0194024
0.0143851
0.0145475
0.0261032
0.0291013
0.18715
0.129063
0.0532512
0.0828292
0.0215477
-0.0444145
-0.0631017
0.0387626
0.131433
0.121648
0.428449
0.680452
0.501327
0.67086
0.510153
0.566128
0.49149
0.48459
0.511221
0.398712
0.478505
0.248618
-0.256438
-0.164435
0.805615
0.823069
0.605371
0.420609
0.191004
0.3791
0.574535
0.509492
0.548114
0.617175
0.608211
0.032214
0.0980443
0.360609
0.587926
0.252554
0.245015
0.239378
0.414542
0.33818
)
;

boundaryField
{
    wall-4
    {
        type            zeroGradient;
    }
    velocity-inlet-5
    {
        type            zeroGradient;
    }
    velocity-inlet-6
    {
        type            zeroGradient;
    }
    pressure-outlet-7
    {
        type            fixedValue;
        value           uniform 0;
    }
    wall-8
    {
        type            zeroGradient;
    }
    frontAndBackPlanes
    {
        type            empty;
    }
}


// ************************************************************************* //
