/*--------------------------------*- C++ -*----------------------------------*\
  =========                 |
  \\      /  F ield         | OpenFOAM: The Open Source CFD Toolbox
   \\    /   O peration     | Website:  https://openfoam.org
    \\  /    A nd           | Version:  9
     \\/     M anipulation  |
\*---------------------------------------------------------------------------*/
FoamFile
{
    format      ascii;
    class       surfaceScalarField;
    location    "40";
    object      phi;
}
// * * * * * * * * * * * * * * * * * * * * * * * * * * * * * * * * * * * * * //

dimensions      [0 3 -1 0 0 0 0];

internalField   nonuniform List<scalar> 
1300
(
3.75095
5.62643
-3.05897
3.75095
-7.57506
5.62643
-4.40553
4.40553
-0.852174
0.852174
1.87641
1.87454
-2.89362
2.89362
-2.33491
2.33491
-2.55218
2.55218
-5.24647
5.24647
-5.0687
5.0687
4.66644
-4.66644
-6.17076
6.17076
-1.19402
1.19402
-3.78655
3.78655
3.16974
-3.16974
-2.29312
2.29312
-0.216131
0.216131
-0.553505
4.30446
3.19745
3.19745
-2.02721
2.02721
-4.86479
4.86479
6.21817
-6.21817
4.96187
-4.96187
-1.9029
-2.1999
1.77684
-11.5413
-5.79822
-5.79822
-8.4404
8.4404
-2.81397
2.81246
2.94431
-2.94431
-1.78085
1.78085
-4.33964
-0.0658956
-4.33964
4.4029
0.00263154
4.4029
-0.942401
0.0902268
-0.942401
3.88437
-3.88437
0.727006
0.125168
0.727006
3.06497
-3.06497
-1.87708
3.75349
1.87387
-1.87186
6.17632
-1.87909
3.75363
-5.98385
5.98385
-3.10597
0.212352
-3.10597
2.71597
0.177648
2.71597
-6.80556
6.80556
-2.4209
0.0859837
-2.4209
2.2765
0.0584165
2.2765
2.87108
-2.87108
-2.65491
0.102722
-2.65491
2.43864
0.113544
2.43864
0.353541
5.27289
-5.97997
8.79244
-5.27289
0.0264213
5.20843
0.0380419
5.20843
-5.10595
0.0372506
-5.10595
5.01144
0.0572579
5.01144
4.75702
-0.0905767
4.75702
-4.7813
0.114857
-4.7813
-3.59374
-4.09355
-6.34613
0.175379
-6.34613
-1.20333
0.00931193
-1.20333
1.14843
0.0455855
1.14843
-3.63761
3.63761
-4.1822
0.395654
-4.1822
3.12418
0.0455587
3.12418
1.8685
1.88245
5.61946
-5.61946
2.44972
-2.26388
-0.0292423
-2.26388
-2.27612
-2.68576
2.27612
0.017007
-0.463986
0.247856
-0.463986
3.15933
0.0381215
3.15933
2.28133
0.157312
-2.28133
0.25412
3.23894
-3.23894
1.36344
0.663764
1.36344
-5.56609
5.56609
4.95399
0.0574479
-4.95399
0.0892041
6.15666
0.0615078
6.15666
-6.19952
-0.0186536
-6.19952
2.72371
-4.92361
-2.4622
5.97997
0.190786
-5.97997
0.181746
2.91488
0.02943
2.91488
-2.92038
2.92038
-2.98358
0.0392722
-2.98358
-2.18295
0.4021
-2.18295
1.47844
0.302406
1.47844
-4.2047
-0.134937
-4.2047
-4.32056
0.138354
4.32056
0.082344
1.09838
-1.09838
-1.04914
0.10674
-1.04914
-4.03327
-0.171426
4.03327
-0.148904
-3.76743
-0.116942
-3.76743
-3.02378
0.0402023
3.02378
0.0411902
3.11267
0.0466565
-3.11267
0.0476984
-1.87082
3.75328
-1.88013
3.754
-5.60103
-0.382812
-5.60103
6.29494
-0.311098
6.29494
3.46257
0.32398
-3.46257
0.356601
2.58155
0.134421
2.58155
-6.77256
-0.0330074
-6.77256
6.78304
0.0225255
6.78304
2.49287
0.088677
-2.49287
0.0719725
2.2477
0.0288009
2.2477
2.88679
-0.0157065
2.88679
-2.86829
-0.00278455
-2.86829
2.79874
-2.79874
2.73028
0.0684594
-2.73028
0.0753738
-11.133
11.1144
-0.0352542
-11.0978
5.17317
5.17317
4.18677
0.570249
4.18677
-4.99596
0.214664
-4.99596
3.00704
-5.46924
3.10702
-6.70076
4.70812
-16.2494
4.31668
-8.41023
6.62644
-6.62644
6.49619
0.130248
-6.49619
0.150054
-1.25118
0.0478487
-1.25118
-3.03194
-0.605671
-3.03194
4.28849
-0.650884
4.28849
-3.02874
3.02874
-3.07783
0.049088
3.07783
0.0463511
2.25165
-0.00394997
-2.25165
-0.012236
0.599155
0.127852
-0.599155
0.135169
3.43244
-0.1935
3.43244
-3.05066
-0.188273
-3.05066
-1.30348
0.0522986
1.30348
0.0599683
-5.81574
0.249643
-5.81574
-11.1907
0.092945
-11.1527
-6.10657
-6.10657
2.33383
11.1263
-2.88861
0.0203168
2.88861
0.0262664
2.97571
0.0530299
-2.97571
0.0553322
-2.86186
0.0631203
2.86186
0.0585185
-2.56056
0.377606
-2.56056
-1.06629
1.06629
-1.24012
0.173824
1.24012
0.238328
1.36084
-0.262457
1.36084
1.11164
0.0367911
-1.11164
0.0624996
-3.67936
-0.0880641
-3.67936
6.52805
-0.233103
6.52805
-2.94348
-0.107179
2.94348
-0.0566992
-0.0333068
11.1477
-5.13986
0.0339174
5.13986
-11.2092
11.2431
-3.23413
0.673575
3.23413
0.952639
5.28707
0.279022
-5.28707
0.291107
6.71791
0.0651277
-6.71791
0.0914732
-2.5416
-0.490339
-2.5416
-5.01713
-0.583904
5.01713
-0.728635
-11.4755
-0.202997
11.6785
-11.4183
6.01873
0.137927
-6.01873
11.381
-1.01034
-0.0880436
1.01034
0.0559558
1.68442
-0.323586
1.68442
3.60151
-0.16907
-3.60151
-0.0778572
-6.68096
-0.091599
6.68096
-0.15291
-2.09885
-0.442748
2.09885
-0.414431
-4.26701
4.30513
1.90931
-2.52735
-2.39626
-5.2131
1.8519
1.90138
4.30162
-10.1796
-6.06978
-9.99789
7.26499
-6.97389
-9.26739
9.17681
7.68809
-7.80503
-5.78522
5.83157
6.48241
-6.44121
1.87878
1.87472
7.92183
-7.70948
-15.6507
15.2679
7.48032
-7.39434
15.8296
-15.8627
-17.9105
17.9756
-5.7097
5.81242
-6.7274
6.72461
-6.95175
6.89505
-3.08554
-3.61522
13.1719
-12.9965
8.38069
-8.40993
-8.53959
8.93524
3.38248
0.922656
3.42913
-1.88224
3.76102
-1.87139
3.7807
2.67704
-5.76258
2.7922
-5.18846
4.1064
4.27429
-4.12341
-1.0897
-5.92084
5.95027
-5.81959
5.87811
8.98685
-9.05275
-1.88517
3.75989
-1.86883
3.77021
-3.42507
-2.36014
3.37951
0.922105
8.09392
5.07796
-8.2847
-1.71319
-7.94252
7.77345
-8.18703
7.99876
-0.439601
5.81958
-5.37998
4.42519
-1.5579
7.37748
5.70709
5.92175
5.86637
-5.58735
1.10752
-6.4875
-6.39829
-2.48236
2.5891
2.42632
-2.30115
6.00991
1.67818
5.86101
-5.64339
-2.16165
-5.73145
3.82101
2.01055
3.8701
4.07731
2.40509
4.11751
3.03082
-3.03572
0.00489055
-3.05634
6.08717
0.724173
-5.41649
-4.49438
4.95381
2.96802
5.13146
-5.49782
-2.21166
-5.14121
-9.55088
-6.0998
-10.1348
10.1104
5.15751
9.79927
-11.9948
11.8419
4.7725
2.70782
4.83092
-4.89685
-2.49749
-4.82488
11.6419
-2.61291
-9.02903
-10.3547
-7.55575
10.3322
5.49746
10.9976
6.978
11.0891
4.4388
7.20315
-9.93626
2.38051
-3.86513
-1.84457
-3.78976
3.68136
2.13106
3.7949
-4.21369
-2.51371
-4.19337
-4.28891
-2.66284
4.30462
2.42
-4.40389
-3.78315
4.51107
2.38399
4.06289
-10.1327
4.34735
-7.96257
-9.23876
-3.75774
-9.0887
3.52684
2.57804
-6.10488
-2.23573
8.51389
-4.23961
7.4242
-5.08896
-3.32096
-5.1012
-6.82038
-1.71921
-6.68203
-8.88124
8.3909
-9.18584
8.53496
12.6039
-5.67839
-6.92551
-3.96825
-2.47297
3.92055
-0.491417
-3.71096
3.71585
0.0500593
3.83076
4.75341
4.262
-3.88651
-1.93308
-3.83118
3.83056
2.04755
3.89368
6.77045
2.2164
6.77308
-6.47548
-2.57727
-6.61042
9.07295
-8.67085
2.89804
-2.84574
5.34042
2.65834
-5.14692
-2.79561
6.1972
-3.17606
-3.02114
-12.2052
10.553
1.65223
-4.82774
-0.402554
-0.186424
-5.49749
-3.76989
5.38263
0.53912
11.0921
7.32222
-5.51213
5.76177
6.16642
6.22387
-0.174426
5.83307
-5.15949
5.32768
-2.48266
-2.84502
5.33735
-5.50878
-1.27306
-5.38963
4.11657
0.352229
1.69014
-1.44228
-1.93661
-0.545749
-1.87411
1.45713
0.969189
1.58498
0.941379
1.64772
-2.95319
0.563198
2.39
-2.01181
-1.73795
-3.70507
-1.09663
4.8017
5.64164
2.13181
-5.56378
-0.16767
2.62818
-2.5826
-0.732971
-2.9721
2.18019
-2.91316
-3.68868
-1.914
5.60268
-3.37054
-0.460645
3.31751
0.552596
-3.82595
-2.09489
3.78668
0.330833
-3.12576
6.19047
-3.06471
-5.05884
2.5284
3.55877
4.53895
-4.78988
2.4467
2.34318
-1.23111
4.23557
0.895893
4.36999
-6.81633
4.60467
5.76082
3.17442
-6.0848
0.943585
-5.87275
8.48377
-7.30907
-1.1747
4.08494
4.39884
7.11819
5.48571
-5.70018
12.8184
-1.16725
-6.14182
7.04
-3.86557
4.79846
-8.66403
-10.2842
4.14235
-9.17266
10.9618
-1.78916
-3.63457
-8.36023
12.8072
-1.20593
-11.6013
8.59333
-4.15713
-4.26383
8.42095
-6.77004
6.76132
-1.94574
-4.81558
-10.1407
-5.72197
10.2323
1.60961
-9.8584
12.2389
-2.65525
4.09494
0.735977
4.12374
3.23108
-5.41065
2.17957
3.53896
-5.4847
2.0543
-7.46495
-6.78593
12.1524
-5.36649
-10.5437
-9.57684
-0.966829
2.53281
9.7061
-9.51081
7.44623
2.06458
3.30806
0.585626
-3.37652
-0.41324
0.248004
4.53387
-4.78188
4.04291
4.20022
3.33084
1.20303
3.84173
2.10854
-3.86799
-0.325382
-4.1548
1.49196
-1.73481
-3.67832
5.17028
-4.06543
0.387106
-2.73944
-3.50765
6.24709
-4.58401
3.03881
3.15166
5.08635
-4.9127
1.40505
-2.39873
-2.51397
2.66038
-4.39519
1.97706
3.19322
4.36105
0.577903
5.94362
6.2088
-8.52166
0.559092
11.2868
-9.57357
2.48627
8.6028
-9.9325
0.355657
-8.73305
0.982434
-5.22204
-5.12245
5.12481
-6.84402
-3.53922
6.16424
0.60884
-6.24658
-0.435447
-6.03296
-2.84828
-6.47571
-3.05222
-6.13362
-8.7524
-1.65161
-7.10079
6.73929
-6.68395
-3.45084
7.41259
1.12237
-7.41413
7.32609
-7.48884
7.16526
0.0949593
3.62089
4.35696
1.88399
-2.38978
4.27377
-5.10833
7.32474
-8.62109
3.51276
4.07441
-6.65168
-4.54668
5.03602
4.03693
5.33842
8.93051
-10.4429
1.51242
-10.7377
12.0589
-1.32125
-16.5154
5.7777
-7.58486
2.57701
0.321028
2.62486
0.6033
2.48712
-3.09042
-2.24244
-2.18247
-2.37551
-3.46186
5.83737
1.15375
-3.46205
2.30829
-3.53625
4.69001
-0.120316
-3.34173
5.30435
-2.81723
5.62538
-3.65657
1.9688
3.37997
5.71724
-2.33728
4.39287
-1.73452
1.8646
-4.20188
-1.59726
-2.96696
5.09802
-3.28014
3.66724
-0.316145
3.98339
-4.07741
0.901354
-0.746571
3.45365
3.70777
4.28745
-3.08442
2.93557
-4.67009
-1.26631
-4.09219
-0.898967
-0.297581
-3.75005
4.04763
6.0327
-6.33028
-5.25836
9.56575
-4.30739
7.71854
-5.40133
-2.3172
-4.2715
-4.39935
3.89389
1.93917
9.65771
0.210444
-5.61178
-4.94905
-3.99641
3.19905
2.12863
-1.90304
3.55527
2.08947
-0.399327
0.526326
1.05865
1.84175
-1.31543
0.248462
1.59329
-1.19382
1.91521
0.712973
-1.952
0.0778841
-1.33395
3.51414
1.05604
-2.02523
0.709805
1.03297
-3.51563
4.90127
-2.55074
-2.35053
5.93424
1.15877
-3.7095
4.23086
-3.87863
2.34295
-3.43958
-1.36656
-5.24519
-3.56701
-2.56724
4.87554
-3.27013
5.40195
1.18685
-5.23428
6.42113
-3.62156
1.70757
-3.08882
3.80179
-1.06844
-2.02038
2.86045
2.74223
-2.97698
0.00487751
-0.116523
2.35517
-2.47169
-0.557989
-2.5698
-4.57214
4.90297
-2.10672
4.55342
2.16704
-1.91524
6.46866
1.81067
-3.72591
-3.24817
-3.70882
-1.38273
3.15622
-0.581136
-4.24374
-5.39671
4.15506
0.214926
-6.91397
7.7163
-0.802327
-3.94595
-0.658716
4.74365
-5.95752
0.472822
-3.90323
3.81307
4.70896
4.92389
-11.3858
-0.215488
-6.22831
1.12943
-7.35774
5.52827
-3.57006
7.71241
-10.3707
6.91984
-9.2483
6.53771
-0.820034
6.25094
-4.07137
2.77809
-8.50007
-6.89046
5.41066
-2.70284
6.14663
-3.06287
9.2095
-5.71812
5.16953
4.03997
-0.987206
-4.11399
-5.17533
4.18812
-0.0058022
4.11794
4.97548
-2.86694
4.6501
2.2588
-4.65753
-2.13639
-6.49677
1.83924
-3.3451
-1.91734
3.75658
3.16901
3.75464
1.24262
-3.3414
7.21836
-8.18519
-1.85187
-3.27057
5.16715
-0.979029
3.37586
-6.64643
-1.84619
4.8472
-0.811943
-4.03526
0.831187
-4.37041
1.66738
-6.03778
5.17664
-5.61209
2.21602
-9.80087
-5.19811
-5.14216
-2.25361
-5.23523
-7.6061
5.35249
-1.8284
5.49769
-8.57027
7.75833
-3.48863
8.84112
-5.42829
-1.04742
5.84272
1.32254
10.1637
0.166546
-4.71323
-1.88495
3.94176
-2.0568
1.3141
-3.5835
0.358255
2.48017
3.45408
-6.59673
-0.0549458
-4.76817
-3.92348
7.96041
5.64226
11.675
1.23204
9.15274
-1.19233
10.3848
4.1461
4.38443
-3.02024
4.53265
1.02739
4.54015
-0.858972
2.82778
1.76588
1.7752
0.8074
2.31605
1.39171
3.21741
0.126991
-2.05548
4.63575
-8.63216
-0.976027
-8.06191
1.1149
5.72392
-4.60902
3.09893
-0.9703
1.04212
0.0470158
-1.55544
1.50843
-2.798
-1.95477
-0.361478
-1.64449
2.3543
1.86965
-1.99282
-0.805185
0.354516
-3.92153
3.08506
-3.08019
-0.337956
6.08317
-2.77272
0.301032
-1.06516
-2.26877
-2.81452
2.73664
6.17681
0.291849
3.11211
5.19482
3.09993
0.232996
3.88556
-5.67471
-3.57939
-5.8902
-0.36193
4.38172
1.73941
7.96668
5.77939
4.80036
-1.84607
-10.0313
6.55224
-2.01958
5.23099
-1.19573
-4.84205
5.01328
2.31145
-5.62212
0.0100322
-4.83202
-6.85161
-0.526364
8.2847
-9.6373
8.58988
5.7416
1.35919
-4.41257
-0.729585
4.23875
0.145679
10.5305
-1.12625
-6.8066
7.93285
-4.59767
3.62164
0.820561
2.73471
2.32899
1.35869
-5.44791
-10.0569
-1.95937
-1.55626
-4.3099
0.491798
-2.36145
6.25011
-2.62847
3.93291
5.30438
6.34651
-2.15627
-4.174
6.46366
-2.53076
3.81575
)
;

boundaryField
{
    wall-4
    {
        type            calculated;
        value           uniform 0;
    }
    velocity-inlet-5
    {
        type            calculated;
        value           uniform -3.75095;
    }
    velocity-inlet-6
    {
        type            calculated;
        value           uniform -5.62643;
    }
    pressure-outlet-7
    {
        type            calculated;
        value           nonuniform List<scalar> 8(3.05897 7.57506 4.1028 9.76446 7.68729 5.18591 6.11407 9.02481);
    }
    wall-8
    {
        type            calculated;
        value           uniform 0;
    }
    frontAndBackPlanes
    {
        type            empty;
        value           nonuniform List<scalar> 0();
    }
}


// ************************************************************************* //
