/*--------------------------------*- C++ -*----------------------------------*\
  =========                 |
  \\      /  F ield         | OpenFOAM: The Open Source CFD Toolbox
   \\    /   O peration     | Website:  https://openfoam.org
    \\  /    A nd           | Version:  9
     \\/     M anipulation  |
\*---------------------------------------------------------------------------*/
FoamFile
{
    format      ascii;
    class       volVectorField;
    location    "40";
    object      U;
}
// * * * * * * * * * * * * * * * * * * * * * * * * * * * * * * * * * * * * * //

dimensions      [0 1 -1 0 0 0 0];

internalField   nonuniform List<vector> 
918
(
(0.985163 -0.000502275 0)
(0.005011 2.96625 0)
(0.00473964 0.815076 0)
(0.979703 0.00214789 0)
(-0.0223572 2.01914 2.66677e-20)
(-0.00704172 2.94879 -2.56979e-18)
(0.825553 1.16533 4.17007e-19)
(0.2795 0.131961 -1.6445e-20)
(0.999909 -0.000281134 0)
(0.0604761 0.812673 0)
(0.0181129 0.620682 0)
(0.734828 -0.0149112 0)
(0.0110913 2.93038 0)
(0.00241453 2.79484 0)
(-0.0175265 3.15628 7.5534e-19)
(-0.00794603 1.8654 -1.39105e-20)
(0.345662 0.0352676 1.07786e-18)
(0.190418 1.1759 2.88386e-19)
(0.962772 0.00501839 0)
(0.00263055 0.604547 0)
(0.062304 0.176743 -7.78869e-19)
(1.00198 -0.00498095 0)
(1.00022 -0.0097914 0)
(0.975727 -0.00644075 0)
(0.585509 -0.0372688 0)
(0.0157239 2.63926 0)
(-0.0149375 2.91004 9.52624e-19)
(0.000691942 0.883603 0)
(0.0129943 1.09392 0)
(-0.00125311 0.858793 0)
(-0.0204502 2.60356 0)
(-0.00356403 2.07812 -2.12807e-20)
(-0.0141248 1.83565 0)
(-0.0206165 2.9876 -9.26727e-23)
(-0.0166927 3.0053 1.99733e-18)
(0.00210211 3.00019 0)
(0.870718 -0.00939409 0)
(0.40384 0.937553 1.94467e-19)
(0.804371 1.18301 -4.4991e-19)
(0.950156 1.02095 5.00326e-19)
(0.675109 1.27613 -9.65716e-20)
(0.673225 1.26326 5.56277e-19)
(0.319931 0.212111 1.60435e-20)
(0.294195 0.102338 0)
(1.12605 0.548591 0)
(0.285449 0.204024 7.33183e-20)
(0.249442 0.134166 -7.60832e-20)
(0.919769 -0.00745473 0)
(1.00027 0.00015012 0)
(0.99991 0.000333157 0)
(1.00363 -0.00777019 0)
(1.00096 -0.000931825 0)
(1.00017 2.94117e-05 0)
(0.0780207 1.81168 -8.40493e-19)
(0.0276467 0.993485 0)
(0.0916553 0.876179 0)
(0.0124024 0.943211 0)
(0.0338691 0.755328 0)
(0.0217687 1.99831 0)
(0.0189589 0.827356 0)
(0.0140313 0.650022 0)
(0.0121645 0.806991 0)
(-0.000689726 0.598506 0)
(0.838209 -0.0157291 0)
(0.84742 0.0286731 0)
(0.767729 -0.00373845 0)
(0.81808 0.0388629 0)
(0.703054 -0.0186807 0)
(0.0146926 3.0004 9.54011e-19)
(0.0115083 3.00797 0)
(0.0061243 3.00279 0)
(0.0135367 2.99733 1.08462e-23)
(0.0079825 2.95848 -1.41789e-18)
(0.0144897 2.98207 0)
(0.0108259 2.90361 0)
(0.0246856 2.93078 2.20175e-24)
(0.00451976 2.82481 0)
(0.0304822 2.91622 0)
(-0.00549493 2.74491 0)
(0.308405 3.5531 0)
(-0.131865 3.63459 0)
(0.139712 3.24671 -7.0293e-19)
(-0.0124946 2.98202 0)
(-0.00425258 2.04991 0)
(-0.012407 2.14198 1.37192e-20)
(0.00257844 1.88372 -2.38536e-20)
(0.443586 0.143237 -3.72927e-19)
(0.344981 0.0190883 -3.59441e-19)
(0.425801 0.161273 -1.12315e-18)
(0.331374 0.0537259 -7.41171e-19)
(0.221872 0.959595 0)
(0.272689 1.32037 -3.5032e-19)
(0.372736 1.26125 5.87261e-19)
(0.987473 0.00855004 0)
(0.941935 0.00585377 0)
(1.0003 0.000578228 0)
(1.00286 0.0093059 0)
(1.00302 0.00845927 -2.86704e-18)
(0.991913 0.00970076 2.1651e-18)
(-0.0154339 0.80063 0)
(-0.00298526 0.600673 0)
(-0.00788537 0.916043 0)
(-0.00261949 0.800536 0)
(-0.0159055 0.59699 0)
(0.0991677 0.180809 2.40755e-19)
(0.156239 0.15756 0)
(0.993539 -0.00838121 0)
(0.954422 -0.00651721 0)
(0.767305 0.0460528 0)
(0.702988 0.0566781 0)
(0.663567 -0.030571 0)
(0.961146 -0.00917884 0)
(0.619231 0.076062 0)
(0.445873 -0.0119092 1.58665e-18)
(-0.0369351 2.86315 7.23299e-19)
(0.0419903 2.90916 0)
(0.0542931 2.88517 0)
(-0.00459093 2.69928 0)
(-0.0132726 2.98522 9.04803e-19)
(-0.0179825 2.8952 0)
(-0.01537 2.9881 -2.79969e-18)
(-0.0133721 2.92519 9.57373e-19)
(0.0413863 1.3281 0)
(0.0622817 1.38255 0)
(-0.00245981 2.10931 1.0186e-22)
(-0.00335966 2.06805 0)
(-0.0203291 1.84104 0)
(0.937996 -0.0076831 0)
(0.856373 -0.00962315 0)
(0.863387 0.00629284 0)
(0.949191 -0.00803144 0)
(0.883667 -0.00812876 0)
(0.516119 1.13141 -2.4485e-19)
(0.565647 1.18323 0)
(0.367551 0.881384 3.56657e-20)
(0.309765 0.740352 0)
(0.909956 1.05985 -1.3565e-19)
(1.01932 0.861749 2.68751e-19)
(0.366666 1.37128 0)
(0.53067 1.33874 0)
(0.543521 1.29247 0)
(0.115469 0.180105 -3.09458e-19)
(0.353429 0.2033 0)
(0.318796 0.0954571 2.09708e-19)
(0.990113 0.917387 0)
(1.05461 0.766637 0)
(1.07888 0.706867 -1.98854e-19)
(1.10712 0.60934 0)
(1.15475 0.393561 5.45174e-20)
(0.957517 -0.00881473 0)
(0.962393 -0.0101102 0)
(0.901503 -0.00800283 0)
(0.984172 -0.00917528 0)
(0.97465 -0.00938242 0)
(0.937059 -0.00635779 0)
(1.00019 0.002337 0)
(1.0009 0.00140072 0)
(0.999911 0.000855222 0)
(0.0345896 2.06515 4.63137e-19)
(0.121493 1.75452 0)
(0.0158301 2.18133 7.25831e-19)
(0.0518253 1.86592 -6.14905e-19)
(0.106336 1.18216 -2.3554e-19)
(0.0468063 1.06818 0)
(0.141546 1.02827 0)
(0.00691225 0.896572 0)
(0.0185145 0.709711 0)
(-0.00437088 2.23275 -1.33247e-21)
(0.0269315 2.00184 0)
(-0.00656948 2.23327 -6.23987e-20)
(0.0275604 2.00099 1.14315e-19)
(0.0038657 0.870703 0)
(0.0113095 0.849923 0)
(0.0117122 0.674405 0)
(-0.00422113 0.8025 0)
(0.00185062 0.587612 0)
(0.935602 0.00892245 0)
(0.845559 -0.0151745 0)
(0.925573 -0.000223063 0)
(0.840257 -0.0127007 0)
(0.8121 0.0011614 0)
(0.901598 0.0199741 0)
(0.877984 0.0240414 0)
(0.788789 -0.000784939 0)
(0.00583211 3.06492 -8.95453e-21)
(0.0166301 3.05778 0)
(0.0147161 2.96906 0)
(0.00867921 2.87624 0)
(0.925527 3.96958 0)
(1.24026 3.302 9.28634e-19)
(0.0702726 3.07403 0)
(-0.0281981 2.90513 0)
(0.0474322 1.44115 0)
(0.0044941 1.77236 0)
(0.0394771 1.62973 0)
(-0.0281151 2.56332 -1.66685e-21)
(-0.0162192 2.25812 0)
(-0.0246547 2.40623 0)
(0.0184243 1.92284 -3.15318e-21)
(-0.00646406 2.2143 3.0619e-20)
(-0.0116076 2.18031 2.4233e-20)
(0.00441879 1.89784 0)
(0.471157 0.120358 5.59917e-19)
(0.370613 0.00501084 -5.49951e-19)
(0.259921 1.57501 0)
(0.269858 0.734493 -3.22329e-19)
(0.177633 1.6605 -1.08247e-18)
(0.227261 1.20137 1.08515e-18)
(0.902229 0.00650818 0)
(0.967498 0.0110454 0)
(0.974622 0.0107869 0)
(0.923437 0.00650148 0)
(-0.00984701 0.791098 0)
(-0.0106515 0.793136 0)
(-0.0121508 0.595396 0)
(0.245986 0.199714 6.75983e-19)
(0.205481 0.187495 -8.00959e-19)
(0.211101 0.146025 0)
(1.08362 0.0814886 3.05544e-20)
(1.06644 0.0364774 0)
(1.00338 0.0381535 0)
(0.899587 -0.00739232 0)
(0.501621 0.0998374 0)
(0.544376 0.0834766 -2.53722e-18)
(0.401616 0.00133829 9.50315e-19)
(0.0091297 2.98151 7.69814e-19)
(-0.03218 2.86639 4.82893e-20)
(0.00363224 3.05024 -1.89159e-20)
(0.020151 3.04339 6.72209e-19)
(-0.015016 2.99657 3.1397e-20)
(-0.0129399 2.94944 -1.26292e-22)
(-0.0172632 3.01197 -5.7952e-19)
(0.0148216 3.02394 4.19344e-19)
(0.00734105 3.03678 -6.65349e-19)
(0.932669 -0.0017649 0)
(0.93858 -0.0036364 0)
(0.844407 -0.00923613 0)
(0.956716 0.0117361 0)
(0.943019 0.0129966 0)
(0.881755 0.00606973 0)
(0.918052 0.0164223 0)
(0.926506 0.0146834 0)
(0.838633 0.00370973 0)
(0.719802 1.41063 2.42417e-20)
(0.753501 1.51993 0)
(0.186832 0.324233 7.40609e-20)
(0.218494 0.657441 5.98691e-19)
(0.259298 0.718393 -3.48254e-19)
(0.26504 0.533121 6.92694e-19)
(0.336526 0.78917 1.62596e-18)
(0.13368 0.221248 3.81374e-19)
(0.399815 0.180929 7.865e-19)
(0.379955 0.195656 2.04876e-19)
(0.32909 0.0758814 3.91159e-19)
(1.14584 0.451932 1.87318e-20)
(1.16326 0.248103 1.30141e-20)
(0.00672228 2.22987 2.86535e-19)
(0.0479116 1.93349 0)
(0.964403 0.0282998 0)
(0.93878 0.0131199 0)
(0.863099 -0.0186 0)
(0.0111705 3.07426 0)
(0.0197432 2.94417 1.23894e-18)
(0.0164512 2.9563 0)
(0.00636598 2.85058 -1.22878e-18)
(0.00633692 3.09169 3.01358e-19)
(0.0071922 3.08252 0)
(0.786697 1.82273 -1.56056e-19)
(1.24803 2.50103 3.95559e-19)
(0.768898 1.96256 -1.22708e-18)
(0.0200541 2.98141 -6.69174e-19)
(0.035879 3.00147 0)
(-0.0339165 2.87812 0)
(-0.0091865 2.20859 -1.35339e-20)
(-0.00572927 2.23351 -5.56244e-20)
(0.0257579 1.96173 -1.0173e-20)
(0.275596 1.38247 1.0492e-18)
(0.228253 0.522318 -7.19533e-19)
(0.0629264 1.98867 7.99437e-19)
(0.136082 1.87662 -9.46245e-19)
(0.180571 1.49521 9.19111e-20)
(0.00454039 3.11793 -1.78577e-18)
(0.015783 3.11822 1.91685e-18)
(-0.00910065 2.98066 8.3795e-19)
(-0.00333675 2.9773 -7.96952e-19)
(-0.0214711 2.88146 -8.5343e-19)
(0.00866144 3.09862 -2.24301e-18)
(0.00187295 3.10681 2.20178e-18)
(0.273582 0.680935 0)
(0.23787 0.67124 -1.23338e-18)
(0.0955037 0.222155 5.46758e-19)
(0.350809 0.915101 1.13267e-18)
(0.189089 0.266125 -1.74654e-18)
(1.16331 0.168243 7.92353e-20)
(1.16535 0.301936 0)
(1.15103 0.117207 -2.60751e-20)
(-0.00252311 2.247 -1.98909e-21)
(0.00110946 2.23801 0)
(0.0337854 1.96897 0)
(0.339652 1.29083 -3.77714e-19)
(0.368889 1.12734 -8.15705e-19)
(0.2026 0.364767 1.45335e-18)
(1.00587 -0.0108605 0)
(1.00766 -0.00765367 5.29252e-19)
(0.0358018 1.30327 0)
(0.0051279 1.25691 0)
(1.00221 0.0035047 1.80192e-21)
(1.00366 0.00945174 1.07997e-18)
(-0.0226156 2.54659 2.11185e-21)
(-0.0279296 2.58716 0)
(0.0360965 3.17874 4.51321e-19)
(0.395297 3.49165 0)
(1.15022 0.6493 -7.77299e-20)
(1.01294 0.0130515 -2.15086e-21)
(1.02127 -0.0104073 0)
(1.00169 0.000107208 7.43569e-23)
(0.100486 1.35684 0)
(0.147 2.57612 0)
(0.0280716 1.29144 0)
(0.00247838 2.63176 6.29407e-20)
(-0.0222753 2.58862 3.22797e-20)
(1.00151 0.0286034 2.44026e-21)
(1.06148 0.00336198 0)
(1.09433 0.0226849 0)
(0.000354 1.7969 0)
(-0.0272188 2.58899 0)
(0.00616774 1.28221 0)
(0.293383 1.47022 -1.3919e-19)
(1.01126 -0.00965602 0)
(1.00939 -0.0149361 0)
(1.00236 0.000722679 6.7619e-19)
(1.00548 -0.00482402 -7.94874e-19)
(1.00119 -0.000992542 0)
(0.0139243 1.51483 0)
(0.032886 1.38185 0)
(0.0393395 1.46685 0)
(0.0153158 1.27044 0)
(0.0161105 1.22369 0)
(0.0125873 1.2031 0)
(1.03455 -0.00643379 0)
(1.02052 0.0156962 -9.14114e-22)
(0.798085 1.26529 2.28589e-19)
(1.00224 0.00027334 -6.73986e-19)
(1.00406 0.00524839 7.88441e-19)
(1.00117 0.00206145 0)
(1.01281 0.0102685 6.70614e-19)
(1.00802 0.00829222 -8.11987e-19)
(1.00857 0.0146805 0)
(-0.0296513 2.61679 0)
(-0.0295956 2.59621 -7.08674e-21)
(-0.0299619 2.60952 6.48281e-21)
(1.22596 0.254686 6.60932e-19)
(1.15598 0.0833519 0)
(0.0440267 3.07763 -9.84171e-19)
(0.0656105 2.85406 -7.15601e-20)
(0.142423 3.19323 1.50003e-18)
(0.137419 3.22204 -2.26034e-19)
(0.135846 3.2345 0)
(0.019657 3.13747 2.55666e-19)
(0.0765473 3.16064 9.71442e-19)
(0.0693906 3.18643 -4.8147e-19)
(0.0224008 3.12972 0)
(0.643814 0.291205 0)
(0.567858 0.343694 0)
(1.11658 0.684899 1.94011e-19)
(1.11236 0.812672 -1.97764e-19)
(1.17857 0.569051 0)
(1.20935 0.504951 0)
(1.01615 0.0132869 -1.2504e-18)
(1.01498 0.0142563 1.56961e-18)
(1.02521 -0.00992487 0)
(1.02327 -0.0119244 0)
(1.00644 0.00255324 0)
(1.01043 0.00369193 0)
(1.00462 0.00181312 0)
(1.00977 0.00616042 0)
(1.00785 0.00596153 0)
(1.00451 0.00466351 0)
(0.0884896 1.35318 0)
(0.0835897 1.32644 0)
(0.121667 1.3911 0)
(0.134386 1.40138 0)
(0.14696 2.60033 0)
(0.187004 2.66727 -4.52512e-19)
(0.102211 2.65768 0)
(0.087802 2.6615 2.25747e-19)
(0.0412847 2.68482 -1.98415e-19)
(0.0276329 1.31191 0)
(0.0174338 1.24538 0)
(0.025681 1.32202 0)
(0.0270464 1.26219 0)
(0.00312395 1.98387 -2.60884e-20)
(-0.0216028 2.61639 1.69891e-20)
(-0.00975987 2.67464 5.34123e-20)
(-0.0176495 2.6912 0)
(-0.0248274 2.62305 -7.21812e-20)
(-0.0248757 2.61685 -3.01228e-20)
(0.012373 1.98349 2.21665e-20)
(-0.0118397 2.4093 -2.27957e-20)
(-0.0149187 2.4285 -6.05641e-20)
(1.01123 0.036523 1.27407e-18)
(1.00729 0.0162878 -1.57322e-18)
(1.00268 0.0428928 -1.27454e-18)
(0.981274 0.0222315 1.62379e-18)
(1.0628 0.00721151 0)
(1.04835 -0.00876116 0)
(1.09173 0.0325718 0)
(1.0725 0.0115527 0)
(1.0703 -0.000794779 0)
(1.13689 0.0793069 0)
(1.10846 0.0419662 0)
(1.11142 0.0300668 0)
(-0.0196583 2.44231 -2.86218e-21)
(-0.016096 2.01841 0)
(-0.0131702 2.2289 0)
(-0.0271806 2.61047 5.69846e-21)
(-0.0237135 2.62019 -5.00041e-22)
(-0.00320484 1.57802 1.34624e-20)
(0.0142581 1.53533 -1.35727e-20)
(0.00897745 1.38981 0)
(0.019231 1.40309 0)
(0.021686 1.40095 0)
(-0.00633546 1.28844 0)
(0.0061214 1.21555 0)
(0.378743 1.48523 2.1939e-19)
(0.417648 1.48983 1.26848e-19)
(0.596556 2.44668 -2.45075e-19)
(0.402184 2.54166 7.24764e-19)
(0.351438 2.06563 8.15224e-20)
(1.02096 -0.00820861 0)
(1.01545 -0.00980075 0)
(1.01489 -0.0155306 0)
(1.00745 -0.00119578 0)
(1.00492 -0.000961272 0)
(1.00776 -0.00476564 0)
(1.00924 -0.00371747 0)
(1.01416 -0.00448729 0)
(1.02124 0.0160569 1.2245e-18)
(1.01804 0.0157311 -1.56956e-18)
(1.02168 0.0180005 -1.23307e-18)
(1.01958 0.0166929 1.54428e-18)
(0.764828 1.31424 0)
(0.70031 1.36676 2.09088e-19)
(0.874116 1.21064 6.46364e-20)
(0.916976 1.16311 -8.59644e-20)
(1.15672 2.60886 3.28129e-19)
(0.805281 0.109106 6.20373e-19)
(1.15891 0.103335 0)
(1.2042 0.185481 -5.30923e-19)
(1.1877 0.149184 -2.24474e-20)
(1.00382 0.14585 0)
(0.136426 2.96086 5.79766e-19)
(0.113632 2.86671 -1.24665e-18)
(0.023915 2.3725 8.41126e-19)
(0.0911728 -0.021857 -3.76804e-19)
(0.340265 3.42077 -1.93994e-19)
(0.194857 3.31324 0)
(0.23751 3.35536 2.52645e-19)
(0.245681 3.03424 -1.89846e-18)
(0.340097 3.19344 0)
(0.00587889 3.12101 4.93888e-20)
(0.0166479 3.12962 -5.7927e-19)
(0.0145009 3.12568 8.52574e-19)
(0.0352633 3.13996 0)
(0.0336779 3.15061 0)
(1.21593 2.60814 0)
(0.539857 0.836056 -5.50761e-19)
(1.03831 0.987989 2.17296e-20)
(0.975021 1.06439 0)
(0.826659 0.967251 -1.25833e-19)
(1.06246 0.879608 2.87084e-20)
(0.365255 0.393121 -9.70181e-19)
(0.688659 0.318155 -2.17281e-20)
(0.651572 0.23231 4.44796e-19)
(0.587375 0.37415 3.28916e-20)
(0.502116 0.341707 -1.32467e-18)
(0.660157 0.334951 0)
(0.70374 0.419925 7.5517e-19)
(0.711756 0.420045 0)
(0.622505 0.364187 0)
(0.590652 0.287076 0)
(0.80181 0.615181 4.48764e-19)
(1.22522 0.276922 -5.58614e-19)
(1.22131 0.412724 0)
(1.23171 0.353881 0)
(0.738501 0.186497 6.59991e-19)
(0.849044 0.535435 -4.11675e-19)
(0.746463 0.507479 7.29435e-19)
(0.950814 0.423573 -8.04259e-19)
(1.01969 0.0147166 8.4184e-19)
(1.01784 0.0142132 -8.4676e-19)
(1.01594 0.0155677 0)
(1.03596 -0.00596888 0)
(1.0296 -0.00861183 -7.93988e-19)
(1.02756 -0.0121534 7.86173e-19)
(1.02504 0.00984401 0)
(1.02364 0.0134876 0)
(1.01142 0.00406736 0)
(1.01428 0.00900833 0)
(1.01512 0.00394165 0)
(1.01423 0.00275982 0)
(0.0588593 1.33785 0)
(0.0631958 1.29632 0)
(0.144575 1.36544 -2.60011e-20)
(0.269311 1.46707 7.01731e-20)
(0.162497 1.43867 1.45157e-19)
(0.193127 1.44603 -2.38165e-19)
(0.165634 1.38855 0)
(0.132152 1.59277 -1.08021e-19)
(0.116659 1.56479 0)
(0.349869 2.01848 -1.185e-19)
(0.346268 2.35015 6.56378e-19)
(0.187396 1.44967 9.41955e-20)
(0.261811 1.38118 8.86976e-21)
(0.197785 1.36921 -7.18233e-21)
(0.273099 1.32317 -1.34779e-19)
(0.240913 1.57639 0)
(0.261851 1.61632 1.37387e-19)
(0.0350423 2.26701 -4.54174e-20)
(0.0434812 2.67404 0)
(0.0676517 2.40473 1.70736e-19)
(0.0626975 2.42622 0)
(0.0711428 2.67474 -2.49961e-19)
(0.0512079 2.70363 0)
(0.0307394 1.40458 -7.67445e-21)
(0.0382291 1.4575 0)
(0.0321835 1.375 0)
(0.0276436 1.37557 8.66434e-21)
(0.000882856 2.65979 -1.82965e-20)
(0.0299582 2.70339 2.2829e-19)
(0.0119 2.72909 1.58577e-21)
(0.00373233 1.83192 2.30481e-20)
(-0.00304173 1.6765 1.03995e-20)
(0.02823 1.2923 0)
(0.019605 1.22457 0)
(0.0502048 1.56872 2.27159e-20)
(0.0309478 1.4418 1.78248e-20)
(0.0398357 1.5072 -2.19574e-20)
(0.0417988 1.59321 0)
(-0.0320967 2.28609 2.95471e-20)
(-0.0388042 2.55882 -1.31002e-20)
(-0.0157005 2.45804 -4.8941e-21)
(-0.00652345 1.85058 -2.79566e-20)
(-0.0282707 2.50867 -1.04669e-20)
(-0.0245123 2.45201 4.81359e-20)
(1.01966 0.0207518 -8.37e-19)
(1.01587 0.026304 8.40196e-19)
(1.01504 0.0162642 0)
(1.01142 0.068377 1.18094e-18)
(0.990943 0.0570498 -1.32356e-18)
(0.951282 0.0420637 1.48122e-18)
(1.01405 0.105189 -1.57525e-19)
(1.0422 -0.00601874 0)
(1.05029 -0.0018674 7.58984e-19)
(1.03856 -0.0100377 -7.60258e-19)
(1.06948 0.0407231 -4.52928e-20)
(1.06322 0.0224225 3.89499e-19)
(1.06311 0.0536968 0)
(1.05163 0.0483147 -1.40026e-19)
(1.03285 0.0409914 0)
(1.02605 0.0369848 0)
(1.02784 0.0128108 0)
(1.02428 0.0156375 0)
(1.03982 0.0309267 2.88194e-19)
(1.03932 0.0260432 -6.36032e-19)
(1.0503 0.0323854 -3.05715e-19)
(1.04866 0.0321626 -3.36368e-19)
(1.06993 0.0627362 6.59373e-19)
(1.09428 0.0501797 0)
(1.1022 0.0934737 0)
(-0.0317816 2.29062 1.63834e-20)
(-0.0209456 2.02691 -4.01035e-21)
(-0.0230102 2.02981 0)
(-0.0291495 2.45418 -1.63101e-20)
(-0.0167363 2.41073 6.77408e-21)
(-0.0353004 2.48814 1.00483e-21)
(-0.023785 2.62908 2.54049e-20)
(-0.0300267 2.57155 -2.65579e-21)
(-0.0247089 2.52417 8.93891e-21)
(-0.0217318 2.62392 -1.05475e-20)
(-0.0268652 2.62491 1.42826e-20)
(-0.0140687 1.48558 -1.21629e-22)
(0.00543563 1.61968 1.51936e-20)
(0.366645 1.42706 -8.66072e-20)
(0.364974 1.36896 6.7219e-20)
(0.646201 1.41446 -2.0213e-19)
(0.515211 1.48008 -1.23498e-19)
(0.568499 1.4506 0)
(0.592261 2.42251 2.17468e-19)
(0.659954 2.41526 3.45582e-19)
(0.410682 2.51566 8.41202e-20)
(0.403936 2.5433 -6.57349e-19)
(0.511863 2.48828 6.40937e-19)
(0.551701 2.46043 0)
(0.488785 2.51581 -5.77531e-19)
(0.248991 2.59105 1.21123e-18)
(0.353815 2.56419 -8.17963e-20)
(0.284808 2.6528 -1.65947e-18)
(0.943848 2.37962 7.47255e-19)
(0.835945 2.38176 0)
(1.01097 0.00040869 2.74472e-20)
(1.01523 -0.00550494 -2.22838e-20)
(1.01763 -0.00364127 -4.07137e-19)
(1.0149 -0.000967444 4.08948e-19)
(1.01232 0.00103086 0)
(0.634108 1.28217 0)
(0.653142 1.18012 0)
(0.758427 1.08914 0)
(0.645875 1.14357 0)
(1.18628 2.62334 5.8483e-20)
(1.07419 2.36787 0)
(0.838363 2.18987 4.05637e-21)
(0.825197 2.4486 0)
(0.922255 2.53989 -4.48403e-19)
(0.957521 2.49596 2.9848e-19)
(0.815417 0.163217 0)
(0.780465 0.134959 1.69308e-19)
(0.924315 0.140443 9.8494e-19)
(0.839974 0.141929 -3.68413e-19)
(0.813086 0.0814323 -1.13295e-18)
(1.0769 0.22665 -9.60157e-19)
(0.995292 0.28465 -1.54463e-20)
(0.924844 0.283763 9.15011e-19)
(1.00268 0.216236 7.65656e-19)
(0.953307 0.184185 -1.31133e-18)
(0.91748 0.186375 1.63942e-19)
(0.952338 0.247141 -3.51723e-19)
(0.93083 0.210181 0)
(0.992252 0.180088 6.47184e-19)
(1.04277 0.180581 0)
(1.04125 0.206571 0)
(1.10625 0.11521 3.07978e-19)
(1.06679 0.169186 -1.40955e-20)
(1.07156 0.227883 -1.6821e-19)
(1.10343 0.196321 0)
(1.02278 0.0442912 6.49172e-19)
(1.04109 0.0569467 8.10869e-19)
(1.03431 0.0430187 -6.44081e-19)
(1.04245 0.063407 -5.4337e-19)
(1.0192 0.0711306 -8.30507e-19)
(0.987929 0.152625 0)
(0.998466 0.101426 0)
(0.967512 0.0645988 -5.27519e-19)
(0.91746 0.0875376 2.07194e-19)
(1.03766 0.101256 7.51433e-19)
(1.06754 0.118542 -8.88786e-19)
(1.07034 0.149904 7.93245e-19)
(1.02914 0.139331 0)
(1.07351 0.106423 0)
(1.05454 0.0878886 -3.62079e-19)
(1.04432 0.0934127 -6.15036e-19)
(0.57902 1.07591 1.49644e-19)
(0.61304 1.41179 -5.13132e-20)
(1.15699 2.74137 -2.41151e-19)
(1.22378 3.08203 4.28319e-21)
(1.24903 2.72274 -1.63976e-19)
(1.27924 2.70656 -1.58886e-20)
(1.20716 2.34625 -1.01147e-20)
(1.2109 2.98601 -1.04596e-19)
(1.23013 2.95122 2.52396e-19)
(1.21488 3.23548 -1.39049e-19)
(1.37576 2.96726 1.92313e-19)
(1.3664 2.88529 0)
(0.544726 0.844005 -5.15909e-20)
(0.13651 1.2543 5.89499e-19)
(0.533148 0.447797 6.26602e-19)
(0.371264 0.199294 6.91519e-19)
(0.526707 0.375568 7.47918e-19)
(0.546437 0.473002 -1.20152e-18)
(0.547616 0.474354 9.81097e-19)
(0.495927 0.396611 -3.78242e-19)
(0.41749 0.328701 8.57491e-19)
(0.742287 0.247176 -3.77695e-19)
(0.708347 0.277688 0)
(0.688767 0.200956 9.28994e-21)
(0.730724 0.509631 3.97411e-19)
(0.702249 0.481113 -1.44887e-18)
(0.615164 0.468873 1.53079e-20)
(0.625485 0.458928 0)
(0.675948 0.73086 4.18024e-19)
(0.828015 0.77278 4.30887e-19)
(0.751921 0.854106 -5.03137e-19)
(0.870408 0.806895 -1.72729e-19)
(0.901738 0.850931 -4.41072e-20)
(0.90956 0.851357 4.51631e-20)
(0.844422 0.644604 -7.44949e-19)
(0.922668 0.702867 1.60487e-19)
(0.977865 0.71701 0)
(0.969027 0.692858 -2.20924e-19)
(1.02356 0.321369 2.3269e-19)
(1.14034 0.291007 3.24115e-19)
(1.06414 0.261179 3.92726e-19)
(1.01169 0.355168 -4.66947e-19)
(1.05526 0.41997 0)
(1.1074 0.404074 0)
(0.914344 0.3529 6.32176e-21)
(0.841393 0.285074 0)
(0.875092 0.279707 4.30032e-19)
(0.907232 0.289382 -4.49047e-21)
(0.94367 0.426388 2.24378e-18)
(0.900615 0.487196 5.80527e-19)
(0.904226 0.450241 -6.14742e-19)
(0.822001 0.433571 6.58567e-19)
(0.804885 0.428851 3.94453e-19)
(0.775468 0.413701 -3.87628e-19)
(1.0273 -0.000489306 6.7839e-19)
(1.02002 -0.00013628 0)
(1.01849 0.000791721 4.41951e-19)
(1.0215 -0.00189495 -1.0012e-18)
(1.02228 0.00424997 4.86532e-19)
(1.02043 0.0110975 -1.01897e-18)
(1.0214 0.0104958 0)
(1.0207 0.0107666 -2.12269e-19)
(1.016 0.00761923 5.32531e-19)
(1.01674 0.0103869 -2.65689e-19)
(1.01744 0.00972922 1.95694e-19)
(0.0320674 1.31225 0)
(0.034808 1.34726 0)
(0.0416868 1.31547 0)
(0.0408035 1.27357 0)
(0.0706242 1.3751 2.91859e-20)
(0.0766226 1.34809 -1.99773e-21)
(0.112504 1.50488 -3.2953e-20)
(0.0939669 1.35565 1.26848e-20)
(0.0349594 1.4465 -4.37429e-20)
(0.0385568 1.43911 3.41656e-20)
(0.0619004 1.35908 -8.03363e-21)
(0.0547792 1.36066 -7.15487e-21)
(0.0462334 1.33668 -1.28539e-21)
(0.0396914 1.35763 -4.32785e-21)
(0.109089 2.37475 -1.88813e-19)
(0.0976018 2.42141 0)
(0.173035 2.04971 1.22694e-19)
(0.112538 1.71116 5.57392e-20)
(0.231107 2.04475 -1.00713e-19)
(0.206546 2.43801 0)
(0.266498 2.38927 -6.40481e-19)
(0.304899 2.38716 4.54336e-19)
(0.232428 2.00475 -2.79706e-19)
(0.155768 2.16622 1.83711e-19)
(0.145667 2.27848 0)
(0.0208111 1.87326 -4.99617e-20)
(-0.00103187 2.40345 -1.03228e-19)
(0.00589506 2.15519 0)
(0.0134756 2.4631 -1.40054e-20)
(0.0277354 2.30709 3.66812e-20)
(0.0226078 1.3901 6.63657e-22)
(0.0180767 1.37574 -7.69269e-21)
(0.0187633 1.37958 -1.02491e-21)
(0.0246546 1.3777 6.03641e-21)
(0.0296959 1.40868 0)
(0.0147406 1.3615 0)
(0.00142868 1.27934 3.0599e-21)
(0.00951677 1.34863 -2.02823e-21)
(0.0136459 1.35145 0)
(0.0104675 1.28112 -8.25857e-22)
(0.00830471 1.206 -1.55599e-22)
(1.04021 0.0110538 0)
(1.04626 0.00735299 -7.1176e-20)
(1.0386 0.020596 -5.12894e-19)
(1.04799 0.0195705 0)
(1.05158 0.0193607 0)
(1.03634 0.011039 -6.63744e-21)
(1.03094 0.0109431 8.23153e-19)
(1.03188 0.0159047 9.98246e-19)
(1.02589 0.0199257 0)
(1.02315 0.0203179 0)
(1.03522 0.0242661 5.11672e-19)
(1.02629 0.025692 0)
(1.02453 0.0257865 0)
(-0.0287024 2.02778 0)
(0.00649952 1.64777 -5.65422e-21)
(-0.00439883 1.7619 -1.91109e-20)
(0.00148978 1.36194 0)
(-0.0108562 1.55421 9.0289e-21)
(-0.00114538 1.44829 -6.0724e-21)
(0.0019176 1.37139 0)
(0.389528 1.66897 0)
(0.366895 1.29765 -1.23837e-19)
(0.302284 1.34195 0)
(0.421732 1.29519 7.29901e-20)
(0.46681 1.45539 0)
(0.447832 1.401 -4.953e-21)
(1.03545 2.68714 -1.59429e-20)
(0.96522 2.41036 -9.39263e-19)
(0.91518 2.19098 1.07194e-18)
(0.849442 2.37413 2.48869e-19)
(0.846994 2.49767 0)
(0.916976 2.4942 0)
(0.927204 2.37282 0)
(0.905927 2.35908 -9.66703e-19)
(0.688554 2.46577 -4.18875e-19)
(0.800879 2.45605 -1.02638e-19)
(0.811445 2.43005 7.8254e-20)
(0.694325 2.39021 0)
(0.799027 2.38598 0)
(0.757765 2.39828 -3.76224e-19)
(0.768931 2.48724 0)
(0.613261 1.09893 0)
(0.484253 0.927721 -5.23715e-19)
(0.552006 0.962175 -3.33013e-20)
(0.520257 1.05526 0)
(0.521363 1.00527 7.86461e-19)
(0.775172 0.879547 -1.42627e-19)
(0.783772 1.01596 0)
(0.757945 0.975658 2.09517e-19)
(0.644035 1.03497 0)
(0.648877 0.943101 0)
(1.16471 2.76294 -2.46361e-19)
(1.14243 2.82652 -1.07643e-19)
(0.932079 2.34701 1.17369e-19)
(0.899784 2.32473 -8.89026e-20)
(1.12951 2.73581 0)
(1.08281 2.70591 1.07021e-19)
(1.08942 2.48757 -3.29925e-19)
(0.983138 2.2353 -3.04806e-20)
(0.495659 1.35368 0)
(0.50917 1.07456 -1.31973e-19)
(0.562792 1.16527 0)
(0.85934 0.222339 0)
(0.787343 0.173427 0)
(0.730241 0.138477 0)
(0.855575 0.226573 -6.76871e-19)
(0.760323 0.21122 3.96583e-19)
(0.932628 0.0743199 -4.27934e-19)
(0.947866 0.120389 0)
(0.927384 0.132572 1.83408e-19)
(0.867242 0.108782 7.35945e-19)
(0.8388 0.066461 -4.60524e-19)
(1.16205 3.36078 -7.12023e-19)
(1.20982 3.2801 0)
(1.16034 3.38876 -1.46967e-18)
(0.647802 3.54953 1.24826e-18)
(0.872747 3.11684 5.95633e-20)
(0.516837 0.850817 6.20388e-19)
(0.432991 0.84552 0)
(0.338071 0.483872 -1.57365e-19)
(0.454293 0.678913 8.93389e-19)
(0.536512 0.452482 -2.1641e-19)
(0.509758 0.507759 2.47159e-19)
(0.663128 0.529363 5.3607e-19)
(0.693874 0.553416 0)
(0.646469 0.609697 0)
(0.603608 0.54901 0)
(0.985489 0.60129 1.10311e-19)
(0.903761 0.536445 -5.64767e-19)
(0.928586 0.571039 4.32897e-19)
(0.964244 0.505764 -4.37172e-19)
(1.06783 0.478473 0)
(1.07557 0.569535 -1.10864e-19)
(0.845656 0.385358 -8.99767e-19)
(0.848843 0.372536 -1.11267e-18)
(0.796153 0.378523 7.01501e-19)
(0.792027 0.349167 -7.17116e-19)
(0.842278 0.306396 -5.60253e-19)
(0.794214 0.304832 6.87916e-19)
(1.02666 0.0056254 -5.20068e-19)
(1.02642 0.00583329 1.06009e-18)
(1.02928 -0.00015693 6.57992e-19)
(1.03332 0.000716444 -7.92655e-19)
(1.03352 0.00842858 0)
(1.03009 0.00899996 -1.28839e-18)
(0.0646922 1.64181 3.04881e-20)
(0.045706 1.5714 0)
(0.0874197 1.69527 1.91096e-19)
(0.0986881 1.67806 -1.69955e-19)
(0.0870753 1.52295 6.18298e-20)
(0.0858011 1.50415 0)
(0.00942351 1.68165 0)
(-0.000756316 1.48579 -5.62523e-21)
(-0.000791035 1.42507 5.06013e-21)
(-0.00694153 1.54412 3.72035e-21)
(-0.000996942 1.88681 -1.18498e-20)
(-0.0181957 1.93766 8.47241e-21)
(0.4948 1.37171 -3.11512e-19)
(0.488959 1.37457 3.4119e-19)
(0.443929 1.29207 -6.36375e-20)
(0.431907 1.29195 1.00301e-20)
(0.625628 1.29891 0)
(0.543904 1.3865 7.04202e-20)
(0.559483 1.39458 -6.85348e-20)
(0.454816 1.27774 6.14882e-20)
(0.50874 1.23255 0)
(0.561243 1.19856 0)
(0.654793 2.42435 6.15454e-19)
(0.669573 2.46085 1.31548e-18)
(0.715407 2.47295 -9.06272e-19)
(0.614876 2.4481 -2.12022e-19)
(0.560172 2.54045 2.97573e-19)
(0.510358 2.51383 -7.92249e-19)
(0.975892 2.37985 -6.00185e-19)
(1.01199 2.39372 0)
(0.921609 2.16923 -6.9443e-19)
(1.05298 2.68503 0)
(1.05513 2.67174 0)
(0.612976 2.27494 -1.26533e-19)
(1.04284 3.1636 1.25328e-19)
(0.913883 3.03356 -2.87809e-20)
(0.281103 0.91081 0)
(0.321653 0.770982 -3.27661e-19)
(0.481559 0.727401 -3.30931e-19)
(0.3911 2.02173 0)
(0.467345 2.78542 -4.1463e-20)
(0.424008 2.54924 0)
(0.691306 0.678746 -8.86986e-19)
(0.772953 0.679446 1.21173e-18)
(0.793797 0.62233 -1.20029e-18)
(0.673543 0.64177 -1.14718e-19)
(0.729085 0.595358 -4.75746e-19)
(1.00501 2.76686 -9.52977e-20)
(1.04202 2.82399 -1.81202e-19)
(0.641344 2.15239 6.82798e-19)
(0.597585 1.71644 -4.85402e-19)
(0.700393 1.9089 -4.24174e-19)
(0.990471 2.45016 -1.15771e-19)
(0.995221 2.44436 3.15256e-19)
(0.661943 1.84882 2.92821e-20)
(0.452705 1.33574 1.53422e-19)
)
;

boundaryField
{
    wall-4
    {
        type            noSlip;
    }
    velocity-inlet-5
    {
        type            fixedValue;
        value           uniform (1 0 0);
    }
    velocity-inlet-6
    {
        type            fixedValue;
        value           uniform (0 3 0);
    }
    pressure-outlet-7
    {
        type            zeroGradient;
    }
    wall-8
    {
        type            noSlip;
    }
    frontAndBackPlanes
    {
        type            empty;
    }
}


// ************************************************************************* //
