/*--------------------------------*- C++ -*----------------------------------*\
  =========                 |
  \\      /  F ield         | OpenFOAM: The Open Source CFD Toolbox
   \\    /   O peration     | Website:  https://openfoam.org
    \\  /    A nd           | Version:  9
     \\/     M anipulation  |
\*---------------------------------------------------------------------------*/
FoamFile
{
    format      ascii;
    class       volScalarField;
    location    "39";
    object      p;
}
// * * * * * * * * * * * * * * * * * * * * * * * * * * * * * * * * * * * * * //

dimensions      [0 2 -2 0 0 0 0];

internalField   nonuniform List<scalar> 
2200
(
0.803438
0.781937
0.766026
0.750354
0.735738
0.723207
0.712837
0.704707
0.698978
0.695964
0.696382
0.700141
0.706414
0.714928
0.725574
0.73831
0.753071
0.768941
0.784956
0.806461
0.735868
0.732609
0.729683
0.72556
0.720088
0.713604
0.706973
0.700989
0.696443
0.693981
0.69439
0.697634
0.70276
0.709176
0.716123
0.722844
0.728486
0.732605
0.735487
0.738826
0.695994
0.696213
0.698259
0.699586
0.699961
0.699089
0.697079
0.694378
0.691796
0.690256
0.690728
0.693096
0.69631
0.699486
0.701804
0.702813
0.702537
0.701484
0.699765
0.699523
0.673504
0.674952
0.677546
0.679998
0.682436
0.684444
0.685577
0.68578
0.685367
0.685024
0.685576
0.686851
0.687974
0.688298
0.687569
0.68586
0.683669
0.681444
0.678844
0.677431
0.65918
0.661149
0.663969
0.666805
0.669652
0.672462
0.6749
0.676724
0.677892
0.678607
0.679242
0.679618
0.679304
0.678129
0.676211
0.673793
0.671207
0.668467
0.665676
0.663746
0.651952
0.65355
0.655745
0.658255
0.660891
0.663521
0.666067
0.668434
0.670385
0.671787
0.67253
0.672447
0.671517
0.669928
0.667964
0.665783
0.66343
0.661079
0.658973
0.657395
0.648609
0.649634
0.650894
0.652741
0.654863
0.657002
0.659144
0.661367
0.663508
0.665249
0.666136
0.666005
0.6651
0.663801
0.662338
0.660707
0.658959
0.657344
0.65621
0.655195
0.646008
0.646675
0.647304
0.648603
0.650212
0.651879
0.653585
0.655438
0.657393
0.659222
0.660302
0.660432
0.659985
0.659246
0.65837
0.657328
0.656198
0.655218
0.654742
0.654071
0.642917
0.643359
0.643757
0.644752
0.646008
0.647366
0.648806
0.650372
0.652071
0.65384
0.655156
0.655759
0.655873
0.655689
0.655281
0.654707
0.654034
0.653435
0.653213
0.652755
0.63908
0.639379
0.639736
0.640603
0.641705
0.642957
0.64435
0.645877
0.647543
0.649342
0.650961
0.652063
0.652627
0.65281
0.652699
0.652387
0.651969
0.651553
0.651384
0.651069
0.634558
0.634759
0.635138
0.635977
0.637079
0.638387
0.639905
0.641609
0.643484
0.645539
0.647528
0.649014
0.649896
0.650288
0.650354
0.650218
0.64994
0.649629
0.649466
0.649241
0.629544
0.62968
0.630058
0.630915
0.632114
0.633591
0.635315
0.637266
0.639454
0.641898
0.644335
0.64622
0.647392
0.648006
0.648217
0.648206
0.648035
0.647829
0.647693
0.647529
0.624315
0.624406
0.624778
0.625615
0.626867
0.628484
0.630442
0.632737
0.63537
0.638348
0.641358
0.643734
0.645241
0.646095
0.646494
0.646579
0.646574
0.646505
0.646413
0.646286
0.618785
0.61884
0.619223
0.620068
0.621378
0.623114
0.625283
0.627997
0.631205
0.634917
0.6386
0.641442
0.643312
0.644477
0.64518
0.645561
0.645767
0.645824
0.645782
0.645667
0.612729
0.612752
0.61316
0.61405
0.615509
0.617426
0.61983
0.622852
0.626621
0.631103
0.635606
0.639137
0.6416
0.643307
0.644473
0.645204
0.645595
0.645774
0.645781
0.645671
0.606164
0.60608
0.606519
0.6075
0.609147
0.611298
0.613974
0.617337
0.621584
0.626835
0.632394
0.637031
0.640415
0.64285
0.644517
0.645544
0.646138
0.646441
0.646497
0.646404
0.599009
0.599003
0.599372
0.600399
0.602295
0.604757
0.607883
0.611831
0.616854
0.62312
0.629969
0.635858
0.640221
0.6433
0.645412
0.646809
0.647698
0.648143
0.648252
0.648167
0.59092
0.590915
0.591342
0.592551
0.594762
0.597662
0.601471
0.606409
0.612652
0.620376
0.628727
0.63581
0.641016
0.644774
0.647441
0.649262
0.650416
0.651003
0.651171
0.651084
0.58158
0.581507
0.582057
0.583561
0.586095
0.589561
0.594225
0.600307
0.608094
0.6177
0.62788
0.636391
0.642687
0.64727
0.650587
0.652903
0.654366
0.655138
0.655374
0.655276
0.570495
0.570383
0.571006
0.572771
0.5758
0.579956
0.585533
0.592859
0.602318
0.614047
0.626528
0.637004
0.644855
0.650643
0.654845
0.657772
0.659665
0.660658
0.660964
0.660842
0.557287
0.557155
0.557852
0.559863
0.56342
0.568463
0.575321
0.584314
0.595864
0.610154
0.625357
0.638162
0.647751
0.654887
0.66012
0.663896
0.666363
0.667615
0.667998
0.667838
0.540779
0.540686
0.54164
0.544143
0.548616
0.555029
0.563739
0.575135
0.589573
0.607051
0.625278
0.640555
0.652002
0.6606
0.66698
0.671575
0.674598
0.676091
0.676525
0.676317
0.520027
0.519863
0.521159
0.524553
0.530474
0.538965
0.550382
0.565081
0.583212
0.604552
0.6263
0.644264
0.657708
0.667788
0.675281
0.680734
0.68431
0.68603
0.686512
0.68625
0.492724
0.49275
0.494837
0.499627
0.507845
0.519504
0.534707
0.553608
0.576186
0.602073
0.627893
0.648924
0.664589
0.676366
0.685167
0.691525
0.695626
0.697538
0.698035
0.697721
0.455969
0.45626
0.459854
0.467571
0.47971
0.496195
0.516578
0.540805
0.568687
0.599748
0.630041
0.654438
0.672553
0.686158
0.696375
0.703813
0.708498
0.710587
0.71108
0.710679
0.406478
0.406919
0.414008
0.427
0.445597
0.469179
0.496478
0.527334
0.561471
0.598332
0.633445
0.661304
0.681874
0.697415
0.709178
0.717648
0.722775
0.724877
0.725224
0.724808
0.340522
0.343464
0.358803
0.380236
0.407769
0.440072
0.475466
0.513846
0.554998
0.598366
0.638881
0.67085
0.694641
0.712718
0.726386
0.736399
0.742367
0.744609
0.744775
0.744567
0.265288
0.275002
0.300617
0.331995
0.369628
0.410942
0.454481
0.500645
0.549204
0.599587
0.646296
0.683273
0.710867
0.731998
0.748346
0.760195
0.767186
0.769382
0.76942
0.769546
0.198295
0.213323
0.245397
0.285429
0.332514
0.382693
0.434218
0.488111
0.543973
0.601197
0.653817
0.695322
0.72648
0.750365
0.768539
0.781835
0.789622
0.792787
0.79339
0.793385
0.147458
0.160934
0.198333
0.24429
0.298563
0.356094
0.415031
0.476229
0.539032
0.602869
0.661005
0.706744
0.740805
0.766776
0.786629
0.80147
0.809757
0.813202
0.813788
0.813865
0.105566
0.118168
0.159142
0.208983
0.268667
0.33202
0.397351
0.465035
0.534141
0.603992
0.667422
0.717009
0.75361
0.781337
0.802265
0.817825
0.826738
0.830511
0.831218
0.831334
0.0695522
0.0823951
0.125797
0.178482
0.242424
0.310447
0.381144
0.454428
0.529176
0.604822
0.673386
0.726141
0.76474
0.793717
0.815459
0.831234
0.840533
0.84462
0.845491
0.845598
0.03803
0.0510293
0.0964233
0.151638
0.219076
0.290962
0.366205
0.444371
0.524272
0.605137
0.677646
0.733331
0.773789
0.803791
0.825847
0.841933
0.851748
0.856075
0.857135
0.857225
0.00979923
0.022845
0.0699116
0.127433
0.197843
0.273013
0.352155
0.434511
0.518867
0.60411
0.680924
0.739456
0.781246
0.812017
0.834753
0.851016
0.861194
0.865797
0.86696
0.867026
-0.0159498
-0.00294628
0.0453914
0.105119
0.178144
0.256154
0.338639
0.424646
0.513121
0.602968
0.683846
0.744537
0.787891
0.819558
0.842732
0.859193
0.869609
0.874271
0.875382
0.875285
-0.0401261
-0.0267783
0.0223391
0.0841297
0.159465
0.240005
0.325461
0.414808
0.507052
0.600832
0.684865
0.748847
0.793895
0.826288
0.849999
0.866575
0.876666
0.881404
0.88253
0.882363
-0.0628252
-0.0493169
0.00053503
0.0641374
0.14147
0.224298
0.312399
0.404657
0.500104
0.597514
0.686013
0.753049
0.799502
0.832899
0.856625
0.873215
0.8833
0.887853
0.889097
0.888985
-0.0842321
-0.0707668
-0.0202184
0.0449255
0.123955
0.208812
0.299231
0.39405
0.49259
0.593897
0.686351
0.755897
0.804939
0.839185
0.863268
0.879791
0.889715
0.894195
0.89529
0.895216
-0.10483
-0.0911621
-0.0401029
0.026309
0.106773
0.193424
0.285933
0.383195
0.484728
0.589454
0.685477
0.758951
0.810213
0.84564
0.870137
0.886467
0.896187
0.900384
0.901436
0.901326
-0.125073
-0.110783
-0.0593349
0.00816135
0.0898479
0.17811
0.27256
0.372065
0.476195
0.58405
0.68407
0.761257
0.815171
0.852457
0.877458
0.893531
0.902658
0.906574
0.907369
0.907243
-0.145001
-0.129865
-0.0780585
-0.00958913
0.0731604
0.16287
0.259076
0.360568
0.466975
0.577772
0.681662
0.762637
0.820057
0.859602
0.885522
0.901209
0.909472
0.912527
0.913073
0.912904
-0.16448
-0.148597
-0.096346
-0.0269349
0.0567513
0.147708
0.24542
0.348671
0.457232
0.570895
0.67837
0.763263
0.824475
0.867091
0.894674
0.910066
0.916737
0.918316
0.918329
0.918191
-0.18337
-0.166926
-0.11418
-0.0438753
0.0406311
0.13264
0.231636
0.336485
0.447094
0.56319
0.673391
0.762537
0.82818
0.874889
0.905198
0.920918
0.925567
0.923619
0.922906
0.923669
-0.201644
-0.184789
-0.131512
-0.0603768
0.0248489
0.117738
0.217829
0.324086
0.43641
0.554393
0.66737
0.760728
0.831039
0.88258
0.917071
0.934557
0.937781
0.931591
0.926135
0.924314
-0.219273
-0.202067
-0.148277
-0.0764017
0.00945646
0.103087
0.204083
0.311476
0.425169
0.544902
0.66043
0.757059
0.832195
0.889751
0.930077
0.951765
0.957835
0.945576
0.943089
0.947492
-0.236268
-0.218714
-0.164419
-0.0918846
-0.00547052
0.0887682
0.190473
0.298739
0.41355
0.534799
0.652232
0.751722
0.831662
0.895214
0.943055
0.972251
0.984682
0.957892
0.915102
0.8764
-0.252559
-0.234725
-0.179966
-0.106888
-0.0200285
0.0746602
0.176854
0.285729
0.401387
0.523827
0.642732
0.744445
0.827941
0.89785
0.954632
0.995144
1.02232
1.01306
1.02997
1.08473
-0.268108
-0.250161
-0.195014
-0.121548
-0.034396
0.0605406
0.162979
0.272169
0.388294
0.511463
0.631389
0.734336
0.820362
0.894862
0.956419
1.00066
1.02123
1.00783
0.970653
0.982688
-0.28288
-0.264984
-0.20952
-0.135818
-0.0485034
0.0465099
0.148988
0.258226
0.374428
0.497793
0.618071
0.721198
0.807068
0.881941
0.943076
0.985238
0.980669
0.932349
0.870972
0.859584
-0.296877
-0.279196
-0.223488
-0.149702
-0.0623544
0.0325693
0.134902
0.243929
0.35982
0.48283
0.602776
0.704865
0.78817
0.857579
0.912112
0.926899
0.895597
0.82256
0.749815
0.731254
-0.310129
-0.292781
-0.236926
-0.163224
-0.0759754
0.0187009
0.120711
0.229282
0.34451
0.466596
0.58528
0.685049
0.762592
0.819521
0.849564
0.840309
0.788146
0.688494
0.602297
0.582207
-0.323093
-0.306158
-0.250234
-0.176753
-0.0897237
0.00458369
0.106133
0.214053
0.3283
0.448884
0.565388
0.661446
0.731847
0.772814
0.768709
0.736095
0.629837
0.509261
0.403058
0.377723
-0.33667
-0.320106
-0.264109
-0.190918
-0.104178
-0.0102728
0.0907424
0.197879
0.310902
0.429473
0.542907
0.633858
0.696584
0.714443
0.68057
0.595947
0.441632
0.29039
0.162655
0.136478
-0.351388
-0.335058
-0.278881
-0.205954
-0.119521
-0.026004
0.0744407
0.180695
0.292299
0.408423
0.517955
0.603402
0.655012
0.645678
0.591901
0.444398
0.244651
0.0321414
-0.147654
-0.194699
-0.367346
-0.351081
-0.294602
-0.221886
-0.135728
-0.0425769
0.0572575
0.162526
0.272537
0.385838
0.490333
0.570281
0.60709
0.566302
0.478857
0.290403
0.0572904
-0.233303
-0.556694
-0.70226
-0.384629
-0.368296
-0.311394
-0.238796
-0.152849
-0.0600534
0.0391319
0.143315
0.251584
0.361788
0.460396
0.534316
0.553904
0.482195
0.345718
0.137579
-0.100154
-0.448128
-1.04084
-1.61586
-0.403299
-0.386762
-0.329318
-0.256744
-0.170902
-0.0784202
0.0201136
0.123172
0.22963
0.336663
0.429361
0.49567
0.497418
0.407205
0.216109
-0.0215996
-0.229348
-0.470259
-1.03747
-2.57811
-0.423368
-0.406593
-0.348478
-0.275848
-0.190044
-0.0978756
-3.21775e-05
0.101819
0.206334
0.310077
0.396842
0.453904
0.436469
0.348104
0.120613
-0.123129
-0.275597
-0.317755
-0.314694
-0.708622
-0.444747
-0.427873
-0.369034
-0.296411
-0.210673
-0.118902
-0.0219027
0.0785338
0.180796
0.28065
0.362071
0.408954
0.375582
0.299379
0.068756
-0.139878
-0.255001
-0.265197
-0.213822
-0.255463
-0.467356
-0.450518
-0.390989
-0.318479
-0.232852
-0.141615
-0.045643
0.0531366
0.152763
0.248162
0.324987
0.362059
0.321602
0.247663
0.03526
-0.132178
-0.216475
-0.224032
-0.271687
-0.27779
-0.491111
-0.474292
-0.414244
-0.342053
-0.256571
-0.166021
-0.0712711
0.0256241
0.122319
0.213161
0.285461
0.313376
0.274174
0.187234
0.00720518
-0.122708
-0.196256
-0.168136
-0.190429
-0.192232
-0.515833
-0.498807
-0.438717
-0.367026
-0.281656
-0.192024
-0.0986964
-0.00389625
0.0895652
0.175849
0.243534
0.261583
0.232285
0.120049
-0.0272387
-0.117474
-0.163778
-0.205144
-0.181689
-0.189667
-0.541112
-0.523746
-0.464242
-0.393212
-0.307898
-0.219451
-0.127717
-0.0351837
0.054708
0.136709
0.200426
0.208296
0.190003
0.0578388
-0.0658518
-0.133166
-0.120126
-0.179408
-0.156631
-0.161943
-0.566277
-0.548701
-0.490654
-0.420204
-0.334925
-0.24802
-0.158008
-0.0678707
0.0180118
0.0960789
0.157231
0.157138
0.139245
0.0045917
-0.0955309
-0.151947
-0.131851
-0.155961
-0.158845
-0.158737
-0.590756
-0.573393
-0.51709
-0.447269
-0.362426
-0.277348
-0.189134
-0.101504
-0.019933
0.0543217
0.113923
0.108686
0.0835091
-0.0406876
-0.112762
-0.149148
-0.174068
-0.157956
-0.163795
-0.160247
-0.613775
-0.597129
-0.542587
-0.473592
-0.389958
-0.306848
-0.220486
-0.135418
-0.0581676
0.011839
0.0710409
0.063136
0.0272107
-0.0785341
-0.131023
-0.130527
-0.190947
-0.154565
-0.162924
-0.156634
-0.634457
-0.618924
-0.566111
-0.498203
-0.41711
-0.335723
-0.25133
-0.168915
-0.0955968
-0.0307998
0.0280043
0.0190922
-0.0237676
-0.0997978
-0.147623
-0.126008
-0.182995
-0.143337
-0.147892
-0.144124
-0.65153
-0.637552
-0.587036
-0.520676
-0.44273
-0.362886
-0.280744
-0.201093
-0.131107
-0.0725556
-0.014366
-0.0252011
-0.0696888
-0.104215
-0.134915
-0.125273
-0.13071
-0.132851
-0.1339
-0.131626
-0.663913
-0.651923
-0.604276
-0.540068
-0.465261
-0.38737
-0.307739
-0.230871
-0.163636
-0.111776
-0.0547448
-0.0679959
-0.122594
-0.10713
-0.0557375
-0.0509886
-0.0762859
-0.119466
-0.130072
-0.134176
-0.67048
-0.660764
-0.61691
-0.555253
-0.483257
-0.40795
-0.331082
-0.256996
-0.192018
-0.14626
-0.0906688
-0.10669
-0.186775
-0.180367
-0.0785053
-0.107711
-0.122916
-0.14826
-0.158212
-0.161246
-0.670722
-0.663048
-0.623199
-0.564604
-0.495732
-0.423415
-0.349417
-0.27781
-0.214848
-0.172613
-0.12298
-0.138127
-0.268709
-0.413405
-0.484048
-0.563199
-0.569414
-0.529916
-0.493389
-0.470705
-0.663729
-0.65648
-0.621585
-0.567021
-0.501594
-0.432447
-0.361337
-0.291726
-0.229359
-0.18758
-0.146479
-0.158771
-0.350119
-0.679496
-1.11767
-1.35936
-1.3837
-1.32858
-1.20154
-1.10816
-0.645409
-0.637677
-0.609601
-0.560907
-0.499991
-0.434301
-0.365812
-0.297037
-0.23284
-0.186488
-0.151714
-0.14446
-0.315387
-0.617959
-0.957088
-1.08561
-1.03692
-0.940394
-0.862371
-0.818505
-0.609
-0.601999
-0.586152
-0.54666
-0.490809
-0.428365
-0.362121
-0.292672
-0.222979
-0.165158
-0.119593
-0.0624885
-0.0194005
0.0631441
0.115625
0.223589
0.336043
0.426166
0.505044
0.575047
-0.563694
-0.55996
-0.555532
-0.524686
-0.475784
-0.416423
-0.350668
-0.279022
-0.200815
-0.120984
-0.0447816
0.0932033
0.306647
0.657781
0.992068
1.27309
1.4845
1.61251
1.67504
1.69215
-0.5325
-0.532684
-0.526321
-0.503238
-0.459519
-0.401193
-0.333478
-0.258098
-0.17117
-0.0689014
0.0404894
0.200442
0.488715
0.894703
1.29585
1.62899
1.85972
1.98886
2.04336
2.06024
-0.500814
-0.501674
-0.495499
-0.483906
-0.44505
-0.386671
-0.315617
-0.236879
-0.145873
-0.036382
0.0811562
0.201114
0.465269
0.7994
1.12596
1.4063
1.61668
1.74238
1.79945
1.8166
-0.472105
-0.470824
-0.46998
-0.467014
-0.430732
-0.37303
-0.300226
-0.219065
-0.129161
-0.0250836
0.0857371
0.164405
0.376746
0.651529
0.909195
1.13235
1.31099
1.42147
1.47117
1.48448
-0.461354
-0.459326
-0.464319
-0.457278
-0.420572
-0.360133
-0.286718
-0.20617
-0.122205
-0.0319385
0.0712725
0.126734
0.278761
0.500826
0.703804
0.872541
1.00817
1.09615
1.13572
1.14639
-0.442151
-0.441061
-0.449105
-0.44122
-0.406124
-0.343607
-0.271829
-0.195295
-0.118801
-0.0434759
0.0516673
0.0987331
0.196266
0.368111
0.528689
0.654725
0.753044
0.819523
0.848587
0.854661
-0.400151
-0.400937
-0.406655
-0.399717
-0.370036
-0.313645
-0.249701
-0.180736
-0.11225
-0.0507212
0.0338403
0.0786136
0.137811
0.265422
0.388741
0.481528
0.551784
0.598904
0.618783
0.625608
-0.324728
-0.327003
-0.331076
-0.326587
-0.303666
-0.26225
-0.213716
-0.158202
-0.0996004
-0.0503567
0.0205571
0.0630121
0.0993047
0.195719
0.286167
0.351679
0.402612
0.437824
0.452498
0.457442
-0.226355
-0.228544
-0.230389
-0.228417
-0.215513
-0.192122
-0.162413
-0.125203
-0.0798494
-0.042115
0.0131787
0.0501816
0.0746032
0.149465
0.214082
0.258186
0.296261
0.322107
0.332549
0.335313
-0.129213
-0.130422
-0.132291
-0.132956
-0.128962
-0.119915
-0.105886
-0.0851245
-0.0554888
-0.0286597
0.0110608
0.0398591
0.0586928
0.116323
0.162009
0.192177
0.216542
0.232372
0.239514
0.241487
-0.0518089
-0.0527702
-0.0543524
-0.0570215
-0.0589963
-0.0590979
-0.0556191
-0.0468449
-0.0306134
-0.0143992
0.0121678
0.0346707
0.0489576
0.0914096
0.121978
0.142897
0.157346
0.165183
0.167943
0.16795
0.000997385
0.000394499
-0.00104813
-0.00499814
-0.0108795
-0.0159424
-0.0184175
-0.0171039
-0.0102712
-0.00214442
0.0138434
0.031162
0.0424195
0.0706667
0.090251
0.102708
0.110516
0.11314
0.112443
0.111336
0.0312152
0.0307241
0.0293607
0.0250302
0.0175232
0.0102835
0.0046396
0.00175733
0.00335589
0.00712595
0.0161981
0.0270326
0.0351789
0.0514457
0.0634907
0.070638
0.0739313
0.0739185
0.0722569
0.0707979
0.0448432
0.0444472
0.0432349
0.0393473
0.032196
0.0247044
0.0179292
0.0130765
0.0120208
0.0134714
0.0190411
0.0241818
0.0288225
0.0371402
0.0428958
0.0464402
0.0480369
0.047315
0.0458453
0.044136
0.0490036
0.0486712
0.0476719
0.0445152
0.0387015
0.0322593
0.025861
0.020507
0.018165
0.0175722
0.0208959
0.022126
0.0229899
0.0271403
0.0297396
0.0310837
0.0308226
0.0286808
0.0267416
0.0252693
0.0482199
0.0479669
0.0472151
0.0449557
0.0407315
0.035704
0.0304349
0.0253227
0.022426
0.0202081
0.0218832
0.0219618
0.0202741
0.0220886
0.023544
0.0232722
0.0222332
0.0199557
0.0177719
0.016414
0.0453341
0.0451553
0.0446074
0.04301
0.0399316
0.0361268
0.0319749
0.0275087
0.0247028
0.0218291
0.0223959
0.0220401
0.0214599
0.0230884
0.0237821
0.0236099
0.0219985
0.0207377
0.0194472
0.0179618
0.041274
0.0411581
0.0407446
0.0396768
0.0374127
0.0345798
0.0313582
0.0277378
0.0254081
0.0227982
0.0228711
0.0232162
0.0235197
0.0252423
0.0261628
0.0264364
0.0257315
0.0247095
0.024048
0.0229873
0.0366881
0.03659
0.0362503
0.0355011
0.0338918
0.0319214
0.029519
0.0267391
0.0249115
0.0227093
0.0232181
0.0237333
0.0246969
0.027111
0.0282551
0.0284881
0.0302323
0.030826
0.0308634
0.0298079
0.0321036
0.0320124
0.0317532
0.0312516
0.0301047
0.0287804
0.0270313
0.0249977
0.0237182
0.0214811
0.0225033
0.0220919
0.0237478
0.0258056
0.0292239
0.0315894
0.0339984
0.0363392
0.037559
0.0359798
0.0279468
0.0278471
0.0276371
0.0272524
0.0264864
0.0256453
0.0244226
0.0228593
0.0219644
0.0197789
0.0201941
0.0199412
0.0225152
0.0241555
0.02857
0.033949
0.0363126
0.0387247
0.0407794
0.039307
0.0243121
0.0242064
0.0241072
0.02383
0.0232587
0.0227127
0.0218767
0.0203185
0.019439
0.0175233
0.0175045
0.0168274
0.0180958
0.0223748
0.0280327
0.0331631
0.0385787
0.0401954
0.0408448
0.0401778
0.0209508
0.020825
0.0207294
0.0205203
0.0201567
0.019736
0.0193545
0.0182841
0.0174967
0.0150402
0.0139481
0.012111
0.0116716
0.0156134
0.0245147
0.0302796
0.0353897
0.0378247
0.0379671
0.0368166
0.017867
0.0177506
0.0177059
0.0175192
0.017291
0.0169126
0.0169419
0.0159861
0.01546
0.01277
0.00960006
0.00827119
0.00630189
0.010255
0.0181357
0.0242996
0.0265324
0.0290699
0.0307519
0.029559
0.0147741
0.0146376
0.0146722
0.0147402
0.0148002
0.0141954
0.013936
0.0133435
0.0129634
0.011956
0.00832751
0.00603235
0.00125111
0.0090341
0.0152145
0.0179623
0.0235659
0.0273006
0.0294557
0.0285862
0.0111424
0.0110182
0.0110248
0.011064
0.0109538
0.010456
0.00971513
0.0101907
0.0133037
0.0118466
0.00951696
0.00534642
0.000636843
0.0068929
0.012659
0.0165693
0.0234573
0.026502
0.0266798
0.0255842
0.00747805
0.00714264
0.0068448
0.00682176
0.00636019
0.00593971
0.00555263
0.00619268
0.00920816
0.0125981
0.0146854
0.0109851
0.00111269
0.00285402
0.00622668
0.00987618
0.00976565
0.00832101
0.00831668
0.008326
0.00320665
0.00319367
0.00274672
0.00141585
-0.000160582
-0.000837456
-0.0015646
-0.0004825
0.00422624
0.0114814
0.0205782
0.0151821
0.00474478
0.00506269
-0.00265371
-0.00753189
-0.0112703
-0.0123615
-0.0103483
-0.0095093
-1.06213
-0.211304
0.0591039
0.338678
0.524444
0.684542
0.816345
0.950319
1.09542
1.17481
-0.0722013
0.339321
0.359214
0.549838
0.677912
0.792431
0.891405
0.97916
1.00747
0.964628
0.311806
0.528683
0.566986
0.704993
0.793623
0.875699
0.943228
0.993827
0.996503
1.00999
0.54583
0.691753
0.727776
0.832436
0.889446
0.94936
0.994903
1.0277
1.03705
1.06053
0.727293
0.830921
0.86068
0.930575
0.974827
1.01728
1.04986
1.07437
1.08438
1.1158
0.872865
0.942891
0.973404
1.01735
1.05381
1.08449
1.10915
1.12998
1.14433
1.1725
0.993326
1.04462
1.07036
1.09879
1.12691
1.15097
1.17117
1.19051
1.20555
1.23196
1.09789
1.13518
1.15651
1.17746
1.19857
1.21817
1.2357
1.25389
1.26881
1.29246
1.19234
1.22159
1.23817
1.25362
1.26995
1.28617
1.3018
1.31879
1.33239
1.35471
1.28102
1.30151
1.31645
1.32982
1.34358
1.35746
1.37098
1.38558
1.39711
1.41675
1.36666
1.38264
1.3966
1.40849
1.42047
1.4321
1.44322
1.45488
1.46253
1.47935
1.45232
1.46505
1.47881
1.49048
1.50106
1.51081
1.51958
1.52781
1.53135
1.54262
1.54131
1.5524
1.56589
1.57513
1.58255
1.58974
1.5969
1.6034
1.60444
1.61185
1.63986
1.64453
1.65255
1.65704
1.66033
1.6648
1.67082
1.67855
1.68241
1.69229
1.75296
1.73935
1.73198
1.7264
1.72374
1.72514
1.73157
1.74396
1.75875
1.78841
1.8742
1.81841
1.78752
1.77038
1.76222
1.76218
1.77094
1.79051
1.82243
1.89165
)
;

boundaryField
{
    wall-4
    {
        type            zeroGradient;
    }
    pressure-outlet-7
    {
        type            fixedValue;
        value           uniform 0;
    }
    velocity-inlet-6
    {
        type            zeroGradient;
    }
    velocity-inlet-5
    {
        type            zeroGradient;
    }
    frontAndBackPlanes
    {
        type            empty;
    }
}


// ************************************************************************* //
