/*--------------------------------*- C++ -*----------------------------------*\
  =========                 |
  \\      /  F ield         | OpenFOAM: The Open Source CFD Toolbox
   \\    /   O peration     | Website:  https://openfoam.org
    \\  /    A nd           | Version:  9
     \\/     M anipulation  |
\*---------------------------------------------------------------------------*/
FoamFile
{
    format      ascii;
    class       surfaceScalarField;
    location    "39";
    object      phi;
}
// * * * * * * * * * * * * * * * * * * * * * * * * * * * * * * * * * * * * * //

dimensions      [0 3 -1 0 0 0 0];

internalField   nonuniform List<scalar> 
4262
(
0.10715
0.470838
0.0955898
0.705146
0.0694324
0.85846
0.0474583
1.02074
0.0310767
1.2149
0.0198603
1.44944
0.0124918
1.73323
0.00732663
2.0762
0.00339537
2.48917
-0.000227962
2.98592
-0.00386258
2.98593
-0.00780144
2.48918
-0.0129099
2.07614
-0.0202092
1.73316
-0.0312492
1.44926
-0.0473683
1.21464
-0.06914
1.02054
-0.0953363
0.858499
-0.107108
0.705357
0.47088
0.112895
0.357944
0.135345
0.682695
0.120466
0.873339
0.0979245
1.04328
0.0747291
1.23809
0.0529858
1.47118
0.0344774
1.75174
0.0201861
2.09049
0.00891449
2.50045
-0.00114915
2.99598
-0.0111273
2.9959
-0.0220293
2.50008
-0.0360425
2.09016
-0.0543923
1.75151
-0.0761578
1.47103
-0.0997367
1.23821
-0.12275
1.04355
-0.136653
0.872402
-0.113439
0.682144
0.357441
0.092052
0.265892
0.124989
0.649758
0.121111
0.877218
0.104858
1.05953
0.086278
1.25667
0.0672827
1.49017
0.0484288
1.77059
0.0305027
2.10842
0.0140808
2.51687
-0.00178734
3.01185
-0.0175994
3.01172
-0.0339255
2.51641
-0.0516287
2.10786
-0.0699347
1.76982
-0.088256
1.48935
-0.105741
1.2557
-0.120338
1.05815
-0.125327
0.877391
-0.0923408
0.649158
0.2651
0.0640973
0.201794
0.105056
0.6088
0.106913
0.87536
0.0955311
1.07091
0.0815189
1.27069
0.0667672
1.50493
0.0506897
1.78667
0.0335424
2.12557
0.015822
2.53459
-0.00292803
3.0306
-0.0214076
3.0302
-0.0385721
2.53357
-0.0548855
2.12417
-0.0701892
1.78512
-0.0842002
1.50336
-0.09791
1.26941
-0.109536
1.06977
-0.106662
0.874517
-0.0647446
0.60724
0.200356
0.037519
0.164275
0.0807865
0.565533
0.0911077
0.865039
0.0839331
1.07809
0.0713342
1.28328
0.0594797
1.51678
0.0467169
1.79943
0.0320202
2.14026
0.0153618
2.55125
-0.00348295
3.04944
-0.022017
3.04873
-0.0380295
2.54959
-0.0520323
2.13818
-0.0642668
1.79736
-0.075752
1.51484
-0.0878658
1.28152
-0.0943326
1.07624
-0.0827932
0.862978
-0.0382394
0.562687
0.162116
0.0194644
0.144811
0.0572764
0.527721
0.0727773
0.849538
0.0708065
1.08006
0.0621561
1.29193
0.0513575
1.52758
0.0401256
1.81067
0.0275818
2.15281
0.012578
2.56625
-0.00504295
3.06706
-0.0223189
3.06601
-0.0364484
2.56372
-0.0480251
2.14975
-0.0580621
1.80739
-0.067859
1.52464
-0.0755492
1.28921
-0.0765062
1.0772
-0.059623
0.846094
-0.0202448
0.523308
0.141872
0.0107044
0.134106
0.0426206
0.495804
0.0589117
0.833247
0.0593631
1.07961
0.0534452
1.29785
0.0443173
1.53671
0.0340634
1.82092
0.0227254
2.16414
0.00969072
2.57929
-0.0059674
3.08272
-0.0212502
3.08129
-0.033434
2.5759
-0.0435534
2.15987
-0.0527873
1.81663
-0.060867
1.53272
-0.065512
1.29386
-0.0636418
1.07532
-0.0454628
0.827915
-0.0115803
0.489426
0.130291
0.00666503
0.127441
0.0331984
0.469271
0.0496471
0.816798
0.0513037
1.07795
0.0464053
1.30275
0.0382679
1.54484
0.0287643
1.83042
0.0179238
2.17499
0.005837
2.59137
-0.0079028
3.09646
-0.0210363
3.09442
-0.0318643
2.58673
-0.0411783
2.16919
-0.0488735
1.82432
-0.0552884
1.53913
-0.0585363
1.29711
-0.055185
1.07197
-0.0365349
0.809265
-0.00768823
0.460579
0.122603
0.0047322
0.122709
0.026652
0.447351
0.0426251
0.800825
0.0448956
1.07568
0.0404094
1.30724
0.0330045
1.55225
0.0242481
1.83918
0.0141752
2.18506
0.00290257
2.60264
-0.00959412
3.10896
-0.021507
3.10634
-0.0313164
2.59654
-0.0395113
2.17738
-0.0463866
1.8312
-0.0520696
1.54482
-0.0547022
1.29974
-0.050104
1.06738
-0.031012
0.790173
-0.00607272
0.43564
0.11653
0.00376075
0.118948
0.0217497
0.429362
0.0369467
0.785628
0.039864
1.07276
0.0357148
1.31139
0.0285753
1.55939
0.0202083
1.84755
0.0106547
2.19461
-0.000143737
2.61344
-0.0121279
3.12094
-0.0232028
3.11741
-0.032002
2.60534
-0.039344
2.18472
-0.0454293
1.83728
-0.0502044
1.54959
-0.051908
1.30144
-0.0460241
1.06149
-0.0269833
0.771132
-0.00538617
0.414043
0.111144
0.00308059
0.115868
0.0176724
0.41477
0.0319073
0.771393
0.0351294
1.06954
0.0312105
1.31531
0.0243937
1.56621
0.0164289
1.85551
0.00726674
2.20377
-0.0031298
2.62384
-0.0148438
3.13266
-0.0256242
3.12819
-0.0337393
2.61345
-0.0399854
2.19097
-0.0450947
1.84239
-0.0492174
1.55371
-0.0500146
1.30224
-0.0428758
1.05435
-0.0239039
0.752161
-0.00502749
0.395166
0.106117
0.0023808
0.113487
0.0136844
0.403467
0.026255
0.758823
0.029763
1.06603
0.0263212
1.31875
0.0197482
1.57278
0.0117505
1.86351
0.00270739
2.21282
-0.00748101
2.63403
-0.0187114
3.14389
-0.0285879
3.13807
-0.035851
2.62072
-0.041397
2.19652
-0.0458099
1.84681
-0.0486722
1.55658
-0.0481361
1.3017
-0.0398631
1.04608
-0.0213245
0.733622
-0.00475695
0.378599
0.10136
0.00148708
0.112
0.00971902
0.395235
0.0204066
0.748135
0.0234086
1.06303
0.0201387
1.32202
0.0141848
1.57873
0.00673095
1.87096
-0.00204802
2.2216
-0.0120058
2.64399
-0.0225585
3.15444
-0.0317295
3.14724
-0.0383588
2.62734
-0.042894
2.20105
-0.0462335
1.85015
-0.0477382
1.55808
-0.0464161
1.30038
-0.0372944
1.03696
-0.0191763
0.715504
-0.00442914
0.363852
0.0969306
0.000717683
0.111282
0.00658783
0.389365
0.015392
0.739331
0.0177404
1.06068
0.0140005
1.32576
0.00764893
1.58508
-2.43897e-05
1.87864
-0.00871414
2.23029
-0.0182261
2.6535
-0.0280801
3.16429
-0.0360388
3.1552
-0.0411942
2.6325
-0.0446133
2.20447
-0.0467603
1.85229
-0.0475428
1.55886
-0.0453552
1.29819
-0.0353479
1.02695
-0.0177066
0.697863
-0.00426625
0.350411
0.0926644
2.04906e-05
0.111262
0.00325285
0.386132
0.00949945
0.733084
0.0108102
1.05937
0.00666374
1.3299
-2.17329e-05
1.59177
-0.00802883
1.88664
-0.0168471
2.2391
-0.0259526
2.6626
-0.034592
3.17293
-0.0408986
3.1615
-0.0445826
2.63618
-0.0468393
2.20673
-0.0484459
1.8539
-0.0484976
1.55892
-0.0452909
1.29499
-0.0345227
1.01618
-0.017003
0.680343
-0.00429227
0.337701
0.0883721
-0.000840817
0.112103
-0.000270378
0.385562
0.00393367
0.72888
0.00411978
1.05919
-0.00084249
1.33487
-0.00829014
1.59922
-0.0167518
1.89511
-0.0256146
2.24797
-0.0342747
2.67126
-0.0421113
3.18077
-0.0474836
3.16688
-0.0500359
2.63874
-0.0511512
2.20784
-0.0516105
1.85436
-0.0504509
1.55776
-0.0459283
1.29046
-0.0338667
1.00412
-0.0164686
0.662945
-0.0043535
0.325586
0.0840186
-0.00201811
0.114121
-0.00385847
0.387402
-0.00338994
0.728412
-0.00455021
1.06035
-0.00969679
1.34001
-0.0173226
1.60684
-0.0260608
1.90384
-0.0352434
2.25715
-0.044598
2.68062
-0.052711
3.18888
-0.0569941
3.17116
-0.0579321
2.63967
-0.0573331
2.20724
-0.0559058
1.85293
-0.0529569
1.55481
-0.0469171
1.28442
-0.0337174
0.990921
-0.0162268
0.645454
-0.00438958
0.313748
0.079629
-0.00332078
0.117442
-0.00765708
0.391739
-0.0101982
0.730953
-0.0132505
1.0634
-0.0194376
1.3462
-0.027845
1.61525
-0.0371375
1.91314
-0.0469161
2.26693
-0.0562516
2.68995
-0.0637364
3.19637
-0.0672944
3.17472
-0.0671287
2.63951
-0.0648959
2.20501
-0.0620388
1.85007
-0.0576857
1.55045
-0.0493808
1.27612
-0.0343369
0.975877
-0.0164923
0.62761
-0.00458885
0.301845
0.0750402
-0.00486919
0.122311
-0.0128603
0.39973
-0.0192867
0.737379
-0.0250693
1.06918
-0.03195
1.35308
-0.0410678
1.62437
-0.0513465
1.92342
-0.0619043
2.27749
-0.0719704
2.70002
-0.0794309
3.20383
-0.0811397
3.17643
-0.0785586
2.63693
-0.0739887
2.20044
-0.0685635
1.84465
-0.0619725
1.54386
-0.0518379
1.26599
-0.035608
0.959647
-0.0173429
0.609345
-0.00492509
0.289427
0.0701151
-0.00632312
0.128634
-0.0180714
0.411478
-0.0289092
0.748217
-0.0372675
1.07754
-0.046064
1.36188
-0.0568934
1.6352
-0.0684923
1.93501
-0.0803481
2.28934
-0.0903587
2.71003
-0.0958959
3.20936
-0.0952657
3.1758
-0.0912361
2.6329
-0.0851604
2.19437
-0.0782008
1.83769
-0.0695758
1.53524
-0.0568131
1.25322
-0.0383037
0.941138
-0.0189387
0.58998
-0.00542899
0.275917
0.0646861
-0.00865655
0.13729
-0.0249216
0.427743
-0.0409075
0.764203
-0.0529184
1.08955
-0.063351
1.37231
-0.0755377
1.64738
-0.0889738
1.94845
-0.102228
2.3026
-0.113342
2.72114
-0.11927
3.21529
-0.117581
3.17411
-0.110461
2.62578
-0.100744
2.18465
-0.0899784
1.82692
-0.0783308
1.52359
-0.0631936
1.23809
-0.0427832
0.920728
-0.0216239
0.56882
-0.00617377
0.260467
0.0585123
-0.0109121
0.148203
-0.0313399
0.448171
-0.0523025
0.785165
-0.0685439
1.10579
-0.0828704
1.38664
-0.0987974
1.66331
-0.114731
1.96438
-0.129726
2.31759
-0.140899
2.73232
-0.144562
3.21895
-0.138746
3.16829
-0.128501
2.61553
-0.117084
2.17323
-0.10532
1.81516
-0.0916997
1.50997
-0.0733393
1.21972
-0.0494207
0.896809
-0.0250896
0.544489
-0.00703473
0.242412
0.0514776
-0.0155973
0.1638
-0.0431626
0.475736
-0.0703891
0.812392
-0.0919203
1.12732
-0.110094
1.40481
-0.128961
1.68218
-0.147709
1.98313
-0.164008
2.33389
-0.174966
2.74328
-0.177385
3.22137
-0.16992
3.16083
-0.156776
2.60239
-0.141074
2.15753
-0.124442
1.79853
-0.106806
1.49233
-0.085203
1.19812
-0.0577556
0.869362
-0.0294223
0.516156
-0.00809947
0.22109
0.0433781
-0.0196255
0.183425
-0.0556347
0.511745
-0.0919139
0.848671
-0.119981
1.15539
-0.144094
1.42892
-0.168373
1.70646
-0.1898
2.00456
-0.20673
2.35082
-0.216081
2.75263
-0.214054
3.21935
-0.199939
3.14671
-0.181132
2.58358
-0.16256
2.13896
-0.144953
1.78092
-0.12547
1.47285
-0.0998158
1.17247
-0.0670334
0.836579
-0.0334453
0.482568
-0.0088273
0.196472
0.0345508
-0.0328226
0.216248
-0.0812638
0.560186
-0.12662
0.894027
-0.162107
1.19088
-0.192783
1.4596
-0.220168
1.73384
-0.242664
2.02706
-0.258793
2.36695
-0.265561
2.7594
-0.259575
3.21336
-0.241635
3.12877
-0.219975
2.56192
-0.197469
2.11645
-0.173834
1.75729
-0.148198
1.44722
-0.116698
1.14097
-0.0775673
0.797449
-0.0381473
0.443148
-0.00963296
0.167957
0.0249179
-0.047231
0.263479
-0.119365
0.632321
-0.179835
0.954497
-0.222354
1.2334
-0.258002
1.49524
-0.287343
1.76318
-0.308607
2.04832
-0.321277
2.37962
-0.322538
2.76066
-0.309412
3.20023
-0.284207
3.10357
-0.255642
2.53336
-0.227766
2.08857
-0.202294
1.73181
-0.174233
1.41915
-0.136154
1.10289
-0.0884514
0.749746
-0.0410916
0.395788
-0.009539
0.136405
0.0153789
-0.0332578
0.296737
-0.094458
0.693521
-0.150284
1.01032
-0.196494
1.27961
-0.239183
1.53793
-0.275392
1.79939
-0.309091
2.08202
-0.338381
2.40891
-0.358828
2.7811
-0.36458
3.20599
-0.351648
3.09063
-0.328425
2.51013
-0.300115
2.06026
-0.263398
1.6951
-0.216646
1.3724
-0.158641
1.04488
-0.0933956
0.684501
-0.037772
0.340164
-0.00829145
0.106924
0.00708741
-0.0118804
0.308617
-0.0447493
0.72639
-0.0845315
1.05011
-0.122782
1.31786
-0.160314
1.57547
-0.19418
1.83326
-0.225051
2.11289
-0.250415
2.43427
-0.266421
2.79711
-0.267446
3.20701
-0.250644
3.07383
-0.223226
2.48271
-0.186994
2.02403
-0.147629
1.65573
-0.107064
1.33184
-0.0649878
1.00281
-0.028531
0.648044
-0.00706148
0.318695
-0.000810108
0.100673
0.0062773
0.00138558
0.307232
-0.0215463
0.749322
-0.0499872
1.07855
-0.0794591
1.34733
-0.109692
1.6057
-0.139461
1.86303
-0.167116
2.14055
-0.189961
2.45712
-0.204653
2.8118
-0.205046
3.2074
-0.18791
3.0567
-0.158585
2.45339
-0.124232
1.98968
-0.0867651
1.61827
-0.0467755
1.29185
-0.0110381
0.96707
0.00990982
0.627096
0.0112884
0.317316
0.00406384
0.107897
0.0103411
0.00195165
0.30528
-0.00986379
0.761137
-0.030676
1.09936
-0.0549555
1.37161
-0.0799106
1.63065
-0.104745
1.88786
-0.128438
2.16424
-0.148163
2.47684
-0.159517
2.82316
-0.157442
3.20533
-0.140786
3.04004
-0.114176
2.42678
-0.0806256
1.95613
-0.0441852
1.58183
-0.0125008
1.26016
0.0106875
0.943881
0.0202167
0.617567
0.015829
0.321704
0.00539776
0.118328
0.0157389
0.00460229
0.300678
-0.0033543
0.769094
-0.0206158
1.11662
-0.0405737
1.39157
-0.0615794
1.65166
-0.0830735
1.90936
-0.103969
2.18513
-0.12173
2.4946
-0.133163
2.83459
-0.13308
3.20525
-0.116127
3.02309
-0.0891569
2.39981
-0.059957
1.92693
-0.0299687
1.55184
-0.000163349
1.23036
0.0198424
0.923876
0.0247077
0.612702
0.0170603
0.329351
0.00555877
0.12983
0.0212977
0.00557162
0.295106
0.000198068
0.774467
-0.0150558
1.13187
-0.0328685
1.40938
-0.0512933
1.67008
-0.0701535
1.92822
-0.0887009
2.20368
-0.104507
2.51041
-0.113807
2.84389
-0.110442
3.20188
-0.094883
3.00753
-0.0736467
2.37857
-0.0474428
1.90072
-0.0190959
1.52349
0.00367488
1.20759
0.0185746
0.908976
0.022149
0.609127
0.0143352
0.337165
0.00454003
0.139625
0.0258377
0.00407762
0.291028
0.000394138
0.778151
-0.0122932
1.14456
-0.0283739
1.42546
-0.0452477
1.68696
-0.0626312
1.9456
-0.0799243
2.22097
-0.0952706
2.52575
-0.105783
2.8544
-0.107575
3.20367
-0.0947313
2.99468
-0.072259
2.3561
-0.0465433
1.87501
-0.0226011
1.49955
-0.000709293
1.1857
0.0132377
0.895029
0.0159047
0.60646
0.0103539
0.342716
0.00313598
0.146843
0.0289737
0.00259864
0.28843
-0.000689107
0.781438
-0.0122659
1.15614
-0.0270239
1.44022
-0.0426892
1.70262
-0.0589028
1.96181
-0.0753629
2.23743
-0.0901556
2.54055
-0.0995471
2.86379
-0.0982618
3.20239
-0.0846071
2.98103
-0.0663301
2.33782
-0.0463968
1.85508
-0.024085
1.47724
-0.00637638
1.16799
0.00531136
0.883341
0.00909311
0.602679
0.00560193
0.346207
0.00189535
0.15055
0.030869
7.41866e-05
0.288356
-0.0030802
0.784593
-0.013328
1.16639
-0.0264284
1.45332
-0.0413509
1.71755
-0.0570781
1.97754
-0.073104
2.25346
-0.0877988
2.55524
-0.0987398
2.87473
-0.101439
3.20509
-0.0910726
2.97066
-0.0710349
2.31779
-0.0491708
1.83321
-0.0322223
1.46029
-0.0154344
1.1512
-0.0045999
0.872507
-0.000620779
0.598699
-0.000169387
0.345756
9.73239e-05
0.150283
0.0309664
-0.000580476
0.288936
-0.00557184
0.789584
-0.0151873
1.176
-0.0274248
1.46556
-0.0415139
1.73164
-0.0566059
1.99263
-0.072497
2.26935
-0.0877137
2.57046
-0.0990191
2.88604
-0.100219
3.20629
-0.0901511
2.9606
-0.0759924
2.30363
-0.0589638
1.81618
-0.0389211
1.44024
-0.0247859
1.13706
-0.0138149
0.861536
-0.00673839
0.591623
-0.00417326
0.34319
-0.00117143
0.147281
0.0297949
-0.00250074
0.291437
-0.00758549
0.794669
-0.0166129
1.18503
-0.0281614
1.4771
-0.0417431
1.74522
-0.0566912
2.00758
-0.0726732
2.28533
-0.0881402
2.58592
-0.100339
2.89824
-0.106256
3.2122
-0.0999765
2.95432
-0.0826283
2.28628
-0.0631268
1.79668
-0.0478548
1.42497
-0.0324534
1.12166
-0.0208399
0.849922
-0.0131867
0.58397
-0.00632065
0.336324
-0.00181112
0.142772
0.0279838
-0.00385266
0.29529
-0.00937902
0.800195
-0.0183142
1.19396
-0.0295484
1.48834
-0.0425921
1.75826
-0.0570803
2.02207
-0.0729708
2.30122
-0.0889582
2.60191
-0.102743
2.91202
-0.109597
3.21906
-0.102023
2.94674
-0.0890108
2.27327
-0.0729706
1.78064
-0.054503
1.40651
-0.0400169
1.10718
-0.0273786
0.837284
-0.0168113
0.573402
-0.0088709
0.328384
-0.00252567
0.136426
0.0254581
-0.00436037
0.29965
-0.0105364
0.806371
-0.0193858
1.20281
-0.0302125
1.49917
-0.0429033
1.77095
-0.0572627
2.03643
-0.0733263
2.31729
-0.090035
2.61862
-0.105012
2.927
-0.113803
3.22785
-0.11219
2.94513
-0.0989674
2.26005
-0.0794308
1.7611
-0.062771
1.38985
-0.0458517
1.09026
-0.0323403
0.823773
-0.0210948
0.562157
-0.00964964
0.316939
-0.0026317
0.129408
0.0228264
-0.00447046
0.30412
-0.0113249
0.813226
-0.0203395
1.21183
-0.0310304
1.50986
-0.0433919
1.78331
-0.0574467
2.05048
-0.0735113
2.33335
-0.0906471
2.63576
-0.106895
2.94325
-0.119055
3.24001
-0.118806
2.94488
-0.106961
2.2482
-0.0906402
1.74478
-0.0690359
1.36824
-0.0516429
1.07287
-0.0359008
0.80803
-0.0217788
0.548035
-0.0104226
0.305583
-0.00256837
0.121554
0.0202581
-0.00453835
0.308659
-0.0117929
0.82048
-0.0207073
1.22074
-0.0311081
1.52026
-0.0432469
1.79545
-0.0572173
2.06445
-0.0733757
2.34951
-0.0910337
2.65341
-0.108691
2.96091
-0.122431
3.25375
-0.125222
2.94767
-0.116215
2.23919
-0.0964933
1.72506
-0.0761651
1.34791
-0.0545852
1.05129
-0.0374085
0.790854
-0.0233243
0.533951
-0.00971321
0.291972
-0.00213044
0.113971
0.0181276
-0.00460229
0.313261
-0.0120169
0.827895
-0.0208841
1.22961
-0.0311896
1.53056
-0.0431156
1.80738
-0.056815
2.07815
-0.0728551
2.36555
-0.0907901
2.67135
-0.109391
2.97951
-0.125849
3.27021
-0.132967
2.95479
-0.124639
2.23087
-0.108067
1.70849
-0.0829906
1.32284
-0.0586802
1.02697
-0.0359325
0.768106
-0.0180806
0.516099
-0.00738602
0.281277
-0.00119515
0.10778
0.0169325
-0.00466396
0.317925
-0.0121191
0.83535
-0.0207271
1.23822
-0.0307033
1.54054
-0.042366
1.81904
-0.0559176
2.0917
-0.0719655
2.3816
-0.0903113
2.6897
-0.110175
2.99937
-0.128552
3.28858
-0.13745
2.96369
-0.132958
2.22637
-0.114986
1.69052
-0.0907613
1.29861
-0.060116
0.99633
-0.0331108
0.741101
-0.012664
0.495652
-0.00209019
0.270703
-0.00202632
0.107717
0.0149062
-0.00462626
0.322551
-0.0119623
0.842686
-0.020394
1.24665
-0.0301858
1.55033
-0.0415836
1.83044
-0.0548498
2.10497
-0.0707441
2.39749
-0.0892277
2.70818
-0.109461
3.01961
-0.129474
3.3086
-0.142424
2.97664
-0.141372
2.22532
-0.128283
1.67743
-0.100055
1.27038
-0.0646105
0.960885
-0.0240608
0.700551
0.0126362
0.458955
0.0296543
0.253685
0.0233922
0.113979
0.0382984
-0.00452751
0.327079
-0.0117623
0.849921
-0.0198862
1.25477
-0.0292778
1.55972
-0.0403232
1.84148
-0.0533713
2.11802
-0.0691379
2.41326
-0.0876874
2.72673
-0.108855
3.04077
-0.131279
3.33102
-0.14568
2.99104
-0.149545
2.22919
-0.136034
1.66392
-0.110579
1.24493
-0.0679703
0.918276
-0.0209812
0.653562
0.0282847
0.409689
0.0413216
0.240648
0.018015
0.137285
0.0563133
-0.00432169
0.3314
-0.011321
0.85692
-0.0192051
1.26266
-0.0283324
1.56885
-0.0390927
1.85224
-0.0517968
2.13072
-0.0672914
2.42875
-0.0858173
2.74525
-0.107223
3.06218
-0.130315
3.35411
-0.148483
3.0092
-0.155473
2.23618
-0.150877
1.65932
-0.1255
1.21955
-0.082601
0.875377
-0.0109512
0.581912
0.0915683
0.30717
0.179901
0.152316
0.178257
0.138929
0.23457
-0.00418374
0.335584
-0.0111266
0.863863
-0.0189089
1.27044
-0.0279603
1.5779
-0.03887
1.86315
-0.0520555
2.14391
-0.0684453
2.44514
-0.0884856
2.76529
-0.112746
3.08644
-0.141072
3.38244
-0.164608
3.03274
-0.178169
2.24974
-0.175056
1.65621
-0.15542
1.19992
-0.109413
0.82937
-0.0584941
0.530993
-0.0924686
0.341144
-0.360932
0.420779
-0.935199
0.713196
0.89739
-1.59802
-0.0039751
0.339559
-0.0106652
0.870553
-0.0182828
1.27806
-0.0272542
1.58687
-0.0381
1.874
-0.0513474
2.15716
-0.0680875
2.46188
-0.0890239
2.78623
-0.114847
3.11226
-0.145596
3.41319
-0.174807
3.06195
-0.19388
2.26881
-0.208938
1.67127
-0.203795
1.19477
-0.188275
0.813849
-0.271356
0.614075
-0.691486
0.761274
-1.4274
1.1567
-2.0384
1.32419
1.21836
-2.35936
-0.00377328
0.343333
-0.0102483
0.877028
-0.0176028
1.28541
-0.0263133
1.59558
-0.0369982
1.88468
-0.0503406
2.1705
-0.0674384
2.47898
-0.089164
2.80796
-0.116966
3.14006
-0.152482
3.4487
-0.187667
3.09714
-0.217491
2.29864
-0.234396
1.68817
-0.235356
1.19573
-0.322698
0.901191
-0.751324
1.0427
-1.52708
1.53703
-2.10119
1.73081
-2.34279
1.56579
1.33358
-2.45802
-0.00354889
0.346881
-0.00963623
0.883116
-0.0167352
1.29251
-0.0252954
1.60414
-0.0358477
1.89524
-0.0491784
2.18383
-0.0665188
2.49632
-0.0890319
2.83047
-0.118331
3.16936
-0.156215
3.48659
-0.197451
3.13837
-0.231808
2.33299
-0.268606
1.72497
-0.356941
1.28407
-0.694393
1.23864
-1.42568
1.77399
-2.01992
2.13128
-2.26147
1.97236
-2.3758
1.68012
1.39899
-2.44121
-0.00329415
0.350176
-0.00904944
0.888871
-0.015805
1.29927
-0.0240351
1.61237
-0.034421
1.90562
-0.0477551
2.19716
-0.0653109
2.51388
-0.0884344
2.85359
-0.119485
3.20041
-0.16225
3.52935
-0.210799
3.18692
-0.260171
2.38237
-0.309008
1.77381
-0.487446
1.46251
-1.0858
1.83699
-1.77713
2.46532
-2.10362
2.45777
-2.25386
2.1226
-2.33672
1.76298
1.46481
-2.40254
-0.00319867
0.353374
-0.00879131
0.894464
-0.0155394
1.30601
-0.0238852
1.62072
-0.0345483
1.91629
-0.0481304
2.21075
-0.066161
2.53191
-0.0902479
2.87768
-0.12289
3.23306
-0.167869
3.57433
-0.222645
3.2417
-0.273324
2.43304
-0.367489
1.86797
-0.751701
1.84672
-1.48115
2.56644
-1.96023
2.9444
-2.1614
2.65893
-2.26837
2.22957
-2.34554
1.84014
1.52894
-2.40967
-0.00329081
0.356665
-0.00919924
0.900372
-0.0162888
1.3131
-0.0249895
1.62942
-0.0361224
1.92742
-0.0503778
2.225
-0.0692745
2.55081
-0.0944879
2.90289
-0.129091
3.26766
-0.179276
3.62452
-0.238804
3.30122
-0.307163
2.5014
-0.497197
2.058
-1.04142
2.39094
-1.67006
3.19509
-1.95096
3.22531
-2.09917
2.80714
-2.21383
2.34423
-2.30767
1.93398
1.59124
-2.36997
-0.00330399
0.359969
-0.00942312
0.906491
-0.0169524
1.32063
-0.0262379
1.63871
-0.0379422
1.93912
-0.0528253
2.23988
-0.0725681
2.57055
-0.0991042
2.92943
-0.135554
3.30411
-0.187394
3.67636
-0.251804
3.36564
-0.342628
2.59223
-0.62131
2.33669
-1.25506
3.02469
-1.74919
3.68921
-1.95791
3.43403
-2.09967
2.9489
-2.22451
2.46908
-2.33647
2.04594
1.65037
-2.3956
-0.00328849
0.363258
-0.00978107
0.912984
-0.0177468
1.3286
-0.027447
1.64841
-0.0396559
1.95133
-0.0552791
2.25551
-0.075949
2.59122
-0.103614
2.95709
-0.141871
3.34237
-0.19825
3.73274
-0.268831
3.43622
-0.394268
2.71766
-0.77305
2.71547
-1.40207
3.65371
-1.76068
4.04782
-1.93538
3.60873
-2.03916
3.05268
-2.12957
2.55949
-2.1986
2.11496
1.6438
-2.19203
-0.00317606
0.366434
-0.00979542
0.919603
-0.0182581
1.33706
-0.0286549
1.6588
-0.0415466
1.96422
-0.0578346
2.2718
-0.0793564
2.61274
-0.108358
2.9861
-0.148463
3.38247
-0.205144
3.78942
-0.284429
3.5155
-0.454733
2.88797
-0.900672
3.16141
-1.45555
4.20859
-1.72108
4.31335
-1.87635
3.764
-1.97139
3.14771
-1.97497
2.56307
-1.90921
2.04921
1.61389
-1.8793
-0.00290995
0.369344
-0.00996165
0.926655
-0.0188343
1.34593
-0.0295437
1.66951
-0.0428057
1.97749
-0.0595834
2.28857
-0.0815522
2.63471
-0.110776
3.01532
-0.151083
3.42278
-0.208452
3.84679
-0.296235
3.60329
-0.497881
3.08961
-0.977737
3.64126
-1.42299
4.65385
-1.5933
4.48366
-1.66216
3.83286
-1.66844
3.15399
-1.52272
2.41735
-1.02413
1.55062
0.58976
-0.00251841
0.371862
-0.00953392
0.93367
-0.0189285
1.35533
-0.0305548
1.68114
-0.0449212
1.99185
-0.0629246
2.30658
-0.0866268
2.65841
-0.11856
3.04725
-0.162865
3.46708
-0.225224
3.90915
-0.327611
3.70567
-0.579738
3.34174
-1.11241
4.17393
-1.47654
5.01798
-1.57742
4.58454
-1.57721
3.83265
-1.47643
3.05321
-1.23844
2.17937
-0.639609
0.951782
-0.049849
-0.0020222
0.373884
-0.00920326
0.940851
-0.018997
1.36512
-0.0311115
1.69325
-0.0462693
2.00701
-0.0656293
2.32594
-0.091222
2.684
-0.125615
3.08165
-0.173947
3.51541
-0.243894
3.97909
-0.367336
3.82911
-0.674734
3.64914
-1.22711
4.72631
-1.49517
5.28604
-1.55672
4.64608
-1.53753
3.81345
-1.33692
2.85261
-0.792136
1.63458
-0.113121
0.272767
-0.16297
-0.00131855
0.375203
-0.0079775
0.94751
-0.0180969
1.37524
-0.0311573
1.70631
-0.0473834
2.02324
-0.067892
2.34644
-0.0951506
2.71126
-0.132286
3.11878
-0.18406
3.56719
-0.260588
4.05562
-0.405749
3.97428
-0.770587
4.01397
-1.30644
5.26217
-1.4886
5.4682
-1.51995
4.67743
-1.43543
3.72893
-1.11058
2.52776
-0.321934
0.845934
0.0279508
-0.0771178
-0.135019
-0.000509491
0.375712
-0.00656292
0.953564
-0.0168853
1.38556
-0.0302855
1.71971
-0.0470651
2.04002
-0.0688296
2.36821
-0.0978844
2.74032
-0.137156
3.15805
-0.191936
3.62197
-0.277924
4.14161
-0.451024
4.14737
-0.875308
4.43826
-1.34824
5.7351
-1.46892
5.58888
-1.47487
4.68337
-1.26143
3.5155
-0.70271
1.96904
-0.0656289
0.208852
0.0323157
-0.175062
-0.102704
0.00116243
0.37455
-0.00350821
0.958234
-0.0139745
1.39603
-0.0283727
1.73411
-0.0459818
2.05762
-0.0686764
2.3909
-0.0990323
2.77067
-0.140455
3.19948
-0.197561
3.67907
-0.291056
4.2351
-0.487685
4.344
-0.960564
4.91114
-1.34426
6.1188
-1.41312
5.65775
-1.37394
4.6442
-1.08645
3.22801
-0.339738
1.22233
-0.00290504
-0.12798
0.0119075
-0.189875
-0.0907961
0.00316765
0.371382
0.000363648
0.961038
-0.0104282
1.40682
-0.0247425
1.74843
-0.0423433
2.07523
-0.0660298
2.41459
-0.0976787
2.80232
-0.140454
3.24225
-0.200306
3.73893
-0.302246
4.33704
-0.523287
4.56505
-1.02132
5.40917
-1.30405
6.40153
-1.34521
5.69891
-1.21982
4.51881
-0.797715
2.8059
-0.0872004
0.511813
0.0451368
-0.260318
0.0258723
-0.17061
-0.0649238
0.00547402
0.365908
0.00427222
0.96224
-0.00492945
1.41602
-0.0190814
1.76258
-0.0371466
2.09329
-0.0612456
2.43869
-0.0933826
2.83446
-0.137314
3.28618
-0.198558
3.80017
-0.306217
4.4447
-0.551351
4.81018
-1.03545
5.89327
-1.23386
6.59994
-1.25133
5.71638
-1.04532
4.3128
-0.477007
2.23758
-0.00157767
0.0363834
0.0113408
-0.273236
0.0149314
-0.174201
-0.0499924
0.00836543
0.357543
0.00980831
0.960797
0.00261736
1.42321
-0.010254
1.77545
-0.0279639
2.111
-0.0522177
2.46294
-0.0845186
2.86676
-0.128141
3.32981
-0.190656
3.86269
-0.304236
4.55828
-0.566894
5.07284
-1.01168
6.33805
-1.14065
6.72891
-1.1278
5.70353
-0.883642
4.06864
-0.287217
1.64116
-0.0642486
-0.186585
-0.0375946
-0.29989
-0.0105708
-0.201225
-0.0605632
0.0123933
0.345149
0.0181485
0.955042
0.0135949
1.42777
0.00237648
1.78667
-0.0161241
2.1295
-0.0394174
2.48624
-0.070422
2.89776
-0.113334
3.37272
-0.174585
3.92394
-0.289394
4.67309
-0.554692
5.33814
-0.936821
6.72018
-1.01185
6.80394
-0.959013
5.65069
-0.703481
3.81311
-0.134774
1.07245
-0.0653949
-0.255963
-0.042228
-0.323057
-0.0152236
-0.228229
-0.0757869
0.0178461
0.327303
0.0291022
0.943786
0.0275758
1.42929
0.0177225
1.79652
0.00167382
2.14555
-0.0193265
2.50724
-0.048684
2.92712
-0.0890364
3.41307
-0.148039
3.98294
-0.261198
4.78625
-0.508702
5.58564
-0.81736
7.02884
-0.864126
6.85071
-0.773938
5.5605
-0.467242
3.50641
-0.00907366
0.614282
0.0150829
-0.28012
0.00701711
-0.314991
0.00232061
-0.223533
-0.0734662
0.0246097
0.302694
0.0435289
0.924867
0.0471462
1.42568
0.0398579
1.80381
0.0269634
2.15844
0.00786161
2.52634
-0.0185049
2.95349
-0.0547572
3.44932
-0.108013
4.0362
-0.21102
4.88926
-0.41992
5.79454
-0.640039
7.24896
-0.692954
6.90362
-0.590254
5.4578
-0.248063
3.16422
0.074942
0.291277
0.0611538
-0.266332
0.0561133
-0.309951
0.0389527
-0.206372
-0.0345135
0.0332201
0.269473
0.0619659
0.896121
0.0720962
1.41555
0.0697946
1.80611
0.0611145
2.16712
0.0453381
2.54212
0.0231761
2.97565
-0.00775625
3.48025
-0.0534295
4.08187
-0.135002
4.97083
-0.296982
5.95652
-0.43564
7.38762
-0.477916
6.9459
-0.439684
5.41957
-0.184953
2.90949
-0.073674
0.179998
-0.0516725
-0.288333
0.000867211
-0.36249
0.0344625
-0.239967
-5.09792e-05
0.0427904
0.226683
0.0847374
0.854174
0.104749
1.39554
0.108516
1.80234
0.104189
2.17145
0.0929813
2.55332
0.0778949
2.99074
0.0557044
3.50244
0.0203538
4.11722
-0.0251103
5.01629
-0.115767
6.04718
-0.197632
7.46948
-0.264501
7.01277
-0.367264
5.52233
-0.351263
2.89349
-0.564406
0.393141
-0.554143
-0.298597
-0.382388
-0.534244
-0.171828
-0.450527
-0.171879
0.0531671
0.173516
0.112165
0.795176
0.145573
1.36213
0.157619
1.7903
0.160164
2.16891
0.15491
2.55858
0.147431
2.99821
0.136408
3.51347
0.12297
4.13066
0.104784
5.03448
0.12307
6.02889
0.1377
7.45485
0.063303
7.08717
-0.107435
5.69307
-0.436881
3.22294
-0.807032
0.763291
-0.832238
-0.273391
-0.637525
-0.728957
-0.311413
-0.77664
-0.483292
0.0571386
0.116377
0.141005
0.711309
0.193916
1.30922
0.218638
1.76558
0.229663
2.15788
0.231811
2.55643
0.233816
2.99621
0.236839
3.51045
0.246847
4.12065
0.270868
5.01046
0.404518
5.89524
0.572845
7.28652
0.654646
7.00536
0.682333
5.66538
0.331487
3.57378
-0.218746
1.31352
-0.561738
0.0696009
-0.604345
-0.68635
-0.314236
-1.06675
-0.797528
0.050746
0.0656314
0.168823
0.593232
0.251923
1.22612
0.292373
1.72513
0.313963
2.13629
0.326199
2.54419
0.338156
2.98425
0.356504
3.4921
0.394352
4.0828
0.475598
4.92921
0.761367
5.60947
1.2598
6.78809
1.67499
6.59018
2.02014
5.32023
1.84604
3.74788
1.17023
1.98934
0.607593
0.632234
0.177663
-0.256421
-0.0230629
-0.866022
-0.820591
0.0371699
0.0284615
0.197515
0.432887
0.312569
1.11106
0.380124
1.65757
0.415836
2.10058
0.440038
2.51999
0.459806
2.96448
0.492306
3.4596
0.558626
4.01648
0.699216
4.78862
1.09629
5.2124
1.82578
6.05859
2.24553
6.17043
2.48027
5.08549
2.40151
3.82665
1.9573
2.43355
1.45358
1.13595
0.956841
0.240321
0.369434
-0.278615
-0.451157
0.0306685
-0.002207
0.217831
0.245724
0.388545
0.940349
0.482425
1.56369
0.531371
2.05163
0.568723
2.48264
0.598054
2.93515
0.643573
3.41408
0.722997
3.93706
0.88428
4.62734
1.26095
4.83573
2.01058
5.30896
2.40799
5.77302
2.62412
4.86936
2.59655
3.85421
2.20293
2.82717
1.58935
1.74953
0.963215
0.866455
0.417928
0.266672
-0.0332281
0.0280037
-0.0302107
0.186977
0.0867502
0.443534
0.683792
0.597603
1.40962
0.66997
1.97927
0.715336
2.43727
0.751855
2.89863
0.79157
3.37436
0.854787
3.87384
0.988166
4.49396
1.22253
4.60136
1.8342
4.69729
2.20308
5.40414
2.29383
4.77862
2.22349
3.92455
1.95033
3.10033
1.46014
2.23972
0.920198
1.40639
0.392717
0.794153
0.359489
0.0185687
-0.0487794
0.111151
-0.00583201
0.398059
0.396884
0.590239
1.21744
0.67868
1.89083
0.708326
2.40763
0.719624
2.88734
0.712102
3.38188
0.706431
3.87951
0.721243
4.47915
0.778031
4.54457
1.0155
4.45982
1.24765
5.17199
1.24302
4.78325
1.16355
4.00402
1.0136
3.25028
0.76612
2.4872
0.473057
1.69946
0.191679
1.07553
0.551168
0.00846474
-0.0572442
0.0581092
-0.0554765
0.250164
0.204829
0.429125
1.03848
0.51941
1.80054
0.551499
2.37554
0.568391
2.87044
0.566044
3.38423
0.56049
3.88507
0.55283
4.48681
0.569387
4.52801
0.716663
4.31254
0.900424
4.98823
0.898012
4.78566
0.822089
4.07994
0.707388
3.36498
0.536528
2.65806
0.321674
1.91431
0.120609
1.27659
0.671778
0.0257027
-0.0829469
0.0664736
-0.0962473
0.142815
0.128488
0.269545
0.911752
0.349679
1.72041
0.389253
2.33596
0.412251
2.84745
0.4227
3.37378
0.424833
3.88293
0.421188
4.49045
0.415827
4.53338
0.496196
4.23218
0.626991
4.85744
0.628757
4.7839
0.561034
4.14766
0.470355
3.45566
0.350811
2.7776
0.203985
2.06114
0.0655621
1.41502
0.73734
0.028439
-0.111386
0.0542234
-0.122032
0.0480003
0.134711
0.108894
0.850859
0.175497
1.6538
0.228089
2.28337
0.26372
2.81181
0.2891
3.3484
0.305784
3.86625
0.311189
4.48505
0.298242
4.54632
0.334374
4.19604
0.419248
4.77256
0.418323
4.78482
0.364308
4.20168
0.289668
3.5303
0.199742
2.86753
0.0966286
2.16425
0.011249
1.5004
0.748589
0.0152181
-0.126604
0.00818485
-0.114998
-0.0376386
0.180535
-0.0363853
0.849605
0.0134003
1.60402
0.0695186
2.22725
0.12228
2.75905
0.16682
3.30386
0.201257
3.83181
0.214797
4.47151
0.206231
4.55489
0.221138
4.18114
0.271047
4.72266
0.260804
4.79506
0.215352
4.24713
0.158844
3.58681
0.0976702
2.9287
0.0346572
2.22726
-0.0163585
1.55141
0.73223
-0.00892918
-0.117675
-0.0558589
-0.0680687