/*--------------------------------*- C++ -*----------------------------------*\
  =========                 |
  \\      /  F ield         | OpenFOAM: The Open Source CFD Toolbox
   \\    /   O peration     | Website:  https://openfoam.org
    \\  /    A nd           | Version:  9
     \\/     M anipulation  |
\*---------------------------------------------------------------------------*/
FoamFile
{
    format      ascii;
    class       volVectorField;
    location    "39";
    object      U;
}
// * * * * * * * * * * * * * * * * * * * * * * * * * * * * * * * * * * * * * //

dimensions      [0 1 -1 0 0 0 0];

internalField   nonuniform List<vector> 
2200
(
(0.878843 -0.0304162 0)
(1.00579 -0.0512883 0)
(1.0033 -0.0354066 0)
(1.00029 -0.0244742 0)
(0.999873 -0.0167061 0)
(1 -0.0107559 0)
(1.00001 -0.00688826 0)
(1.00002 -0.00425008 0)
(1.00003 -0.00229326 0)
(1.00017 -0.000713022 0)
(1.00005 0.000907254 0)
(1.00004 0.00250453 0)
(1.00001 0.00445721 0)
(0.99998 0.00705501 0)
(1.00002 0.0109005 0)
(0.99985 0.0167219 0)
(1.00021 0.0244613 0)
(1.00347 0.0350463 0)
(1.00592 0.0513631 0)
(0.878975 0.0303381 0)
(0.711958 -0.0327659 0)
(0.996609 -0.0630291 0)
(1.03323 -0.0561972 0)
(1.02481 -0.04644 0)
(1.01588 -0.0361598 0)
(1.00968 -0.026462 0)
(1.00588 -0.0181634 0)
(1.00372 -0.0114218 0)
(1.00251 -0.00603268 0)
(1.00197 -0.0015817 0)
(1.00195 0.00260073 0)
(1.00243 0.00694577 0)
(1.00361 0.0121436 0)
(1.00586 0.0187949 0)
(1.00953 0.0270562 0)
(1.01568 0.0367779 0)
(1.02472 0.0471923 0)
(1.03304 0.0575325 0)
(0.996634 0.0631448 0)
(0.711777 0.032976 0)
(0.535527 -0.0238943 0)
(0.969856 -0.0569427 0)
(1.05642 -0.0547098 0)
(1.05225 -0.0487696 0)
(1.03618 -0.040438 0)
(1.02446 -0.0323145 0)
(1.016 -0.0240999 0)
(1.01046 -0.0162678 0)
(1.00725 -0.009021 0)
(1.00579 -0.00244208 0)
(1.00573 0.00395699 0)
(1.00711 0.0105189 0)
(1.01027 0.0177077 0)
(1.01571 0.025383 0)
(1.02416 0.0332837 0)
(1.036 0.0412695 0)
(1.05203 0.0493195 0)
(1.05635 0.0537092 0)
(0.969231 0.0575486 0)
(0.534474 0.0239266 0)
(0.392137 -0.0136713 0)
(0.911612 -0.0464526 0)
(1.05739 -0.0470464 0)
(1.0694 -0.0444272 0)
(1.05474 -0.0382747 0)
(1.0392 -0.0315712 0)
(1.02749 -0.024798 0)
(1.01899 -0.0175889 0)
(1.01358 -0.0101113 0)
(1.01088 -0.00253848 0)
(1.01077 0.00501835 0)
(1.0133 0.0124262 0)
(1.01855 0.0196008 0)
(1.02676 0.0264327 0)
(1.0384 0.0328969 0)
(1.05403 0.0393688 0)
(1.06852 0.0454638 0)
(1.05579 0.0480707 0)
(0.910134 0.046903 0)
(0.390226 0.0137486 0)
(0.307458 -0.00451851 0)
(0.846542 -0.0324041 0)
(1.04935 -0.0399705 0)
(1.07949 -0.0382134 0)
(1.06822 -0.0335853 0)
(1.05164 -0.0279444 0)
(1.03821 -0.0226301 0)
(1.02803 -0.0166888 0)
(1.02104 -0.00987499 0)
(1.01728 -0.00238066 0)
(1.01706 0.00534108 0)
(1.02049 0.0126237 0)
(1.02715 0.0191159 0)
(1.03726 0.0248131 0)
(1.05052 0.029878 0)
(1.06686 0.035288 0)
(1.07782 0.0397354 0)
(1.04735 0.0414001 0)
(0.843397 0.0328631 0)
(0.304308 0.00469264 0)
(0.263986 0.000105458 0)
(0.788676 -0.0200837 0)
(1.03314 -0.0315071 0)
(1.0834 -0.0321497 0)
(1.07726 -0.0289373 0)
(1.0608 -0.0240964 0)
(1.0471 -0.0195824 0)
(1.03625 -0.0145111 0)
(1.02845 -0.00849831 0)
(1.02404 -0.0015091 0)
(1.02374 0.00582889 0)
(1.02762 0.0125323 0)
(1.03504 0.0181324 0)
(1.04541 0.0228039 0)
(1.05888 0.0267185 0)
(1.07527 0.0311623 0)
(1.08097 0.0338924 0)
(1.02992 0.0330541 0)
(0.783661 0.0206394 0)
(0.259634 8.32538e-05 0)
(0.239967 0.00105126 0)
(0.737831 -0.0123527 0)
(1.01325 -0.0251527 0)
(1.0837 -0.0269952 0)
(1.08269 -0.0247999 0)
(1.06755 -0.0207663 0)
(1.05403 -0.0168397 0)
(1.04323 -0.0123225 0)
(1.03514 -0.00700493 0)
(1.0303 -0.000743012 0)
(1.02985 0.00587334 0)
(1.03389 0.0117901 0)
(1.04142 0.0166908 0)
(1.05183 0.0206376 0)
(1.06521 0.0243099 0)
(1.07992 0.0277093 0)
(1.08033 0.0293782 0)
(1.00819 0.0269296 0)
(0.730116 0.013029 0)
(0.234142 -0.000863257 0)
(0.225489 0.000941743 0)
(0.694725 -0.00810782 0)
(0.992518 -0.0208876 0)
(1.0818 -0.0233534 0)
(1.08646 -0.0215446 0)
(1.073 -0.018095 0)
(1.05966 -0.0143581 0)
(1.0491 -0.0100831 0)
(1.04114 -0.00515811 0)
(1.03623 0.000484583 0)
(1.03565 0.00631065 0)
(1.03952 0.0115527 0)
(1.04656 0.0157852 0)
(1.05659 0.0194186 0)
(1.06944 0.0222874 0)
(1.08228 0.025078 0)
(1.07643 0.0261067 0)
(0.984699 0.0229552 0)
(0.683987 0.00894304 0)
(0.218094 -0.000747131 0)
(0.21582 0.000620468 0)
(0.65915 -0.00568904 0)
(0.971718 -0.0177 0)
(1.07886 -0.0203714 0)
(1.0896 -0.0188586 0)
(1.07765 -0.0157818 0)
(1.0644 -0.0122712 0)
(1.0541 -0.00823777 0)
(1.04637 -0.00364706 0)
(1.0414 0.00150431 0)
(1.04053 0.00674092 0)
(1.04404 0.0114696 0)
(1.05076 0.0152789 0)
(1.06022 0.0184251 0)
(1.0731 0.0212505 0)
(1.08417 0.0235225 0)
(1.07203 0.0242164 0)
(0.961168 0.020383 0)
(0.644597 0.00680932 0)
(0.206344 -0.000387059 0)
(0.208589 0.000298197 0)
(0.630459 -0.00423015 0)
(0.95261 -0.0150346 0)
(1.07555 -0.0180164 0)
(1.09263 -0.0167708 0)
(1.08212 -0.0139482 0)
(1.06869 -0.0104569 0)
(1.0583 -0.0065978 0)
(1.05062 -0.00215803 0)
(1.04585 0.00271644 0)
(1.0449 0.00768977 0)
(1.04782 0.0118594 0)
(1.05397 0.0153684 0)
(1.0633 0.0182427 0)
(1.07598 0.0207169 0)
(1.08518 0.0225567 0)
(1.06542 0.0226783 0)
(0.937309 0.0182864 0)
(0.611017 0.0055796 0)
(0.196567 -1.67184e-05 0)
(0.20272 6.99828e-05 0)
(0.607137 -0.00316497 0)
(0.934792 -0.0127027 0)
(1.07233 -0.015874 0)
(1.09567 -0.0148028 0)
(1.08664 -0.0121418 0)
(1.07301 -0.00879125 0)
(1.06223 -0.00505 0)
(1.05421 -0.000783131 0)
(1.04905 0.00393351 0)
(1.04748 0.00878385 0)
(1.05013 0.012819 0)
(1.05641 0.0158849 0)
(1.06594 0.0183549 0)
(1.07866 0.0205179 0)
(1.0861 0.0219854 0)
(1.05946 0.0216159 0)
(0.914925 0.0165354 0)
(0.582209 0.00480585 0)
(0.187647 0.000259822 0)
(0.198043 1.23668e-05 0)
(0.588658 -0.00223535 0)
(0.918461 -0.0101544 0)
(1.06893 -0.0134371 0)
(1.09893 -0.0126489 0)
(1.09122 -0.010158 0)
(1.07733 -0.00676657 0)
(1.06623 -0.00308709 0)
(1.05796 0.00116931 0)
(1.05275 0.00577957 0)
(1.05117 0.0102544 0)
(1.05337 0.0138839 0)
(1.05911 0.0166751 0)
(1.06847 0.0188653 0)
(1.08118 0.0206843 0)
(1.08614 0.0215371 0)
(1.05085 0.0204978 0)
(0.891723 0.0149049 0)
(0.556707 0.00427696 0)
(0.179218 0.000426877 0)
(0.194783 2.59067e-05 0)
(0.574914 -0.00134849 0)
(0.905195 -0.00767536 0)
(1.06597 -0.0106909 0)
(1.10167 -0.00987428 0)
(1.09569 -0.00759562 0)
(1.08196 -0.00455724 0)
(1.07055 -0.00101868 0)
(1.06185 0.00314709 0)
(1.05587 0.00759803 0)
(1.05335 0.011725 0)
(1.0552 0.0151438 0)
(1.06125 0.0176532 0)
(1.07066 0.0193066 0)
(1.08255 0.0205935 0)
(1.08556 0.0208977 0)
(1.04346 0.0195422 0)
(0.870807 0.0135022 0)
(0.534767 0.00385787 0)
(0.171414 0.000489046 0)
(0.192811 5.6641e-05 0)
(0.564859 -0.000655755 0)
(0.892702 -0.00560899 0)
(1.06303 -0.00831021 0)
(1.10494 -0.00730022 0)
(1.10023 -0.0047928 0)
(1.08648 -0.0015936 0)
(1.07476 0.00192025 0)
(1.06547 0.00585719 0)
(1.05892 0.0101135 0)
(1.05632 0.0139415 0)
(1.05794 0.0168108 0)
(1.06307 0.0186029 0)
(1.07216 0.0198774 0)
(1.08354 0.0204332 0)
(1.08393 0.0207531 0)
(1.03241 0.0188381 0)
(0.848039 0.0124148 0)
(0.514066 0.00365654 0)
(0.163811 0.000533808 0)
(0.192218 1.84738e-05 0)
(0.557836 -2.05742e-05 0)
(0.88429 -0.00321653 0)
(1.06154 -0.00543901 0)
(1.10807 -0.00413823 0)
(1.10478 -0.00152382 0)
(1.09127 0.00185009 0)
(1.0793 0.0054147 0)
(1.06943 0.00932072 0)
(1.06186 0.013206 0)
(1.05812 0.0164384 0)
(1.05939 0.0185612 0)
(1.06507 0.0198023 0)
(1.07385 0.0204872 0)
(1.08402 0.021181 0)
(1.08211 0.0209205 0)
(1.02374 0.0185684 0)
(0.828578 0.0118648 0)
(0.496049 0.00363107 0)
(0.156611 0.000586251 0)
(0.19295 -6.87745e-05 0)
(0.555688 0.00105697 0)
(0.877733 -0.00107688 0)
(1.06069 -0.00261753 0)
(1.11239 -0.00103681 0)
(1.11014 0.00198224 0)
(1.09642 0.00552029 0)
(1.08416 0.00930476 0)
(1.07396 0.0130363 0)
(1.06599 0.0166369 0)
(1.06178 0.0194403 0)
(1.0619 0.0211486 0)
(1.06583 0.0218407 0)
(1.07426 0.0221622 0)
(1.08356 0.0223068 0)
(1.07833 0.0214695 0)
(1.01057 0.0184513 0)
(0.805804 0.0113789 0)
(0.477383 0.00363185 0)
(0.148946 0.000636642 0)
(0.195377 0.000375303 0)
(0.55673 0.00166738 0)
(0.874756 0.00176544 0)
(1.06156 0.000968928 0)
(1.11659 0.00282841 0)
(1.11536 0.00571966 0)
(1.10153 0.00951337 0)
(1.08872 0.013259 0)
(1.07785 0.0173893 0)
(1.06896 0.0212345 0)
(1.06342 0.023912 0)
(1.06245 0.0248716 0)
(1.06653 0.0249342 0)
(1.07458 0.0245992 0)
(1.0824 0.0237254 0)
(1.07486 0.0220588 0)
(1 0.0185911 0)
(0.787146 0.0110953 0)
(0.461399 0.00366039 0)
(0.141744 0.000655404 0)
(0.199791 0.000689046 0)
(0.560589 0.0026105 0)
(0.876088 0.00424595 0)
(1.06325 0.00433792 0)
(1.12132 0.00682847 0)
(1.12103 0.0102324 0)
(1.10657 0.0139892 0)
(1.09278 0.0182355 0)
(1.08091 0.0224178 0)
(1.07084 0.0261419 0)
(1.06399 0.0284439 0)
(1.06188 0.0292497 0)
(1.06452 0.0286729 0)
(1.0723 0.027456 0)
(1.0794 0.0260798 0)
(1.06789 0.0237423 0)
(0.983614 0.0191486 0)
(0.763347 0.0110489 0)
(0.442982 0.00383667 0)
(0.13364 0.000695149 0)
(0.207293 0.000853747 0)
(0.57001 0.00405128 0)
(0.881395 0.00719424 0)
(1.0678 0.00919219 0)
(1.12671 0.0121876 0)
(1.1269 0.0155428 0)
(1.11193 0.020058 0)
(1.09711 0.0244728 0)
(1.08373 0.0289875 0)
(1.07187 0.033003 0)
(1.06388 0.0350609 0)
(1.06106 0.0347393 0)
(1.06375 0.0330866 0)
(1.07082 0.030917 0)
(1.07591 0.0283456 0)
(1.06095 0.0251773 0)
(0.970208 0.0197936 0)
(0.744588 0.0114364 0)
(0.427275 0.00416573 0)
(0.125961 0.00072921 0)
(0.21641 0.0010499 0)
(0.583598 0.00531496 0)
(0.891589 0.0106232 0)
(1.07465 0.0140888 0)
(1.13318 0.0176956 0)
(1.13405 0.0222599 0)
(1.11849 0.0270423 0)
(1.10293 0.0322677 0)
(1.08844 0.037071 0)
(1.07484 0.0406296 0)
(1.06416 0.0415082 0)
(1.05894 0.0405208 0)
(1.05927 0.0382916 0)
(1.06545 0.0353273 0)
(1.06997 0.0322691 0)
(1.05058 0.0278996 0)
(0.950608 0.0212681 0)
(0.71905 0.0123177 0)
(0.406963 0.00466627 0)
(0.116542 0.000769376 0)
(0.229905 0.00145606 0)
(0.605067 0.00718171 0)
(0.908732 0.014908 0)
(1.08538 0.0202646 0)
(1.14168 0.0250133 0)
(1.14235 0.0297012 0)
(1.12615 0.0355741 0)
(1.10939 0.041386 0)
(1.09314 0.0467602 0)
(1.07734 0.0506948 0)
(1.06496 0.05154 0)
(1.05901 0.0497717 0)
(1.05866 0.0458691 0)
(1.0629 0.0413126 0)
(1.06369 0.0366835 0)
(1.03972 0.0309721 0)
(0.93346 0.0235454 0)
(0.698357 0.0139716 0)
(0.388473 0.00540737 0)
(0.107225 0.000817687 0)
(0.24622 0.00202275 0)
(0.630655 0.00878824 0)
(0.930738 0.0188669 0)
(1.09952 0.0263486 0)
(1.15192 0.0323124 0)
(1.15223 0.0392558 0)
(1.13442 0.0461027 0)
(1.11588 0.0528966 0)
(1.09741 0.0587955 0)
(1.07894 0.0623249 0)
(1.06326 0.0617837 0)
(1.05347 0.0580279 0)
(1.05035 0.0533315 0)
(1.05369 0.0480491 0)
(1.05464 0.0430598 0)
(1.02555 0.0361593 0)
(0.909432 0.0270545 0)
(0.667814 0.0163025 0)
(0.362163 0.00624333 0)
(0.095112 0.000882503 0)
(0.268937 0.0028594 0)
(0.665369 0.0126049 0)
(0.959689 0.0253174 0)
(1.11828 0.0353952 0)
(1.16527 0.0434233 0)
(1.16367 0.0514373 0)
(1.14374 0.0597874 0)
(1.12242 0.0674825 0)
(1.10061 0.073676 0)
(1.07865 0.0768013 0)
(1.06056 0.0756841 0)
(1.05065 0.0712654 0)
(1.04764 0.064827 0)
(1.04901 0.0574271 0)
(1.04411 0.0503791 0)
(1.009 0.0418127 0)
(0.885903 0.0315467 0)
(0.640323 0.0191951 0)
(0.336685 0.00728263 0)
(0.0828978 0.000947109 0)
(0.300636 0.00375622 0)
(0.711645 0.0156107 0)
(0.99821 0.0331091 0)
(1.14304 0.0464327 0)
(1.18218 0.0563357 0)
(1.17793 0.0675868 0)
(1.15435 0.0775062 0)
(1.12971 0.0860181 0)
(1.10441 0.0920196 0)
(1.07893 0.0939394 0)
(1.05692 0.090421 0)
(1.04209 0.0829503 0)
(1.03494 0.074559 0)
(1.03471 0.0664076 0)
(1.03119 0.0589244 0)
(0.990275 0.0492499 0)
(0.854711 0.0367484 0)
(0.599686 0.0222744 0)
(0.300687 0.00805758 0)
(0.0672648 0.00094434 0)
(0.337097 0.00724025 0)
(0.769575 0.0247401 0)
(1.04539 0.0457894 0)
(1.17357 0.0629567 0)
(1.20395 0.0760347 0)
(1.19435 0.0894405 0)
(1.16632 0.100334 0)
(1.13735 0.108974 0)
(1.10754 0.114282 0)
(1.07736 0.1147 0)
(1.05168 0.109513 0)
(1.03626 0.100604 0)
(1.03032 0.0909903 0)
(1.02882 0.0804793 0)
(1.01644 0.0700266 0)
(0.966074 0.0576133 0)
(0.82076 0.042969 0)
(0.560666 0.025568 0)
(0.266678 0.00905624 0)
(0.0525976 0.000839937 0)
(0.418157 0.0108822 0)
(0.855494 0.0356846 0)
(1.1082 0.0659857 0)
(1.21177 0.0878682 0)
(1.22944 0.102447 7.07868e-34)
(1.21265 0.118853 -3.15985e-34)
(1.17815 0.12974 0)
(1.1441 0.137462 0)
(1.10954 0.140887 0)
(1.07537 0.138806 0)
(1.04592 0.130153 0)
(1.02581 0.118095 0)
(1.01428 0.105199 0)
(1.00879 0.0929415 0)
(0.997869 0.0820608 0)
(0.939416 0.0680625 0)
(0.777004 0.0496343 0)
(0.50459 0.0290332 0)
(0.217922 0.00907723 0)
(0.0337196 0.000715987 0)
(0.488673 0.0261294 5.40809e-20)
(0.955269 0.0592345 -4.08494e-20)
(1.1753 0.0996878 0)
(1.25064 0.124676 3.10847e-20)
(1.25706 0.140955 -2.51968e-20)
(1.22997 0.158069 3.33387e-34)
(1.18881 0.167147 0)
(1.14919 0.173037 1.74257e-20)
(1.10904 0.174349 -5.7036e-20)
(1.06888 0.169663 1.15934e-20)
(1.03435 0.158591 0)
(1.01245 0.144186 -2.90652e-20)
(1.00299 0.130436 -3.47024e-20)
(0.998453 0.116982 6.0648e-20)
(0.972247 0.101368 -4.78834e-20)
(0.893467 0.0814167 0)
(0.712628 0.0580345 -1.73125e-20)
(0.432199 0.0315191 0)
(0.164173 0.0100116 -9.52863e-20)
(0.0158981 0.000868496 1.12385e-19)
(0.523097 0.0538609 -7.0362e-21)
(1.01606 0.102641 1.26556e-19)
(1.22324 0.149622 -8.30741e-21)
(1.28363 0.17213 -7.95795e-20)
(1.28096 0.189586 -5.33876e-20)
(1.24476 0.204593 8.67179e-20)
(1.19738 0.211178 0)
(1.15201 0.214776 0)
(1.10614 0.213478 9.09561e-20)
(1.0611 0.206102 0)
(1.02253 0.192133 1.05513e-19)
(0.995354 0.175758 3.11849e-20)
(0.977018 0.159683 3.58805e-22)
(0.9594 0.141566 -6.63228e-20)
(0.933061 0.12448 0)
(0.84926 0.103142 0)
(0.659808 0.0727096 -2.83608e-19)
(0.38637 0.0406966 7.10573e-19)
(0.145222 0.0128026 -4.2166e-19)
(0.00925081 0.00147719 -4.97224e-19)
(0.529854 0.0764181 -7.91107e-20)
(1.05166 0.159288 2.94009e-20)
(1.25862 0.210323 1.52044e-20)
(1.30972 0.231043 1.39463e-19)
(1.29946 0.246363 1.42576e-20)
(1.25603 0.256859 -2.26852e-19)
(1.20328 0.259739 7.67089e-20)
(1.1524 0.260423 0)
(1.10105 0.25651 -1.9277e-19)
(1.05002 0.246705 1.69576e-19)
(1.0049 0.230076 -2.84771e-19)
(0.973453 0.211705 1.33272e-19)
(0.95356 0.192616 -8.5972e-20)
(0.939607 0.175668 1.93755e-19)
(0.901898 0.155611 0)
(0.810911 0.127525 -7.08685e-20)
(0.628452 0.0915592 0)
(0.376204 0.0502886 3.92288e-19)
(0.145935 0.0196155 -9.31215e-19)
(0.012937 0.00132976 5.83302e-19)
(0.522343 0.10819 2.40909e-19)
(1.06844 0.215814 -1.03806e-19)
(1.27903 0.275339 -2.13117e-20)
(1.32671 0.295337 0)
(1.31138 0.308099 -1.02154e-19)
(1.26299 0.313289 1.25587e-19)
(1.2059 0.311612 -8.20623e-20)
(1.15029 0.308555 0)
(1.09419 0.300784 1.37068e-19)
(1.03836 0.286347 -1.19294e-19)
(0.989866 0.267026 2.46838e-19)
(0.953751 0.246106 0)
(0.926706 0.22616 -1.82756e-19)
(0.899796 0.204919 1.03104e-19)
(0.866592 0.183484 2.59748e-19)
(0.783028 0.156556 -2.28515e-19)
(0.6138 0.116106 3.65468e-19)
(0.377983 0.0686212 -8.08871e-19)
(0.160519 0.029026 5.10892e-19)
(0.0222872 0.00396135 -6.3922e-19)
(0.509808 0.13242 -9.67646e-20)
(1.07468 0.270173 6.98959e-20)
(1.28908 0.341299 -7.02907e-20)
(1.33539 0.36041 1.33681e-19)
(1.31665 0.370754 -1.22422e-19)
(1.265 0.371125 4.0347e-20)
(1.20449 0.365222 3.65985e-21)
(1.14483 0.358286 -1.57859e-19)
(1.08407 0.346643 -1.43986e-19)
(1.02354 0.329745 -2.56273e-19)
(0.969922 0.30707 -5.30666e-19)
(0.928677 0.281946 -1.62831e-19)
(0.900463 0.259713 2.40619e-21)
(0.88049 0.24032 -3.52239e-19)
(0.838384 0.217732 -6.30164e-21)
(0.753025 0.184165 3.32197e-19)
(0.59546 0.139564 -1.00434e-19)
(0.378735 0.0867876 -5.84214e-20)
(0.173619 0.0400463 0)
(0.0311162 0.00734695 1.3574e-18)
(0.492011 0.152933 0)
(1.0676 0.319676 -1.11201e-20)
(1.29079 0.404596 -1.51659e-20)
(1.33738 0.424385 -1.26867e-20)
(1.31614 0.433145 1.20689e-19)
(1.26246 0.429057 -9.29377e-20)
(1.19973 0.419111 9.00267e-20)
(1.13721 0.408189 2.58589e-19)
(1.07391 0.392527 -7.98797e-20)
(1.01027 0.370494 1.27486e-19)
(0.952141 0.342039 2.85208e-19)
(0.908258 0.316601 3.54556e-19)
(0.87586 0.292973 -2.12892e-19)
(0.841802 0.268654 3.80829e-19)
(0.80671 0.244848 -3.01403e-19)
(0.733432 0.215392 0)
(0.589711 0.16643 -7.61606e-19)
(0.386276 0.108202 1.02516e-18)
(0.187469 0.0531225 7.65166e-20)
(0.0394904 0.0114857 -1.43135e-18)
(0.477499 0.17323 -5.13367e-21)
(1.0588 0.367728 5.00333e-20)
(1.28721 0.465142 1.11743e-19)
(1.33438 0.485749 -1.30296e-19)
(1.31125 0.493329 9.69804e-20)
(1.2562 0.485556 -9.13468e-20)
(1.19168 0.472198 1.79866e-19)
(1.12667 0.457593 -7.89281e-20)
(1.05948 0.438248 -3.23402e-19)
(0.990084 0.412769 1.83811e-22)
(0.92856 0.384258 -3.09174e-19)
(0.882425 0.352889 -3.80436e-19)
(0.848311 0.326641 2.34275e-19)
(0.82521 0.302823 -1.36787e-19)
(0.783954 0.279044 3.26576e-19)
(0.708786 0.241476 0)
(0.57417 0.191707 -4.71204e-19)
(0.386726 0.127999 6.9588e-19)
(0.196019 0.0657382 1.31959e-18)
(0.0451703 0.0154325 -1.5525e-18)
(0.462911 0.190665 2.3792e-20)
(1.04561 0.412211 -1.90969e-20)
(1.27982 0.522839 -8.62e-20)
(1.32749 0.544919 1.36111e-19)
(1.30281 0.551594 1.17182e-20)
(1.24687 0.540378 -1.81044e-19)
(1.18119 0.523912 -1.0314e-19)
(1.11447 0.506019 -9.87847e-20)
(1.0457 0.483042 -1.81152e-19)
(0.976748 0.453751 2.91936e-19)
(0.913717 0.418071 3.13638e-19)
(0.86369 0.384833 6.0395e-19)
(0.826018 0.356867 0)
(0.789251 0.3297 5.99658e-21)
(0.756326 0.303269 -8.9406e-19)
(0.691969 0.272035 2.08094e-19)
(0.567312 0.217073 1.01537e-18)
(0.388406 0.148929 -2.99432e-19)
(0.201724 0.0777053 6.25205e-19)
(0.0489317 0.0190197 -5.21771e-20)
(0.4535 0.209221 5.87644e-21)
(1.03358 0.455027 8.27989e-21)
(1.26987 0.577356 -4.86339e-20)
(1.31795 0.600699 1.72267e-19)
(1.29198 0.606615 -2.1817e-19)
(1.23546 0.592715 1.81691e-19)
(1.16893 0.573674 1.06991e-19)
(1.10091 0.552676 2.97247e-19)
(1.02985 0.526294 3.66266e-19)
(0.955491 0.493495 -3.34426e-19)
(0.886338 0.454969 0)
(0.835863 0.418566 -2.27067e-19)
(0.801419 0.386278 2.60695e-19)
(0.775491 0.361397 3.27106e-19)
(0.734939 0.334275 -1.8912e-19)
(0.667199 0.294342 -4.61277e-19)
(0.548483 0.240252 -1.37864e-19)
(0.380452 0.165456 -1.44883e-21)
(0.199264 0.0873698 0)
(0.049531 0.0210832 0)
(0.445191 0.224753 -3.5251e-20)
(1.02106 0.495251 0)
(1.25847 0.629116 -3.61297e-20)
(1.30637 0.654246 1.84143e-21)
(1.27928 0.659373 2.42978e-19)
(1.22234 0.64272 -6.26688e-20)
(1.15521 0.621199 1.08856e-19)
(1.08593 0.597617 -2.02092e-19)
(1.01303 0.568451 2.78142e-19)
(0.937638 0.531903 -1.07697e-19)
(0.870914 0.488871 1.79037e-19)
(0.818065 0.449282 7.19705e-19)
(0.776422 0.417716 1.3878e-20)
(0.74061 0.38531 -3.41267e-19)
(0.707653 0.355419 6.30341e-19)
(0.649431 0.322146 4.3081e-21)
(0.537291 0.260851 1.47496e-19)
(0.372826 0.181368 -7.04213e-19)
(0.193146 0.0943291 7.21268e-19)
(0.0477799 0.022559 -8.53885e-19)
(0.438795 0.243673 2.97727e-23)
(1.00922 0.533489 0)
(1.24601 0.677523 0)
(1.29356 0.704376 -1.69305e-20)
(1.26555 0.708754 -7.58778e-20)
(1.2083 0.69 8.78492e-20)
(1.14065 0.666614 -2.06871e-19)
(1.07041 0.640589 0)
(0.996269 0.60872 -4.09179e-19)
(0.918899 0.569256 4.83055e-19)
(0.846407 0.524591 5.07449e-19)
(0.789626 0.480834 -2.63883e-19)
(0.752514 0.442327 -3.17667e-19)
(0.725176 0.413246 7.44089e-19)
(0.687536 0.383779 -2.23815e-19)
(0.625064 0.338447 -2.67331e-19)
(0.516718 0.278755 -1.60211e-19)
(0.360459 0.192752 -7.58864e-19)
(0.185289 0.0986033 1.09877e-19)
(0.0445736 0.0232757 9.21372e-19)
(0.435186 0.262079 -2.21185e-20)
(0.998484 0.569941 -2.41169e-20)
(1.23293 0.723344 2.34808e-20)
(1.27977 0.752171 -1.27894e-22)
(1.25099 0.75591 -6.59292e-20)
(1.19352 0.734976 1.5109e-19)
(1.1256 0.709589 0)
(1.05479 0.681541 1.20862e-19)
(0.979307 0.647374 -9.53012e-20)
(0.899114 0.605362 8.05201e-19)
(0.823913 0.555279 -1.15844e-19)
(0.769675 0.507002 1.31056e-19)
(0.727838 0.469711 0)
(0.690894 0.434044 -4.02486e-19)
(0.660371 0.399204 4.86408e-19)
(0.606433 0.362376 0)
(0.502218 0.292727 -3.45833e-19)
(0.34565 0.202415 1.01631e-18)
(0.17483 0.100767 1.19728e-19)
(0.0402737 0.023067 -1.13378e-18)
(0.433148 0.278904 -6.22207e-20)
(0.988477 0.604383 8.04184e-20)
(1.21969 0.766162 0)
(1.2657 0.796642 -1.8667e-20)
(1.23623 0.799743 0)
(1.17863 0.777186 -1.86763e-19)
(1.11052 0.750383 0)
(1.03887 0.720446 0)
(0.961757 0.684402 -1.23685e-19)
(0.879959 0.639978 -7.64667e-19)
(0.804759 0.588008 -9.36366e-19)
(0.744912 0.538607 1.5236e-19)
(0.701643 0.493442 5.4793e-19)
(0.675959 0.457855 4.42325e-19)
(0.639402 0.424424 -1.56063e-18)
(0.581224 0.372242 -6.27229e-19)
(0.478385 0.305374 3.66972e-19)
(0.328468 0.207027 0)
(0.163547 0.1011 1.03015e-18)
(0.0357275 0.0219438 -1.22136e-18)
(0.431825 0.294546 7.91658e-20)
(0.978951 0.636956 -9.75106e-20)
(1.20644 0.806387 0)
(1.25139 0.838791 -1.07629e-20)
(1.22132 0.841481 1.39468e-20)
(1.16361 0.817239 0)
(1.09525 0.788844 6.30723e-20)
(1.02297 0.757335 8.21176e-20)
(0.944585 0.719408 -2.34791e-19)
(0.860308 0.672856 1.02169e-19)
(0.779321 0.617566 0)
(0.717202 0.56225 6.3146e-19)
(0.677428 0.51754 4.68139e-21)
(0.639712 0.475678 2.38548e-19)
(0.610565 0.433387 2.83153e-19)
(0.56034 0.391302 0)
(0.461601 0.312326 -6.01703e-19)
(0.311005 0.210621 1.1813e-18)
(0.151615 0.0997341 -1.25012e-18)
(0.0312633 0.0204301 2.63052e-18)
(0.430776 0.309583 0)
(0.970147 0.668164 0)
(1.19367 0.844081 -4.40002e-20)
(1.23738 0.877969 0)
(1.20667 0.880151 0)
(1.14883 0.85468 -1.64979e-19)
(1.0803 0.825215 6.47978e-20)
(1.00741 0.792322 1.74951e-20)
(0.928036 0.753248 -5.43649e-20)
(0.842365 0.705593 0)
(0.761651 0.648352 -1.41682e-19)
(0.698359 0.592421 -5.14724e-19)
(0.64905 0.539669 -6.18118e-19)
(0.622858 0.494765 -2.47961e-19)
(0.589042 0.454669 3.07109e-19)
(0.534501 0.393726 -7.24387e-19)
(0.436055 0.318875 1.29487e-18)
(0.291841 0.209186 3.52324e-21)
(0.139765 0.0969388 -1.20041e-18)
(0.0273341 0.0186893 -1.77515e-19)
(0.429812 0.324292 0)
(0.961719 0.697713 -8.23278e-20)
(1.1811 0.879341 5.74747e-20)
(1.22346 0.914949 0)
(1.19221 0.916904 0)
(1.13428 0.890194 3.35756e-19)
(1.06564 0.859493 0)
(0.99232 0.825339 0)
(0.911739 0.784787 -5.14863e-19)
(0.82334 0.735076 1.3908e-19)
(0.736124 0.675336 -1.25989e-18)
(0.666546 0.615046 0)
(0.624186 0.561102 -6.6901e-19)
(0.584778 0.510836 1.08666e-20)
(0.557061 0.456717 -9.85608e-19)
(0.511274 0.406671 3.89976e-19)
(0.419223 0.317054 2.20975e-21)
(0.276486 0.207006 -1.36507e-18)
(0.130007 0.0932098 6.47528e-19)
(0.0237138 0.0169287 1.8997e-19)
(0.428958 0.338638 0)
(0.954147 0.726211 -1.24116e-19)
(1.16917 0.912661 6.06965e-20)
(1.21007 0.949391 5.16868e-20)
(1.17824 0.950865 -2.67456e-20)
(1.12025 0.923239 3.57262e-20)
(1.05163 0.891824 -4.31273e-20)
(0.977859 0.856687 5.1004e-19)
(0.896149 0.815355 5.50759e-19)
(0.80594 0.765512 1.06546e-18)
(0.719321 0.706094 1.04697e-18)
(0.650803 0.643481 1.83001e-19)
(0.593955 0.583309 9.62384e-19)
(0.564975 0.526548 5.92557e-19)
(0.532533 0.475071 7.0757e-19)
(0.48378 0.398836 -4.27367e-19)
(0.393098 0.314127 -4.9937e-19)
(0.260181 0.195618 5.84681e-19)
(0.122577 0.0899406 -3.46883e-19)
(0.0247301 0.0209057 6.14944e-19)
(0.428146 0.352541 1.80589e-19)
(0.946715 0.752816 1.93223e-19)
(1.15742 0.943652 3.67899e-20)
(1.19694 0.981776 1.62621e-20)
(1.16467 0.983085 5.33528e-20)
(1.1067 0.95456 -9.40135e-20)
(1.03804 0.922224 4.23794e-20)
(0.963788 0.886148 -2.06736e-20)
(0.880872 0.843752 -6.40977e-19)
(0.789141 0.792419 -1.15509e-18)
(0.697333 0.730626 7.29436e-20)
(0.618427 0.665674 0)
(0.568568 0.604782 0)
(0.523009 0.543384 -3.08796e-19)
(0.494038 0.470552 -1.15562e-18)
(0.454833 0.403239 9.20539e-19)
(0.37968 0.292242 5.47163e-19)
(0.264598 0.177835 0)
(0.133913 0.0661495 1.10612e-18)
(0.0183817 -0.00362529 -6.57956e-19)
(0.427444 0.365806 -9.55065e-20)
(0.940036 0.778458 8.51551e-20)
(1.14635 0.973093 -9.21375e-20)
(1.18445 1.01199 -6.33945e-20)
(1.1517 1.01279 3.06039e-21)
(1.09373 0.983556 -2.91717e-20)
(1.02514 0.950803 0)
(0.950649 0.914109 -6.41496e-19)
(0.867165 0.871376 7.91354e-20)
(0.773748 0.820635 0)
(0.680023 0.760315 0)
(0.60322 0.695009 1.15729e-19)
(0.536898 0.627847 1.54719e-19)
(0.499518 0.557741 -3.3296e-19)
(0.463121 0.488934 8.29702e-19)
(0.417153 0.382735 -1.00253e-18)
(0.34389 0.272944 -1.17011e-18)
(0.261104 0.154185 1.03525e-18)
(0.181332 0.100585 -3.94876e-19)
(0.11378 0.0822176 2.30074e-19)
(0.426592 0.378301 1.23969e-19)
(0.933246 0.802054 0)
(1.13541 1.00023 0)
(1.17227 1.04026 -1.50893e-20)
(1.1392 1.04092 1.22158e-20)
(1.08131 1.01102 -2.09595e-20)
(1.01279 0.977596 1.82533e-19)
(0.938025 0.940317 6.61964e-19)
(0.853555 0.896945 1.16445e-18)
(0.758489 0.845004 -8.62825e-20)
(0.661111 0.782637 1.77218e-19)
(0.573982 0.716643 -1.03601e-18)
(0.512342 0.651141 -1.02619e-18)
(0.453126 0.579528 -1.78306e-19)
(0.410825 0.481138 0)
(0.372625 0.388789 -9.37226e-21)
(0.313748 0.209944 6.4191e-19)
(0.275347 0.0533911 -1.08526e-18)
(0.235768 -0.0738914 8.25759e-19)
(0.0816248 -0.0961387 6.86992e-19)
(0.425754 0.390292 -2.75424e-19)
(0.927069 0.824908 -1.25779e-19)
(1.1251 1.02626 6.8646e-21)
(1.16063 1.06688 4.40496e-20)
(1.12715 1.06708 0)
(1.06928 1.03669 -1.25522e-19)
(1.00091 1.00317 -2.58261e-19)
(0.926077 0.965673 1.47868e-21)
(0.841191 0.92239 -6.11001e-19)
(0.744645 0.871613 -8.46313e-20)
(0.645081 0.812342 7.86069e-20)
(0.558936 0.748416 9.09682e-19)
(0.47821 0.678099 1.00182e-18)
(0.425839 0.596235 1.73179e-19)
(0.373897 0.511378 8.84592e-19)
(0.301193 0.36246 0)
(0.186164 0.196872 0)
(0.014905 0.225182 7.49806e-19)
(-0.0760312 0.629092 -3.14541e-20)
(0.00500184 1.52894 -9.15022e-19)
(0.424675 0.40166 1.52908e-19)
(0.920742 0.845952 3.45247e-19)
(1.11484 1.05031 -4.58896e-19)
(1.14921 1.09205 2.14549e-19)
(1.11539 1.09236 2.1245e-21)
(1.05761 1.06169 -8.76953e-20)
(0.989308 1.02791 0)
(0.914189 0.990372 -5.54888e-19)
(0.828331 0.947071 0)
(0.73018 0.895773 1.20177e-18)
(0.627398 0.834797 -9.44463e-20)
(0.530091 0.771004 1.059e-19)
(0.456756 0.707334 1.14177e-18)
(0.372617 0.634788 -3.74284e-19)
(0.28227 0.51449 -4.50808e-19)
(0.204293 0.420994 0)
(0.0952764 0.529349 0)
(0.0286464 1.3073 0)
(0.0738595 2.45319 -4.2647e-19)
(0.102352 2.90591 -2.61506e-19)
(0.423522 0.412447 0)
(0.915002 0.866366 0)
(1.10521 1.07358 1.68637e-19)
(1.13834 1.11591 -1.72314e-19)
(1.10411 1.11597 5.9282e-20)
(1.04631 1.08514 8.99379e-20)
(0.978135 1.0517 3.2731e-20)
(0.902986 1.01442 -2.54839e-20)
(0.816853 0.97188 8.54126e-20)
(0.717391 0.922633 -1.37929e-18)
(0.611725 0.866408 1.72106e-19)
(0.516877 0.80856 9.05081e-19)
(0.418959 0.743517 -1.13834e-18)
(0.344549 0.655843 -1.2409e-18)
(0.269864 0.57782 4.18144e-19)
(0.197667 0.705218 0)
(0.128844 1.53635 5.83892e-19)
(0.12854 2.68644 6.48208e-19)
(0.136406 3.08558 -7.25103e-19)
(0.127564 3.22108 7.84236e-19)
(0.422106 0.422778 0)
(0.909084 0.884924 3.14151e-19)
(1.09564 1.09485 -4.19334e-20)
(1.12776 1.13833 2.54352e-19)
(1.09321 1.13872 -6.2226e-20)
(1.03551 1.10793 0)
(0.967381 1.07455 0)
(0.891977 1.03768 0)
(0.805033 0.995728 4.90635e-19)
(0.704321 0.946827 6.45241e-20)
(0.596841 0.889918 0)
(0.490226 0.831738 -9.01098e-19)
(0.407997 0.775781 0)
(0.295365 0.708282 8.89025e-19)
(0.209527 0.77964 -5.96653e-19)
(0.160953 1.45729 -4.80712e-19)
(0.163131 2.67495 -1.13464e-18)
(0.18411 3.12659 -6.00363e-19)
(0.174751 3.26861 -8.25516e-19)
(0.160297 3.30907 6.41604e-19)
(0.420734 0.432309 -1.10979e-19)
(0.90375 0.902976 1.54028e-20)
(1.08674 1.11558 -4.72901e-20)
(1.11776 1.15969 -1.93985e-19)
(1.0828 1.16 0)
(1.02507 1.12929 0)
(0.957046 1.09655 0)
(0.881684 1.0603 3.84874e-20)
(0.794682 1.01959 -6.19323e-19)
(0.692967 0.973421 0)
(0.581956 0.922077 0)
(0.482163 0.872525 0)
(0.367282 0.81656 0)
(0.306469 0.798851 6.48418e-19)
(0.275542 1.17592 1.59326e-18)
(0.256975 2.36966 4.73548e-19)
(0.268663 3.08294 9.61557e-19)
(0.262819 3.28575 -7.40078e-19)
(0.213407 3.35209 2.75255e-19)
(0.180357 3.36468 0)
(0.419131 0.441504 1.14825e-19)
(0.898012 0.919658 -7.04321e-19)
(1.07761 1.13488 -1.86321e-19)
(1.10779 1.18022 -3.97716e-20)
(1.07255 1.18107 1.37349e-20)
(1.01496 1.15063 -4.24833e-21)
(0.947006 1.11816 -8.87482e-21)
(0.871478 1.0826 -4.50297e-19)
(0.783822 1.04293 0)
(0.681307 0.997948 -8.01727e-20)
(0.571128 0.947469 7.29321e-20)
(0.458284 0.897073 0)
(0.375126 0.857614 0)
(0.321009 0.981845 -8.10577e-19)
(0.280476 1.85179 1.01129e-19)
(0.276116 2.9399 -3.57403e-19)
(0.29688 3.29037 7.48216e-19)
(0.269939 3.38969 5.5016e-19)
(0.203443 3.41441 -7.58157e-19)
(0.178302 3.42359 3.7735e-19)
(0.417295 0.450839 2.27806e-19)
(0.892308 0.937478 6.90705e-19)
(1.0684 1.15556 2.22318e-19)
(1.0976 1.20146 0)
(1.06204 1.20222 0)
(1.00447 1.17187 4.66553e-21)
(0.936729 1.14011 1.12621e-19)
(0.861431 1.10527 4.02614e-19)
(0.774135 1.06702 2.52533e-20)
(0.671391 1.0251 1.03948e-18)
(0.557388 0.980207 -1.20368e-18)
(0.45028 0.935993 0)
(0.36923 0.938122 0)
(0.339177 1.34449 -5.54094e-19)
(0.341563 2.47656 -6.65426e-19)
(0.383994 3.19902 0)
(0.408815 3.37386 -7.66569e-19)
(0.338998 3.43718 4.23229e-20)
(0.268066 3.48155 3.82249e-19)
(0.24496 3.507 -1.31872e-19)
(0.414922 0.460607 -4.34949e-19)
(0.885422 0.955264 -3.32661e-19)
(1.05794 1.17617 0)
(1.08644 1.2233 0)
(1.05072 1.22462 0)
(0.99349 1.19442 0)
(0.926027 1.16278 -1.28389e-19)
(0.850855 1.12853 3.66761e-19)
(0.763241 1.09132 0)
(0.660391 1.05095 -9.47185e-19)
(0.550247 1.00775 2.16189e-18)
(0.442167 0.97301 8.76827e-20)
(0.38785 1.05842 1.14843e-19)
(0.390629 1.74406 9.05797e-19)
(0.407788 2.89526 -4.88957e-19)
(0.445069 3.32361 0)
(0.427758 3.44907 2.15803e-19)
(0.341504 3.53696 9.3522e-20)
(0.263612 3.60185 1.45447e-19)
(0.188296 3.58141 7.99399e-22)
(0.41217 0.470704 2.07714e-19)
(0.878275 0.975033 -3.43864e-19)
(1.04705 1.19914 0)
(1.07464 1.24653 -5.70405e-20)
(1.03873 1.24746 1.89916e-19)
(0.981657 1.2171 0)
(0.914679 1.18601 0)
(0.840091 1.15233 -6.41896e-19)
(0.753463 1.1164 -6.2155e-20)
(0.651359 1.07891 9.3558e-19)
(0.534464 1.04045 -1.02839e-18)
(0.445619 1.02315 5.94585e-19)
(0.407035 1.23585 0)
(0.430525 2.17879 -4.81115e-19)
(0.472812 3.14544 3.1415e-19)
(0.53472 3.42856 2.00212e-19)
(0.527713 3.52611 0)
(0.46357 3.61013 -3.38201e-20)
(0.391794 3.65242 -4.08269e-19)
(0.310242 3.62347 -9.39884e-20)
(0.408589 0.481169 -4.18004e-19)
(0.869569 0.994617 4.9344e-19)
(1.03458 1.22172 3.35216e-19)
(1.06166 1.27022 -8.22976e-20)
(1.0257 1.27162 -2.91149e-19)