/*--------------------------------*- C++ -*----------------------------------*\
  =========                 |
  \\      /  F ield         | OpenFOAM: The Open Source CFD Toolbox
   \\    /   O peration     | Website:  https://openfoam.org
    \\  /    A nd           | Version:  9
     \\/     M anipulation  |
\*---------------------------------------------------------------------------*/
FoamFile
{
    format      ascii;
    class       volScalarField;
    location    "6";
    object      p;
}
// * * * * * * * * * * * * * * * * * * * * * * * * * * * * * * * * * * * * * //

dimensions      [0 2 -2 0 0 0 0];

internalField   nonuniform List<scalar> 
8800
(
0.464022
0.416221
0.378201
0.350096
0.330078
0.315972
0.305995
0.299072
0.294633
0.292702
0.293585
0.297121
0.302991
0.311484
0.323447
0.340286
0.364091
0.397199
0.439295
0.496288
0.295813
0.303309
0.312439
0.316665
0.315613
0.310959
0.305013
0.299437
0.295
0.29215
0.291647
0.293852
0.297822
0.303095
0.309105
0.314771
0.317908
0.316538
0.309615
0.300074
0.271509
0.278173
0.283432
0.287626
0.290797
0.292348
0.292027
0.290569
0.288981
0.288174
0.288734
0.29038
0.292298
0.293525
0.293109
0.290737
0.287054
0.282372
0.276747
0.272957
0.269601
0.272381
0.276448
0.279835
0.282019
0.28337
0.284143
0.284333
0.28416
0.284075
0.284432
0.285033
0.285372
0.285113
0.284192
0.282588
0.279903
0.276025
0.272445
0.271275
0.270996
0.27174
0.273322
0.275136
0.27699
0.278657
0.279817
0.280473
0.280778
0.280979
0.281304
0.281581
0.281459
0.280803
0.279545
0.277863
0.276117
0.274379
0.273221
0.272943
0.269375
0.269656
0.270326
0.27114
0.271978
0.272847
0.27369
0.274431
0.274993
0.275429
0.275758
0.275829
0.275627
0.275139
0.274507
0.273749
0.273038
0.272305
0.271857
0.271754
0.266845
0.266987
0.26738
0.267947
0.268605
0.269331
0.270059
0.270748
0.271384
0.271954
0.272346
0.272491
0.272352
0.272002
0.271522
0.270986
0.270476
0.27004
0.269801
0.26975
0.263505
0.263565
0.263731
0.264007
0.264376
0.264845
0.265408
0.266041
0.266704
0.267358
0.267857
0.268089
0.268111
0.267985
0.267783
0.267565
0.267362
0.267194
0.267106
0.267082
0.259651
0.259699
0.259821
0.260022
0.260306
0.26069
0.261179
0.261778
0.262473
0.263232
0.263892
0.264309
0.264497
0.26454
0.264498
0.264419
0.264332
0.264256
0.264213
0.264198
0.255495
0.255524
0.255619
0.255779
0.256018
0.256361
0.256831
0.257451
0.258224
0.259132
0.259983
0.260582
0.260946
0.261149
0.261245
0.26128
0.261283
0.261273
0.261264
0.261255
0.251078
0.251103
0.251184
0.25133
0.25156
0.251905
0.2524
0.253082
0.253979
0.255087
0.256183
0.257009
0.257561
0.257916
0.258131
0.258254
0.25832
0.258351
0.258362
0.258356
0.246379
0.2464
0.246485
0.246638
0.246886
0.247267
0.247831
0.248629
0.249707
0.25108
0.252479
0.253572
0.25434
0.254851
0.25518
0.255383
0.255503
0.255567
0.255594
0.25559
0.241371
0.241392
0.241486
0.24166
0.241948
0.242398
0.243072
0.244041
0.245371
0.247092
0.248876
0.250297
0.251306
0.251995
0.252447
0.252732
0.252904
0.252999
0.25304
0.253036
0.235985
0.23601
0.236122
0.236333
0.236684
0.237236
0.238068
0.239273
0.240937
0.243107
0.245375
0.247194
0.2485
0.249397
0.24999
0.250368
0.250597
0.250726
0.250782
0.250778
0.230135
0.230165
0.230305
0.230569
0.231009
0.231701
0.232748
0.234266
0.236368
0.239116
0.241994
0.244311
0.245979
0.247127
0.247888
0.248375
0.248672
0.248839
0.248911
0.248908
0.223702
0.22374
0.223918
0.224254
0.224813
0.225694
0.227024
0.228953
0.231624
0.235111
0.238761
0.241697
0.243812
0.24527
0.246237
0.246856
0.247233
0.247447
0.247539
0.247534
0.216521
0.216571
0.2168
0.217232
0.217951
0.219081
0.220785
0.22325
0.226654
0.231084
0.235708
0.23942
0.242091
0.243931
0.245152
0.245933
0.24641
0.246679
0.246795
0.24679
0.208375
0.20844
0.208739
0.209301
0.210232
0.211693
0.21389
0.217055
0.221405
0.227037
0.232887
0.237567
0.240927
0.24324
0.244774
0.245756
0.246356
0.246695
0.246841
0.246833
0.198969
0.199056
0.19945
0.200187
0.201405
0.203309
0.206158
0.21024
0.215812
0.222976
0.230363
0.236247
0.240463
0.243361
0.245284
0.246513
0.247264
0.247689
0.247871
0.247861
0.187899
0.188018
0.188543
0.189523
0.191135
0.193641
0.197364
0.202654
0.209809
0.218913
0.228219
0.23559
0.240861
0.244485
0.246889
0.248428
0.249368
0.249899
0.250126
0.250112
0.174609
0.174777
0.175487
0.176811
0.178976
0.182317
0.187228
0.194126
0.203332
0.214884
0.226561
0.235755
0.24232
0.246837
0.249841
0.251767
0.252944
0.253609
0.253893
0.253876
0.158301
0.158542
0.159524
0.161358
0.164335
0.168868
0.175428
0.184483
0.196344
0.210957
0.225522
0.236921
0.245063
0.250684
0.25444
0.256857
0.258337
0.25917
0.259524
0.259504
0.137761
0.138113
0.139527
0.142177
0.146411
0.152708
0.161606
0.173582
0.18886
0.207241
0.22526
0.239277
0.249315
0.2563
0.261012
0.264071
0.265952
0.267006
0.26745
0.267426
0.111029
0.111557
0.113755
0.117838
0.124131
0.133139
0.145421
0.16135
0.180971
0.20389
0.225932
0.242984
0.255267
0.263929
0.26988
0.273822
0.276286
0.277673
0.278249
0.278213
0.0747069
0.0756447
0.0795427
0.0864
0.0962346
0.109531
0.126712
0.147895
0.172878
0.201092
0.227668
0.248126
0.262995
0.273694
0.281268
0.286484
0.289899
0.291906
0.292757
0.292697
0.022122
0.0248714
0.0332505
0.0458317
0.0619317
0.081924
0.105907
0.13372
0.164997
0.199106
0.23057
0.254686
0.272407
0.285478
0.295104
0.302125
0.307129
0.310396
0.311994
0.311942
-0.0580329
-0.0447289
-0.0254428
-0.00259037
0.023061
0.0519813
0.0841851
0.119532
0.157705
0.198174
0.234925
0.263108
0.284154
0.300163
0.312551
0.322286
0.330023
0.336029
0.340101
0.341092
-0.142554
-0.115145
-0.08406
-0.0508178
-0.015455
0.0222848
0.0625821
0.105437
0.150693
0.198042
0.24094
0.274134
0.299373
0.319104
0.334925
0.347939
0.358845
0.368385
0.37674
0.378221
-0.205049
-0.174749
-0.135862
-0.0944341
-0.050883
-0.00524526
0.0424887
0.0923115
0.144166
0.197878
0.246283
0.283655
0.31206
0.334241
0.351932
0.366288
0.378099
0.387875
0.395081
0.396573
-0.252802
-0.220445
-0.177239
-0.130528
-0.0812315
-0.0295995
0.0241573
0.0798905
0.137471
0.196728
0.249842
0.290606
0.321298
0.344928
0.363448
0.378192
0.390115
0.399841
0.407109
0.408696
-0.289029
-0.256219
-0.210188
-0.15992
-0.106631
-0.0506094
0.00781558
0.0683691
0.130841
0.195011
0.252342
0.296043
0.328598
0.353345
0.372465
0.387465
0.399404
0.408974
0.415989
0.417588
-0.318028
-0.285093
-0.237368
-0.184543
-0.128218
-0.0687986
-0.00668074
0.057785
0.124343
0.192769
0.25391
0.300346
0.334668
0.360464
0.380145
0.395381
0.407361
0.416851
0.423716
0.425318
-0.342242
-0.309206
-0.260332
-0.205715
-0.147133
-0.085073
-0.0200483
0.0475576
0.11754
0.189782
0.254607
0.303854
0.34006
0.367021
0.387358
0.402913
0.414998
0.424445
0.431182
0.432791
-0.363376
-0.330097
-0.280258
-0.224264
-0.163964
-0.0999053
-0.0326228
0.0374806
0.110308
0.185988
0.254494
0.306805
0.345179
0.373543
0.394714
0.410706
0.422981
0.432447
0.439108
0.440724
-0.382158
-0.348587
-0.298008
-0.240878
-0.179213
-0.113607
-0.0446311
0.0273504
0.10244
0.181205
0.253504
0.309288
0.35028
0.380411
0.402667
0.41927
0.431827
0.441386
0.447985
0.449591
-0.399329
-0.365355
-0.31403
-0.25598
-0.193239
-0.126475
-0.0562866
0.0169995
0.0937666
0.175235
0.251487
0.311299
0.355511
0.387895
0.411584
0.429014
0.441985
0.451709
0.458296
0.459893
-0.414933
-0.380562
-0.328648
-0.269808
-0.206215
-0.138623
-0.0676791
0.00634268
0.0841504
0.167868
0.248212
0.312736
0.360933
0.396202
0.421765
0.440311
0.453872
0.463814
0.470429
0.472104
-0.429384
-0.3946
-0.342004
-0.282496
-0.218262
-0.150118
-0.0788342
-0.00465454
0.0734967
0.158873
0.243398
0.313393
0.366516
0.405462
0.43347
0.453488
0.46786
0.478198
0.484713
0.486538
-0.442698
-0.407632
-0.354308
-0.294172
-0.229433
-0.160981
-0.0897249
-0.0159531
0.0617683
0.14805
0.236701
0.313004
0.372158
0.415749
0.446891
0.468832
0.484255
0.495074
0.501743
0.503502
-0.454983
-0.419289
-0.365637
-0.304922
-0.239752
-0.171189
-0.100289
-0.0274782
0.04898
0.135223
0.227757
0.311225
0.377668
0.427065
0.462199
0.486594
0.503375
0.514826
0.521666
0.523396
-0.466343
-0.430269
-0.375948
-0.31474
-0.249238
-0.180702
-0.110447
-0.0391028
0.03522
0.120272
0.216188
0.307642
0.382795
0.439348
0.479444
0.506913
0.525453
0.537765
0.544844
0.546381
-0.476939
-0.440314
-0.385376
-0.323665
-0.25788
-0.189483
-0.12009
-0.0506882
0.0206224
0.103143
0.20162
0.301814
0.387243
0.452387
0.498583
0.529872
0.550587
0.563994
0.571385
0.57261
-0.486674
-0.449469
-0.393933
-0.331733
-0.265694
-0.197495
-0.129123
-0.0620497
0.00536632
0.0838559
0.183691
0.293256
0.390616
0.465946
0.519321
0.555279
0.578614
0.593235
0.600883
0.601748
-0.49561
-0.457834
-0.401682
-0.338985
-0.272697
-0.204722
-0.137459
-0.0730188
-0.010322
0.0624936
0.162107
0.281498
0.392654
0.479498
0.541146
0.582958
0.609725
0.625581
0.633008
0.633175
-0.503934
-0.465466
-0.408691
-0.345476
-0.27892
-0.211158
-0.145028
-0.0834267
-0.0261718
0.0392101
0.13659
0.266006
0.392801
0.492672
0.563625
0.612175
0.643811
0.661265
0.666861
0.66544
-0.5116
-0.472453
-0.414984
-0.351243
-0.284407
-0.216809
-0.151778
-0.0931159
-0.0419141
0.0142524
0.106854
0.246307
0.390738
0.505232
0.585725
0.641294
0.67973
0.701776
0.703745
0.696533
-0.518818
-0.478866
-0.420618
-0.356357
-0.289233
-0.221734
-0.157737
-0.102068
-0.057509
-0.0125411
0.0721583
0.221149
0.386295
0.517504
0.605805
0.667039
0.71305
0.747515
0.754077
0.733624
-0.525598
-0.484694
-0.425653
-0.360957
-0.293554
-0.226077
-0.163054
-0.110466
-0.0733198
-0.0424512
0.0298238
0.18688
0.378211
0.529748
0.622458
0.683537
0.729827
0.760661
0.760606
0.731404
-0.531792
-0.489796
-0.42998
-0.365039
-0.29729
-0.229732
-0.167638
-0.118008
-0.0887832
-0.0749088
-0.0206574
0.141047
0.366441
0.544972
0.632457
0.675164
0.704835
0.707194
0.638126
0.590471
-0.536941
-0.493808
-0.433208
-0.368158
-0.30002
-0.23244
-0.171355
-0.124457
-0.103474
-0.10972
-0.0816839
0.0806583
0.348542
0.559248
0.63545
0.63886
0.643439
0.590336
0.500578
0.442574
-0.588042
-0.494538
-0.436346
-0.371067
-0.302724
-0.235076
-0.174023
-0.129262
-0.11663
-0.147216
-0.156717
0.000714916
0.314799
0.573611
0.636113
0.593907
0.531723
0.437695
0.327977
0.268309
-0.512881
-0.495801
-0.440628
-0.374902
-0.305984
-0.237551
-0.17729
-0.135972
-0.135676
-0.20789
-0.305415
-0.199657
0.212747
0.544616
0.594191
0.393383
0.207044
0.0863971
-0.0251541
0.0372272
-0.539274
-0.502572
-0.444892
-0.378788
-0.309042
-0.239822
-0.178677
-0.138441
-0.145085
-0.245916
-0.426905
-0.425306
0.021774
0.428998
0.398419
0.140292
-0.0825354
-0.232541
-0.381321
-0.269033
-0.553402
-0.511962
-0.451063
-0.383647
-0.312584
-0.24216
-0.179755
-0.139653
-0.15158
-0.28438
-0.587902
-0.765907
-0.264799
0.158316
0.0926354
-0.201202
-0.43117
-0.613171
-0.830216
-0.674888
-0.56595
-0.520799
-0.457413
-0.388059
-0.315402
-0.243507
-0.179737
-0.139155
-0.155034
-0.317962
-0.785041
-1.24484
-0.678248
-0.234463
-0.324547
-0.598033
-0.861267
-1.09116
-1.39647
-1.29263
-0.576326
-0.528977
-0.463614
-0.392311
-0.317892
-0.244215
-0.178643
-0.136483
-0.15409
-0.340242
-0.978
-1.77967
-1.21366
-0.691653
-0.762948
-0.989713
-1.30021
-1.61073
-2.04531
-2.31801
-0.585417
-0.536893
-0.469945
-0.396795
-0.320435
-0.244661
-0.176668
-0.13176
-0.14809
-0.349281
-1.13205
-2.19137
-1.65545
-1.12943
-1.14216
-1.31252
-1.60861
-1.94358
-2.15777
-2.62827
-0.594543
-0.544983
-0.476644
-0.401676
-0.323227
-0.245033
-0.173962
-0.125061
-0.136422
-0.345343
-1.2196
-2.40291
-1.92297
-1.47883
-1.45992
-1.57237
-1.69584
-1.90276
-2.05117
-2.09706
-0.604086
-0.553578
-0.483857
-0.407038
-0.326387
-0.245417
-0.170712
-0.116328
-0.118649
-0.316944
-1.18737
-2.34566
-1.95467
-1.64239
-1.69396
-1.84774
-1.72594
-1.67287
-1.82789
-1.8584
-0.614549
-0.563008
-0.491786
-0.413052
-0.330026
-0.246005
-0.167102
-0.10584
-0.0948534
-0.256971
-1.009
-1.97087
-1.71182
-1.65696
-1.88931
-2.24548
-2.0605
-1.73101
-1.87484
-2.00242
-0.626569
-0.57367
-0.500773
-0.41999
-0.334419
-0.247106
-0.163463
-0.0942845
-0.0664962
-0.175317
-0.712153
-1.35636
-1.26953
-1.45548
-2.01501
-2.95147
-3.51691
-3.3126
-2.96617
-2.84703
-0.640426
-0.585962
-0.511182
-0.42818
-0.339911
-0.249079
-0.160414
-0.0826581
-0.0356161
-0.0816642
-0.374078
-0.701935
-0.755565
-1.09596
-1.93423
-3.37817
-4.6481
-4.46868
-3.88204
-3.56715
-0.656432
-0.600229
-0.523369
-0.437963
-0.346827
-0.25239
-0.158431
-0.0716449
-0.00512189
0.00962507
-0.075889
-0.153439
-0.249537
-0.582905
-1.29362
-2.32405
-3.14117
-3.10995
-2.7364
-2.52036
-0.674893
-0.616866
-0.537645
-0.449627
-0.355474
-0.257253
-0.157991
-0.0625889
0.0223863
0.0875909
0.135096
0.192482
0.158083
-0.00130622
-0.287681
-0.609421
-0.844891
-0.860903
-0.776621
-0.736805
-0.696088
-0.636054
-0.554185
-0.46333
-0.366062
-0.264119
-0.159704
-0.0556758
0.0456132
0.147283
0.26367
0.383707
0.427642
0.414709
0.36181
0.322835
0.33983
0.382649
0.404402
0.408926
-0.719859
-0.657788
-0.572957
-0.479145
-0.378617
-0.272758
-0.163277
-0.0514036
0.0632795
0.189932
0.338913
0.486058
0.582623
0.648954
0.702855
0.759672
0.820539
0.868622
0.891121
0.894436
-0.745326
-0.681298
-0.593538
-0.496553
-0.392676
-0.283074
-0.168865
-0.0500523
0.0753058
0.218688
0.383611
0.542561
0.665553
0.7643
0.848046
0.922287
0.986836
1.03465
1.05971
1.06464
-0.771755
-0.706036
-0.615097
-0.514954
-0.407752
-0.294484
-0.175852
-0.0513968
0.0820074
0.236266
0.408171
0.569156
0.700036
0.805405
0.89198
0.964183
1.02308
1.06722
1.09298
1.09863
-0.797108
-0.729731
-0.636367
-0.532943
-0.422524
-0.305952
-0.183618
-0.0547128
0.0848513
0.245132
0.418462
0.575598
0.704334
0.807064
0.888977
0.954571
1.00719
1.04701
1.0732
1.07883
-0.81807
-0.750139
-0.654777
-0.548654
-0.435486
-0.316197
-0.190981
-0.0586596
0.084838
0.247851
0.418917
0.569212
0.691622
0.788833
0.865567
0.92634
0.974547
1.01199
1.03493
1.04144
-0.831862
-0.764397
-0.667615
-0.559382
-0.444399
-0.323342
-0.196268
-0.0620149
0.0829938
0.246174
0.411937
0.554565
0.669644
0.76098
0.833251
0.890533
0.936049
0.971649
0.993662
1.00032
-0.83445
-0.767979
-0.671448
-0.562311
-0.446519
-0.32512
-0.197893
-0.0637834
0.0803123
0.239946
0.398765
0.533303
0.640824
0.726597
0.794846
0.849199
0.892606
0.926559
0.948069
0.954934
-0.819093
-0.755771
-0.661434
-0.553217
-0.439043
-0.319565
-0.19451
-0.0631063
0.0771052
0.230423
0.38001
0.505586
0.605351
0.685441
0.749755
0.801382
0.842975
0.875423
0.896763
0.903942
-0.778074
-0.720234
-0.631676
-0.527716
-0.418193
-0.303992
-0.184752
-0.0596306
0.073397
0.217352
0.355586
0.470802
0.561974
0.635599
0.69543
0.744015
0.783423
0.814727
0.835686
0.843291
-0.706698
-0.658313
-0.575938
-0.481214
-0.381179
-0.276639
-0.167282
-0.0523125
0.0697251
0.20091
0.325737
0.428041
0.508927
0.574206
0.627706
0.671849
0.707811
0.736556
0.757367
0.764895
-0.596228
-0.560649
-0.491141
-0.411008
-0.3261
-0.236281
-0.141129
-0.0402137
0.0672885
0.182415
0.290713
0.37783
0.4457
0.499423
0.542634
0.578219
0.607692
0.630889
0.646531
0.651473
-0.430354
-0.412809
-0.369478
-0.314235
-0.25248
-0.183419
-0.107288
-0.0236511
0.0677241
0.167013
0.260642
0.335197
0.392246
0.436328
0.470453
0.496479
0.516207
0.53209
0.544193
0.547648
-0.260732
-0.255334
-0.235545
-0.206706
-0.169389
-0.123207
-0.0677485
-0.00289469
0.0713195
0.154428
0.23381
0.296787
0.344135
0.37929
0.405014
0.423769
0.437299
0.446092
0.45088
0.451948
-0.134251
-0.132442
-0.125143
-0.112082
-0.0924112
-0.0646077
-0.0272354
0.0203863
0.0783088
0.145797
0.211464
0.263413
0.301745
0.329499
0.34913
0.362261
0.370372
0.375133
0.377551
0.377894
-0.0513484
-0.0518994
-0.0508602
-0.0456105
-0.0348895
-0.0176514
0.00744703
0.0417348
0.0858507
0.139367
0.192611
0.234825
0.265551
0.287078
0.301483
0.310777
0.316485
0.31952
0.320595
0.320638
-0.00270023
-0.00338861
-0.00374222
-0.00179041
0.00405102
0.0151494
0.032758
0.0579743
0.0916075
0.1336
0.176049
0.209751
0.234061
0.250937
0.262211
0.269285
0.273283
0.275209
0.275859
0.275886
0.0265351
0.0262484
0.0262149
0.02764
0.0314968
0.038891
0.0511921
0.0696991
0.0952984
0.128085
0.16173
0.18854
0.207807
0.221009
0.229588
0.234855
0.23786
0.23935
0.239888
0.239931
0.0457434
0.0456337
0.04572
0.0468183
0.0496643
0.0551063
0.064157
0.077927
0.0973775
0.122815
0.149254
0.17038
0.185485
0.195764
0.202439
0.206537
0.208849
0.209976
0.210383
0.210418
0.0581605
0.0581453
0.0583308
0.0592461
0.0614022
0.0654551
0.0722386
0.0826735
0.0975763
0.117299
0.137995
0.154588
0.166448
0.174503
0.179707
0.182882
0.184677
0.185554
0.18588
0.185908
0.0659475
0.0659748
0.0662025
0.0669846
0.0686926
0.0718123
0.0769756
0.084926
0.0963682
0.111659
0.127818
0.140807
0.150087
0.156374
0.160429
0.162903
0.164299
0.164986
0.165238
0.165258
0.0703831
0.0704207
0.07064
0.0712871
0.0726349
0.0750536
0.0790297
0.0851433
0.0939678
0.105823
0.118414
0.128561
0.13581
0.140719
0.143882
0.14581
0.146897
0.14743
0.147624
0.147637
0.0723049
0.072342
0.0725334
0.0730577
0.0741217
0.076004
0.0790781
0.083798
0.0906188
0.0998156
0.109621
0.117534
0.123191
0.12702
0.129484
0.130983
0.131824
0.132236
0.132384
0.132393
0.0722987
0.0723311
0.0724895
0.0729079
0.0737426
0.0752089
0.0775935
0.0812471
0.0865304
0.0936673
0.101294
0.107459
0.111866
0.114847
0.116764
0.11793
0.118583
0.1189
0.119012
0.119018
0.0708009
0.0708273
0.0709539
0.0712833
0.0719359
0.0730769
0.0749274
0.0777599
0.0818559
0.0873968
0.0933283
0.0981267
0.101556
0.103875
0.105364
0.106268
0.106772
0.107016
0.107102
0.107105
0.0681434
0.0681648
0.0682654
0.0685237
0.0690322
0.069919
0.0713556
0.0735528
0.0767294
0.0810295
0.0856366
0.0893658
0.0920327
0.0938363
0.0949947
0.0956959
0.0960856
0.0962713
0.096335
0.0963371
0.0645879
0.0646046
0.0646828
0.0648837
0.0652795
0.0659689
0.0670835
0.0687866
0.0712493
0.0745861
0.0781646
0.0810627
0.0831346
0.084533
0.085429
0.0859704
0.0862713
0.0864151
0.0864645
0.0864657
0.0603331
0.0603461
0.0604073
0.0605635
0.0608704
0.0614044
0.0622679
0.063588
0.0654976
0.0680848
0.0708594
0.0731057
0.0747108
0.0757945
0.0764888
0.0769079
0.0771399
0.0772502
0.0772867
0.0772873
0.0555381
0.0555479
0.0555948
0.0557153
0.0559523
0.0563654
0.0570335
0.058055
0.059532
0.0615331
0.0636815
0.0654205
0.0666622
0.0675009
0.0680387
0.0683626
0.0685403
0.0686235
0.0686509
0.068651
0.0503231
0.0503305
0.0503663
0.0504588
0.0506418
0.0509603
0.0514755
0.0522634
0.0534036
0.0549492
0.0566089
0.057953
0.0589125
0.0595594
0.0599712
0.0602177
0.0603535
0.0604168
0.0604375
0.0604372
0.0447852
0.0447908
0.0448178
0.044888
0.0450272
0.045271
0.0456665
0.0462713
0.0471473
0.0483355
0.0496097
0.0506418
0.0513791
0.0518747
0.0521903
0.0523802
0.0524841
0.0525321
0.0525474
0.052547
0.0389967
0.0390008
0.0390209
0.0390738
0.0391791
0.0393647
0.0396669
0.0401294
0.0407981
0.0417045
0.042677
0.0434631
0.0440219
0.0443973
0.0446372
0.0447811
0.0448603
0.0448974
0.0449091
0.0449088
0.0330173
0.0330201
0.0330351
0.0330754
0.0331549
0.0332939
0.0335203
0.0338672
0.0343702
0.0350525
0.035784
0.0363757
0.0367981
0.0370819
0.0372629
0.0373702
0.0374276
0.0374537
0.0374589
0.0374586
0.0268948
0.0268965
0.0269067
0.026935
0.0269926
0.0270952
0.0272618
0.0275168
0.0278866
0.0283896
0.0289305
0.0293678
0.0296789
0.029886
0.0300157
0.0300928
0.0301341
0.0301516
0.0301547
0.0301548
0.020665
0.0206657
0.0206715
0.0206903
0.0207309
0.0208033
0.0209209
0.0211019
0.0213645
0.0217209
0.0221026
0.0224099
0.0226273
0.022773
0.0228642
0.0229166
0.0229433
0.0229537
0.022956
0.0229562
0.0143577
0.0143581
0.014362
0.0143747
0.0144015
0.014448
0.0145236
0.0146407
0.0148114
0.0150431
0.0152923
0.0154931
0.0156365
0.0157319
0.0157905
0.0158224
0.0158379
0.0158426
0.015842
0.0158419
0.00799603
0.00799606
0.00799872
0.00800579
0.00801899
0.0080432
0.00808392
0.00814645
0.00823645
0.00835882
0.00849458
0.00860093
0.00867583
0.0087249
0.00875601
0.00877425
0.00878146
0.00878066
0.00877804
0.00877804
0.0016023
0.00160099
0.00159686
0.00159426
0.00159484
0.00159868
0.00160546
0.00161606
0.00163254
0.00165598
0.00168482
0.00171213
0.00173117
0.00174443
0.00175334
0.00175801
0.00175999
0.00176081
0.00176015
0.00175905
-0.94315
-0.605848
-0.268334
-0.00373801
0.203834
0.370405
0.513186
0.637181
0.696607
0.672049
-0.367522
-0.163953
0.034728
0.202675
0.343412
0.461118
0.557841
0.627375
0.661299
0.663923
-0.0121356
0.113914
0.239114
0.349456
0.444308
0.523722
0.586716
0.630321
0.657054
0.666836
0.214308
0.295827
0.378847
0.454065
0.520139
0.575741
0.6195
0.65082
0.672401
0.683987
0.371646
0.42635
0.485657
0.540913
0.588709
0.628693
0.660484
0.684897
0.70308
0.715913
0.489
0.529605
0.574703
0.616126
0.65284
0.684604
0.711456
0.733143
0.748712
0.762844
0.584566
0.616976
0.655198
0.690554
0.723367
0.752568
0.777185
0.796837
0.810106
0.825486
0.672575
0.705004
0.741949
0.776868
0.808393
0.835943
0.859143
0.877264
0.88888
0.905193
0.767793
0.804092
0.843365
0.878441
0.909629
0.93647
0.95857
0.975258
0.986036
1.00318
0.884069
0.923978
0.963899
0.999256
1.02905
1.05413
1.07447
1.09003
1.10108
1.11923
1.03
1.07025
1.1064
1.1375
1.16352
1.18579
1.20499
1.2205
1.23303
1.2511
1.20542
1.23799
1.26416
1.28676
1.30705
1.32593
1.34365
1.36035
1.37623
1.39441
1.39362
1.41157
1.42735
1.44396
1.46015
1.47482
1.48793
1.50196
1.51919
1.53882
1.57582
1.58665
1.59891
1.60988
1.61929
1.62888
1.6397
1.65131
1.66131
1.67651
1.78648
1.78849
1.77345
1.7585
1.75228
1.75794
1.77664
1.80705
1.83911
1.86981
2.09297
1.95606
1.87965
1.83711
1.81953
1.82379
1.85099
1.90719
2.0109
2.22627
0.359983
0.35677
0.351261
0.342062
0.329738
0.318035
0.308445
0.301159
0.29599
0.292922
0.292405
0.294655
0.299067
0.305474
0.314035
0.324859
0.337236
0.34855
0.355435
0.359853
0.276972
0.283045
0.290888
0.297066
0.300867
0.301529
0.299592
0.296312
0.293061
0.290776
0.290394
0.292266
0.295422
0.299024
0.30194
0.30278
0.300579
0.295495
0.288568
0.280817
0.269671
0.271834
0.276387
0.280518
0.283416
0.285446
0.286539
0.286736
0.286263
0.285762
0.285813
0.286492
0.287386
0.287838
0.2874
0.28594
0.283566
0.280128
0.275561
0.271949
0.270506
0.271083
0.273436
0.27649
0.279093
0.280945
0.282149
0.28278
0.282955
0.282919
0.283092
0.283583
0.283924
0.283783
0.283018
0.281681
0.279526
0.276737
0.273866
0.272415
0.270454
0.270608
0.2712
0.272192
0.273266
0.274546
0.275791
0.276762
0.277409
0.277828
0.278165
0.278386
0.278332
0.277872
0.276977
0.275815
0.274747
0.273774
0.272958
0.272629
0.268184
0.268256
0.268658
0.269352
0.270116
0.270898
0.271649
0.272354
0.272983
0.273515
0.273938
0.2742
0.274181
0.273912
0.27347
0.272899
0.272243
0.271574
0.271043
0.270847
0.26527
0.265298
0.26545
0.265765
0.266192
0.266732
0.267362
0.26804
0.268718
0.269366
0.269919
0.270222
0.270252
0.270073
0.269764
0.269398
0.269056
0.268756
0.268554
0.268484
0.261622
0.261642
0.261733
0.26192
0.262194
0.26256
0.263022
0.263581
0.264219
0.26491
0.265568
0.266031
0.266242
0.266268
0.266191
0.266064
0.265922
0.265789
0.265695
0.265659
0.257605
0.257617
0.257688
0.25783
0.258044
0.25835
0.258765
0.259305
0.259974
0.260762
0.26158
0.262218
0.262598
0.262785
0.262853
0.262853
0.262822
0.262781
0.262749
0.262734
0.253319
0.253326
0.253381
0.253499
0.253686
0.253967
0.254371
0.254928
0.255663
0.256582
0.257599
0.258455
0.259033
0.259392
0.259602
0.259717
0.259773
0.259795
0.259801
0.259799
0.248765
0.248768
0.248822
0.248934
0.249122
0.249414
0.24985
0.250474
0.251327
0.252437
0.253713
0.254837
0.255629
0.256168
0.256512
0.256724
0.256849
0.256917
0.256949
0.256956
0.243917
0.243918
0.243973
0.244096
0.244305
0.244638
0.245143
0.24588
0.24691
0.248277
0.249887
0.251341
0.252399
0.253127
0.25361
0.253919
0.254109
0.254218
0.254273
0.254287
0.23873
0.23873
0.238794
0.238937
0.239184
0.239583
0.240195
0.241097
0.242371
0.244081
0.246118
0.247978
0.249347
0.250305
0.250948
0.251364
0.251622
0.251774
0.251851
0.251872
0.233125
0.233123
0.233202
0.233378
0.233684
0.234179
0.234941
0.236069
0.237668
0.239824
0.242404
0.244774
0.246527
0.247758
0.248588
0.249129
0.249467
0.249666
0.249769
0.249797
0.227001
0.226999
0.227098
0.22732
0.227707
0.228331
0.229295
0.230723
0.232748
0.23548
0.238754
0.241761
0.243989
0.245557
0.246616
0.247306
0.247738
0.247993
0.248126
0.248162
0.220217
0.220215
0.220342
0.220626
0.221121
0.22192
0.223151
0.224972
0.227552
0.231025
0.235178
0.238987
0.241806
0.243789
0.245129
0.246004
0.246551
0.246875
0.247042
0.247087
0.212586
0.212583
0.212748
0.213117
0.213756
0.214786
0.21637
0.218706
0.222005
0.226429
0.231696
0.23651
0.240066
0.242564
0.244253
0.245353
0.246042
0.24645
0.246662
0.246719
0.203854
0.20385
0.204068
0.20455
0.205384
0.206723
0.208774
0.211787
0.216021
0.221664
0.228341
0.234413
0.238883
0.24202
0.244138
0.245519
0.246384
0.246896
0.247162
0.247232
0.193677
0.193674
0.193965
0.194604
0.195704
0.197461
0.200138
0.204046
0.209498
0.216704
0.225157
0.232794
0.238397
0.242324
0.244975
0.246703
0.247784
0.248426
0.248757
0.248845
0.181578
0.181577
0.181974
0.182838
0.184309
0.186639
0.190167
0.195274
0.202321
0.211527
0.222204
0.231774
0.23877
0.243669
0.246979
0.249139
0.250493
0.251298
0.251714
0.251823
0.166873
0.166877
0.167439
0.168635
0.170639
0.17378
0.17849
0.185221
0.194372
0.206132
0.219568
0.231497
0.240192
0.246285
0.250412
0.253113
0.254814
0.25583
0.256358
0.256494
0.148558
0.14858
0.149414
0.151124
0.153916
0.158243
0.164641
0.173614
0.185548
0.200544
0.217357
0.232122
0.242863
0.250418
0.255566
0.258957
0.261109
0.262409
0.263095
0.263271
0.125101
0.125182
0.126499
0.129041
0.133071
0.139227
0.148121
0.160226
0.175823
0.194859
0.215714
0.233814
0.246976
0.256305
0.262738
0.267033
0.269798
0.271501
0.272424
0.272668
0.0939535
0.094205
0.0964606
0.100487
0.10669
0.115874
0.128553
0.145016
0.165347
0.189288
0.214835
0.236732
0.25268
0.264126
0.272182
0.277698
0.281343
0.283651
0.284946
0.285308
0.0503419
0.0510562
0.0555233
0.0627438
0.0731954
0.0875367
0.105881
0.128247
0.154484
0.184154
0.214934
0.240985
0.260019
0.27391
0.283975
0.291153
0.296143
0.29948
0.30147
0.302008
-0.0141812
-0.0116725
-0.00122559
0.0132575
0.0318406
0.0543794
0.0806457
0.110518
0.143715
0.179754
0.216104
0.24649
0.268777
0.28534
0.297749
0.307068
0.314032
0.319203
0.322641
0.32327
-0.0928813
-0.0871931
-0.0674415
-0.0411494
-0.0120942
0.0198047
0.0546313
0.0923819
0.132895
0.175848
0.218608
0.254385
0.281038
0.301422
0.31734
0.32999
0.34021
0.348563
0.353633
0.35574
-0.171663
-0.158508
-0.12874
-0.0925104
-0.053855
-0.0130059
0.0300294
0.0753286
0.122891
0.172568
0.221667
0.262764
0.293553
0.317343
0.336206
0.351449
0.363898
0.374128
0.381449
0.385293
-0.227005
-0.213012
-0.178439
-0.135889
-0.0903646
-0.0425556
0.00738659
0.0593577
0.113279
0.169026
0.223708
0.269224
0.303157
0.329179
0.349543
0.365697
0.378602
0.388955
0.39631
0.399908
-0.269304
-0.25511
-0.217158
-0.17056
-0.120513
-0.0677249
-0.0125767
0.0446955
0.103913
0.164915
0.224532
0.273906
0.310386
0.338005
0.359309
0.375972
0.389108
0.399494
0.406922
0.410535
-0.301919
-0.287948
-0.24834
-0.198952
-0.145617
-0.0891919
-0.0300282
0.0315266
0.0951766
0.160716
0.224695
0.277498
0.316223
0.345226
0.367317
0.384367
0.39765
0.40803
0.415491
0.419097
-0.328671
-0.314842
-0.274119
-0.222857
-0.16712
-0.107849
-0.0455302
0.0194059
0.086667
0.15607
0.224011
0.280122
0.321091
0.351512
0.374425
0.391907
0.405376
0.4158
0.423336
0.426943
-0.351499
-0.337706
-0.296092
-0.243446
-0.185945
-0.124555
-0.0597964
0.00784098
0.0780648
0.150822
0.222499
0.281997
0.325408
0.357443
0.381334
0.399355
0.413095
0.423613
0.431239
0.434837
-0.371586
-0.357809
-0.315363
-0.2616
-0.202708
-0.13967
-0.0730518
-0.00335422
0.0692059
0.144816
0.220075
0.28319
0.329419
0.363404
0.388529
0.407272
0.421391
0.432087
0.439783
0.443424
-0.389633
-0.375789
-0.332747
-0.277958
-0.21794
-0.153608
-0.0855971
-0.0143974
0.0598962
0.137862
0.216569
0.283665
0.333243
0.36966
0.39638
0.416081
0.430724
0.441673
0.449477
0.453142
-0.406136
-0.392117
-0.348497
-0.29284
-0.231898
-0.166594
-0.0975912
-0.0254139
0.0500005
0.129762
0.211771
0.283294
0.336901
0.376388
0.405175
0.42615
0.441512
0.452818
0.460806
0.464502
-0.421289
-0.407109
-0.362776
-0.306492
-0.244763
-0.178737
-0.109109
-0.0364521
0.0394509
0.120358
0.205415
0.281857
0.340336
0.383681
0.415146
0.437797
0.454133
0.465937
0.474115
0.477837
-0.435309
-0.420932
-0.375882
-0.318965
-0.256643
-0.190102
-0.120177
-0.0475152
0.0282217
0.109517
0.197222
0.279055
0.343384
0.391563
0.426453
0.451293
0.468902
0.481383
0.48983
0.493575
-0.448219
-0.433603
-0.388042
-0.330433
-0.267595
-0.200694
-0.130756
-0.0585421
0.0163414
0.097156
0.186901
0.274535
0.345805
0.399981
0.43922
0.46686
0.486114
0.499472
0.508289
0.512118
-0.460207
-0.445265
-0.399183
-0.340955
-0.277649
-0.21052
-0.140787
-0.0694377
0.00390852
0.0832389
0.174186
0.267896
0.34729
0.408803
0.453487
0.484694
0.506036
0.520516
0.529809
0.533758
-0.471239
-0.456093
-0.409326
-0.350556
-0.286822
-0.219561
-0.150209
-0.0800713
-0.00895492
0.0678028
0.158832
0.258699
0.347478
0.417832
0.469241
0.504871
0.528816
0.544661
0.554554
0.558562
-0.481477
-0.466051
-0.418599
-0.359276
-0.295139
-0.2278
-0.158959
-0.0903122
-0.0220455
0.0509395
0.140641
0.246497
0.345936
0.426853
0.486279
0.527232
0.55444
0.572008
0.582623
0.586622
-0.490837
-0.475138
-0.427026
-0.367148
-0.302623
-0.235224
-0.166976
-0.100034
-0.0351666
0.032834
0.119479
0.230834
0.342286
0.435436
0.504088
0.551501
0.582773
0.602437
0.613786
0.61762
-0.499514
-0.483512
-0.434694
-0.374243
-0.30932
-0.241862
-0.174217
-0.109112
-0.0481025
0.0137146
0.0952965
0.211195
0.336112
0.443138
0.522275
0.577152
0.613515
0.635896
0.647271
0.650146
-0.507528
-0.491155
-0.441662
-0.380599
-0.31526
-0.247727
-0.180655
-0.117432
-0.0606281
-0.00615972
0.0681016
0.187187
0.326961
0.449727
0.540103
0.603147
0.646202
0.673152
0.684088
0.68277
-0.515008
-0.498282
-0.447958
-0.386257
-0.320505
-0.252855
-0.186287
-0.124923
-0.0725357
-0.0264792
0.0380353
0.158201
0.314342
0.455097
0.55736
0.627456
0.677448
0.712698
0.728427
0.716488
-0.522002
-0.504906
-0.453635
-0.391307
-0.325182
-0.257377
-0.191249
-0.131743
-0.0840856
-0.0479607
0.00313696
0.12128
0.296248
0.459559
0.573857
0.648368
0.702426
0.746689
0.771173
0.77187
-0.528539
-0.51105
-0.458648
-0.395787
-0.329362
-0.261346
-0.195542
-0.137825
-0.0950766
-0.0703768
-0.0373074
0.0741169
0.27031
0.463208
0.590615
0.659649
0.704007
0.738039
0.733804