/*--------------------------------*- C++ -*----------------------------------*\
  =========                 |
  \\      /  F ield         | OpenFOAM: The Open Source CFD Toolbox
   \\    /   O peration     | Website:  https://openfoam.org
    \\  /    A nd           | Version:  9
     \\/     M anipulation  |
\*---------------------------------------------------------------------------*/
FoamFile
{
    format      ascii;
    class       surfaceScalarField;
    location    "6";
    object      phi;
}
// * * * * * * * * * * * * * * * * * * * * * * * * * * * * * * * * * * * * * //

dimensions      [0 3 -1 0 0 0 0];

internalField   nonuniform List<scalar> 
17370
(
-0.0910166
0.0934449
0.286583
-0.0747948
0.0567705
0.3648
-0.0407725
0.0297869
0.427154
-0.0209469
0.0152555
0.504943
-0.0109817
0.00836011
0.602024
-0.00636122
0.00504221
0.720377
-0.00394039
0.00315543
0.863691
-0.00241585
0.00181867
1.03605
-0.00124255
0.00077331
1.24297
-0.00030765
-3.9126e-05
1.49154
0.000403291
-0.000877443
1.49167
0.00134171
-0.00191394
1.24326
0.0025094
-0.00325516
1.03638
0.00403418
-0.00511964
0.863992
0.00642586
-0.00841308
0.721045
0.011026
-0.015292
0.603481
0.020978
-0.0298134
0.508275
0.0407954
-0.0567893
0.432162
0.0748089
-0.0934535
0.36542
0.0910228
0.197988
-0.127718
0.0891767
0.0385417
-0.365089
0.354695
-0.0711846
0.0815784
-0.446429
0.454872
-0.0791137
0.0706701
-0.520702
0.529316
-0.0620805
0.0534664
-0.612845
0.620763
-0.0458484
0.0379307
-0.727028
0.733622
-0.0311574
0.0245637
-0.867557
0.872092
-0.0194346
0.014899
-1.03853
1.04144
-0.0115417
0.00862758
-1.24465
1.24659
-0.00646332
0.0045166
-1.49269
1.49429
-0.00295103
0.00135328
-1.49243
1.49396
0.000201242
-0.00173563
-1.24403
1.24559
0.0033129
-0.00486668
-1.03753
1.0397
0.00680119
-0.00896933
-0.866152
0.869491
0.0118591
-0.0151978
-0.724511
0.729615
0.0197072
-0.0248115
-0.608993
0.615733
0.0313955
-0.0381356
-0.514917
0.522502
0.0460094
-0.0535948
-0.439481
0.448059
0.0621837
-0.0707619
-0.375207
0.377654
0.0791947
-0.0816417
-0.257327
0.224657
0.0712283
-0.0385587
-0.0706395
0.0621085
0.00853101
-0.0453733
0.0514228
-0.375825
0.369775
-0.0507462
0.0473111
-0.454503
0.457938
-0.0424192
0.0383997
-0.52769
0.531709
-0.0343563
0.0307277
-0.62041
0.624039
-0.026977
0.0237012
-0.733915
0.737191
-0.0201522
0.0169759
-0.872913
0.876089
-0.0136683
0.0108098
-1.04233
1.04519
-0.00785262
0.00524484
-1.24786
1.25047
-0.00236758
-0.00036169
-1.49646
1.49919
0.00308757
-0.00591446
-1.49669
1.49952
0.0084684
-0.0113745
-1.24907
1.25197
0.0141889
-0.0174471
-1.04451
1.04777
0.0205993
-0.0241148
-0.876203
0.879719
0.0273728
-0.0310909
-0.738436
0.742154
0.034691
-0.0387103
-0.625883
0.629902
0.0427014
-0.0475622
-0.535363
0.540223
0.0509593
-0.0515928
-0.459099
0.459732
0.0454953
-0.02773
-0.338595
0.32083
0.00855085
-0.0705854
0.0620345
-0.0580586
0.0564405
0.00161802
-0.0180742
0.0258243
-0.361751
0.354001
-0.0305279
0.0325651
-0.458422
0.456384
-0.0328983
0.0322618
-0.534396
0.535033
-0.0309011
0.0294266
-0.626472
0.627946
-0.0273332
0.0249968
-0.739903
0.74224
-0.0221417
0.0193465
-0.879052
0.881847
-0.0160798
0.0129836
-1.04822
1.05132
-0.00949839
0.00631958
-1.25339
1.25656
-0.00279405
-0.000526056
-1.50206
1.50538
0.00383819
-0.00738142
-1.50266
1.5062
0.0105404
-0.0139232
-1.25522
1.2586
0.0169098
-0.0201117
-1.05104
1.05424
0.0228332
-0.0255928
-0.882783
0.885543
0.0278408
-0.0298558
-0.744857
0.746872
0.0312492
-0.0325449
-0.632782
0.634078
0.0331365
-0.0327618
-0.54289
0.542515
0.0306924
-0.0259553
-0.457212
0.452475
0.0181719
-0.0077922
-0.306112
0.295732
0.00163721
-0.0579683
0.0563311
-0.0561145
0.0560859
2.86166e-05
-0.00536698
0.0104933
-0.347532
0.342406
-0.0160729
0.0203057
-0.452732
0.4485
-0.0237882
0.0257514
-0.533921
0.531958
-0.0267829
0.0267721
-0.628726
0.628736
-0.0259579
0.0246007
-0.744008
0.745366
-0.0225317
0.0201808
-0.884418
0.886769
-0.0172136
0.0141939
-1.05439
1.05741
-0.0106336
0.00714475
-1.25994
1.26343
-0.00309425
-0.000921105
-1.50914
1.51316
0.00491295
-0.00888311
-1.51003
1.514
0.0122693
-0.0157327
-1.26203
1.26549
0.018652
-0.0214871
-1.05724
1.06007
0.0237026
-0.0256273
-0.887833
0.889758
0.0268721
-0.0276049
-0.748224
0.748957
0.0275391
-0.0264178
-0.633879
0.632758
0.0243794
-0.0208208
-0.539928
0.536369
0.0165171
-0.0108429
-0.446769
0.441095
0.00560916
-0.00143996
-0.289214
0.285044
6.88669e-05
-0.0559761
0.0559072
-0.0559485
0.0558127
0.000135806
-0.00279809
0.00588533
-0.338353
0.335265
-0.0100638
0.0137948
-0.444347
0.440616
-0.0172309
0.019477
-0.52979
0.527544
-0.0209761
0.0215753
-0.628454
0.627855
-0.0214191
0.0207492
-0.746373
0.747043
-0.0194718
0.0178628
-0.888739
0.890348
-0.015632
0.0132404
-1.06015
1.06254
-0.010207
0.00690052
-1.26689
1.27019
-0.0028156
-0.00121053
-1.51725
1.52128
0.00519506
-0.00913594
-1.518
1.52194
0.0123397
-0.0153367
-1.26878
1.27178
0.0176973
-0.0198245
-1.06258
1.06471
0.0213444
-0.0225193
-0.891299
0.892474
0.0230617
-0.0230069
-0.749266
0.749211
0.0222051
-0.0204843
-0.631375
0.629654
0.0180537
-0.0144289
-0.532622
0.528997
0.0105347
-0.00619327
-0.435948
0.431607
0.00298555
-0.000901855
-0.2821
0.280017
0.000165184
-0.0557343
0.0555691
-0.0557883
0.0558154
-2.71535e-05
-0.000903927
0.00237491
-0.333074
0.331603
-0.00470029
0.00704365
-0.437542
0.435199
-0.00946058
0.0113272
-0.525389
0.523522
-0.0129067
0.013901
-0.626968
0.625974
-0.0144737
0.0145451
-0.747288
0.747216
-0.0141163
0.0132629
-0.891565
0.892418
-0.0118429
0.0101206
-1.0646
1.06632
-0.0077608
0.00514226
-1.27322
1.27583
-0.0018141
-0.00154126
-1.52506
1.52842
0.00482256
-0.00803657
-1.52564
1.52886
0.0105532
-0.012899
-1.27446
1.2768
0.0145487
-0.0157628
-1.0664
1.06761
0.0164129
-0.0166244
-0.893151
0.893362
0.0163519
-0.015533
-0.748677
0.747858
0.0143133
-0.0125071
-0.62777
0.625963
0.010451
-0.00784619
-0.52579
0.523185
0.00534961
-0.00287017
-0.428222
0.425743
0.00125558
-0.00032437
-0.278627
0.277696
3.25124e-05
-0.0555037
0.0554711
-0.0558321
0.0558325
-4.15112e-07
-0.000418637
0.00105926
-0.330634
0.329994
-0.00214519
0.00333295
-0.433502
0.432315
-0.00467202
0.00581744
-0.522022
0.520876
-0.00690885
0.00771241
-0.625035
0.624231
-0.00831827
0.00855709
-0.747007
0.746768
-0.00845229
0.00802155
-0.893014
0.893444
-0.00716189
0.00600907
-1.06773
1.06889
-0.00435024
0.00258276
-1.27801
1.27978
-0.000336601
-0.00197857
-1.53125
1.53356
0.00424499
-0.00631767
-1.53147
1.53354
0.00788706
-0.00946146
-1.27879
1.28036
0.0104483
-0.0109703
-1.06843
1.06895
0.0110614
-0.0108123
-0.893272
0.893023
0.0102835
-0.009416
-0.746961
0.746094
0.00839436
-0.00707897
-0.624391
0.623076
0.00574301
-0.00420837
-0.521171
0.519636
0.00284863
-0.00157096
-0.423968
0.42269
0.000751307
-0.000248251
-0.277028
0.276525
5.11259e-05
-0.0554254
0.0553742
-0.0558341
0.0558441
-9.96837e-06
-0.000178451
0.000465159
-0.329565
0.329278
-0.000946979
0.00148951
-0.431503
0.430961
-0.00213234
0.00271459
-0.520041
0.519459
-0.00330726
0.00377352
-0.623595
0.623129
-0.00415359
0.00432159
-0.74655
0.746382
-0.00428578
0.00403714
-0.893764
0.894012
-0.00349886
0.00274849
-1.06982
1.07057
-0.00164739
0.000489936
-1.2812
1.28236
0.000979783
-0.00249672
-1.53544
1.53695
0.00397732
-0.00529198
-1.53519
1.53651
0.00619744
-0.00690266
-1.28148
1.28219
0.00726403
-0.0074148
-1.06926
1.06941
0.0073073
-0.00695425
-0.8927
0.892347
0.00645257
-0.00575446
-0.745302
0.744604
0.0050178
-0.00414353
-0.621997
0.621123
0.00331834
-0.00242403
-0.518469
0.517575
0.00166476
-0.000961232
-0.421755
0.421051
0.000495306
-0.000182835
-0.276136
0.275823
4.28337e-05
-0.0553283
0.0552854
-0.0558641
0.0558955
-3.14558e-05
3.88996e-05
6.31578e-05
-0.329094
0.328992
-0.000253542
0.000471853
-0.430607
0.430389
-0.000733486
0.000972723
-0.519072
0.518833
-0.00121744
0.00140642
-0.622814
0.622625
-0.00154893
0.00158761
-0.746278
0.746239
-0.00150895
0.00130823
-0.894224
0.894425
-0.000924139
0.000410335
-1.07118
1.07169
0.00033333
-0.00112207
-1.28331
1.2841
0.00211137
-0.00310472
-1.53818
1.53917
0.004039
-0.00483881
-1.53754
1.53834
0.0053185
-0.0054936
-1.28258
1.28276
0.00549638
-0.00542471
-1.06943
1.06936
0.00521887
-0.00485251
-0.891984
0.891618
0.00442246
-0.00388194
-0.743993
0.743453
0.00335122
-0.00275438
-0.620409
0.619812
0.00221416
-0.00164588
-0.516874
0.516305
0.00116943
-0.000721364
-0.420502
0.420054
0.000406131
-0.00016987
-0.275559
0.275322
4.65548e-05
-0.0552416
0.0551951
-0.0559364
0.0559864
-4.99451e-05
0.000199203
-0.000226257
-0.328967
0.328994
0.000213881
-0.000181404
-0.430273
0.430241
0.000139971
-0.000107619
-0.518708
0.518675
8.67627e-05
-9.04618e-05
-0.62254
0.622544
0.000132485
-0.000221142
-0.746265
0.746353
0.000387188
-0.00061488
-0.894633
0.894861
0.000960818
-0.00137168
-1.07214
1.07255
0.00192592
-0.00250176
-1.28477
1.28534
0.00319473
-0.00384853
-1.53998
1.54063
0.00441462
-0.0048518
-1.53895
1.53938
0.00504913
-0.00498614
-1.28278
1.28272
0.00481966
-0.00459705
-1.06921
1.06899
0.00431468
-0.00393049
-0.891246
0.890861
0.00353508
-0.00307472
-0.742962
0.742502
0.00264634
-0.00218249
-0.619296
0.618832
0.00177393
-0.001351
-0.515826
0.515403
0.00099647
-0.000654007
-0.419671
0.419329
0.000395922
-0.000180984
-0.275102
0.274887
5.43794e-05
-0.055145
0.0550907
-0.0560433
0.056109
-6.5665e-05
0.000339031
-0.000461603
-0.329067
0.32919
0.000571014
-0.00066493
-0.430277
0.430371
0.000773036
-0.000883483
-0.51872
0.518831
0.00102232
-0.00117021
-0.622624
0.622772
0.00136133
-0.00156925
-0.746502
0.74671
0.00184071
-0.00213403
-0.895117
0.895411
0.00251059
-0.00290433
-1.07295
1.07334
0.00338554
-0.00385135
-1.28585
1.28632
0.00436599
-0.00479795
-1.54116
1.5416
0.00511206
-0.00527216
-1.53967
1.53983
0.00526409
-0.00509661
-1.28261
1.28244
0.00483387
-0.00449778
-1.0687
1.06837
0.00414255
-0.00371932
-0.89046
0.890036
0.00331675
-0.00287244
-0.742056
0.741612
0.00247364
-0.00205264
-0.618399
0.617978
0.001688
-0.00131389
-0.515013
0.514639
0.00099876
-0.000685988
-0.419008
0.418695
0.000435936
-0.00021051
-0.27467
0.274444
6.6593e-05
-0.0550307
0.0549641
-0.056185
0.0562717
-8.67519e-05
0.000477123
-0.000682084
-0.329355
0.32956
0.00089578
-0.00109324
-0.430518
0.430715
0.00132306
-0.00155125
-0.519001
0.519229
0.00182426
-0.00209706
-0.622983
0.623256
0.00242385
-0.00275007
-0.746977
0.747303
0.00313916
-0.00352356
-0.895747
0.896131
0.003974
-0.00440557
-1.07375
1.07418
0.00488795
-0.00531566
-1.28676
1.28719
0.00573714
-0.0060331
-1.54195
1.54225
0.00617957
-0.00615499
-1.53989
1.53987
0.00598936
-0.00568058
-1.2822
1.28189
0.00532864
-0.00489043
-1.06798
1.06754
0.00446037
-0.00397426
-0.889586
0.8891
0.00352957
-0.00305257
-0.741157
0.74068
0.00263322
-0.00219715
-0.617555
0.617119
0.00182314
-0.00144098
-0.514267
0.513885
0.00111709
-0.000788685
-0.418379
0.41805
0.000515108
-0.000255952
-0.274204
0.273945
8.30186e-05
-0.0548897
0.0548067
-0.0563698
0.0564808
-0.000111078
0.00062975
-0.00091749
-0.329805
0.330093
0.00123228
-0.00153024
-0.430963
0.431261
0.00187842
-0.00222165
-0.519515
0.519858
0.0026275
-0.00302644
-0.623591
0.62399
0.00349425
-0.00394868
-0.747691
0.748146
0.00447369
-0.00497304
-0.89657
0.897069
0.00553327
-0.00604366
-1.07465
1.07516
0.00658078
-0.00702261
-1.28762
1.28806
0.00741181
-0.00762796
-1.5425
1.54271
0.00765622
-0.00748542
-1.53977
1.5396
0.00718679
-0.00674167
-1.28152
1.28107
0.00627049
-0.00571116
-1.06705
1.06649
0.00518145
-0.00459838
-0.888569
0.887986
0.00407564
-0.00352297
-0.74017
0.739617
0.00304257
-0.00254708
-0.616658
0.616163
0.00212436
-0.00169326
-0.513482
0.513051
0.00132665
-0.000950172
-0.417702
0.417325
0.000629142
-0.0003169
-0.273662
0.27335
0.000103959
-0.054714
0.05461
-0.0566069
0.0567498
-0.000142973
0.000819993
-0.00120336
-0.330426
0.33081
0.00163008
-0.00203754
-0.431612
0.432019
0.00251456
-0.00298377
-0.520262
0.520731
0.00353603
-0.00407544
-0.624456
0.624996
0.00470277
-0.00530586
-0.748671
0.749274
0.00599327
-0.00663625
-0.897636
0.898279
0.00734229
-0.00796853
-1.07572
1.07635
0.00860447
-0.00910213
-1.28852
1.28902
0.00950301
-0.00967573
-1.5429
1.54308
0.00961081
-0.00930525
-1.53936
1.53905
0.00886846
-0.00826896
-1.28055
1.27995
0.00765483
-0.00694317
-1.06586
1.06515
0.00628189
-0.00556389
-0.887341
0.886623
0.00492708
-0.00425917
-0.739012
0.738344
0.00368161
-0.00308796
-0.615623
0.615029
0.00258251
-0.00206755
-0.512583
0.512068
0.00162881
-0.00117526
-0.416914
0.416461
0.000783587
-0.000397387
-0.273003
0.272617
0.000131047
-0.0544933
0.0543623
-0.0569123
0.0570967
-0.000184476
0.00106212
-0.00156285
-0.331248
0.331749
0.00212376
-0.00266103
-0.432488
0.433025
0.00329038
-0.00390858
-0.521271
0.521889
0.0046349
-0.00534241
-0.625615
0.626322
0.00616218
-0.0069462
-0.749963
0.750747
0.00783398
-0.0086572
-0.899007
0.89983
0.0095511
-0.0103324
-1.07705
1.07783
0.0111095
-0.0116989
-1.28956
1.29015
0.0121449
-0.0122949
-1.54324
1.54339
0.0121446
-0.011696
-1.53868
1.53823
0.0111021
-0.0103168
-1.27926
1.27848
0.0095264
-0.00862212
-1.06434
1.06344
0.00778891
-0.00689073
-0.885821
0.884923
0.00609787
-0.00526996
-0.737602
0.736774
0.00455631
-0.00382463
-0.614372
0.61364
0.00320265
-0.00256945
-0.511498
0.510865
0.00202934
-0.00146895
-0.415957
0.415397
0.000982126
-0.000499229
-0.272186
0.271703
0.000164852
-0.0542153
0.0540504
-0.0573066
0.0575454
-0.00023884
0.00137518
-0.00202452
-0.332319
0.332969
0.00275339
-0.00345222
-0.433639
0.434337
0.00427088
-0.00507405
-0.522595
0.523398
0.00601642
-0.00693265
-0.627128
0.628044
0.00799175
-0.00900153
-0.751638
0.752647
0.0101403
-0.0111906
-0.90076
0.901811
0.0123235
-0.0133045
-1.0787
1.07968
0.0142678
-0.014983
-1.2908
1.29151
0.0155009
-0.0156383
-1.54353
1.54367
0.0153952
-0.0147798
-1.5377
1.53708
0.0139956
-0.0129781
-1.27758
1.27657
0.0119658
-0.0108155
-1.06242
1.06127
0.00976219
-0.0086309
-0.883916
0.882784
0.00763538
-0.00659741
-0.735848
0.73481
0.00570397
-0.00478874
-0.612823
0.611908
0.00401155
-0.00322072
-0.510158
0.509367
0.00254611
-0.00184523
-0.414771
0.41407
0.00123486
-0.000627988
-0.271162
0.270555
0.000207324
-0.0538656
0.0536583
-0.0578181
0.0581286
-0.000310531
0.00178383
-0.0026247
-0.333707
0.334548
0.00356879
-0.00447389
-0.435132
0.436037
0.00553392
-0.00657262
-0.524311
0.52535
0.00778945
-0.00897042
-0.629085
0.630266
0.0103324
-0.0116277
-0.753792
0.755087
0.0130836
-0.0144211
-0.902996
0.904334
0.0158557
-0.0170891
-1.08078
1.08202
0.0182874
-0.0191623
-1.2923
1.29318
0.0197727
-0.0198972
-1.5438
1.54392
0.0195406
-0.018718
-1.53637
1.53555
0.0176954
-0.0163853
-1.27541
1.2741
0.0150912
-0.0136283
-1.05997
1.05851
0.012293
-0.0108628
-0.881512
0.880082
0.00960696
-0.00829971
-0.733646
0.732338
0.00717592
-0.00602578
-0.610882
0.609732
0.00504937
-0.0040556
-0.508481
0.507488
0.00320728
-0.00232501
-0.413284
0.412402
0.00155581
-0.000790733
-0.269874
0.269109
0.000260766
-0.0534257
0.0531649
-0.0584851
0.0588917
-0.000406576
0.00232596
-0.00341805
-0.335504
0.336597
0.00464295
-0.00581592
-0.437065
0.438238
0.0071879
-0.0085295
-0.52653
0.527871
0.0100981
-0.0116177
-0.631607
0.633126
0.0133665
-0.0150252
-0.756554
0.758212
0.0168834
-0.018583
-0.905842
0.907542
0.0203957
-0.0219426
-1.0834
1.08494
0.0234298
-0.0244974
-1.29414
1.29521
0.0252135
-0.0253117
-1.54404
1.54414
0.024804
-0.0237139
-1.5346
1.53351
0.0223873
-0.0207049
-1.27262
1.27093
0.019054
-0.0171953
-1.05686
1.055
0.0155038
-0.0136957
-0.878474
0.876666
0.01211
-0.0104609
-0.73087
0.729221
0.00904375
-0.00759379
-0.608441
0.606991
0.00636298
-0.00511035
-0.506373
0.50512
0.00404087
-0.00292837
-0.411412
0.410299
0.00195845
-0.000994241
-0.26825
0.267286
0.000327301
-0.052873
0.0525457
-0.0593621
0.0598998
-0.000537663
0.00305656
-0.00448464
-0.337837
0.339265
0.00608387
-0.00761086
-0.439566
0.441093
0.00939118
-0.0111256
-0.529397
0.531132
0.0131471
-0.0151008
-0.634855
0.636809
0.0173433
-0.0194644
-0.760092
0.762213
0.0218315
-0.0239857
-0.909456
0.911611
0.0262678
-0.0281981
-1.08667
1.0886
0.0300299
-0.0313184
-1.29639
1.29768
0.0321409
-0.0321822
-1.54421
1.54425
0.0314653
-0.0300261
-1.53226
1.53082
0.0283099
-0.026156
-1.26903
1.26688
0.0240538
-0.0216957
-1.05291
1.05055
0.0195548
-0.01727
-0.874632
0.872347
0.0152685
-0.0131884
-0.727367
0.725287
0.0114016
-0.00957334
-0.605362
0.603534
0.00802087
-0.00643998
-0.503715
0.502134
0.00508958
-0.00368476
-0.409052
0.407647
0.00246126
-0.00124722
-0.266205
0.264991
0.000409683
-0.0521799
0.0517702
-0.0605266
0.061252
-0.00072533
0.00407486
-0.00596632
-0.340878
0.342769
0.00807544
-0.0100725
-0.442814
0.444811
0.0123824
-0.0146194
-0.533117
0.535354
0.0172171
-0.0197243
-0.639048
0.641555
0.0225974
-0.0253081
-0.764622
0.767333
0.0283192
-0.0310412
-0.914031
0.916753
0.033898
-0.0362848
-1.09075
1.09314
0.0385117
-0.0400354
-1.29908
1.3006
0.0409425
-0.0408698
-1.54424
1.54417
0.0398585
-0.0379599
-1.52917
1.52727
0.0357465
-0.0329972
-1.26444
1.26169
0.0303312
-0.0273509
-1.04789
1.04491
0.0246513
-0.021774
-0.869776
0.866899
0.0192557
-0.0166394
-0.722946
0.72033
0.014392
-0.0120906
-0.60148
0.599179
0.0101334
-0.00813657
-0.500365
0.498368
0.00642751
-0.00464836
-0.406077
0.404298
0.00310107
-0.00156945
-0.26363
0.262099
0.000515166
-0.0513133
0.0507981
-0.0620927
0.0631055
-0.00101282
0.0055671
-0.00811402
-0.344869
0.347416
0.0109149
-0.0135185
-0.447065
0.449669
0.016488
-0.0193501
-0.537974
0.540836
0.0226719
-0.0258861
-0.644472
0.647687
0.0295723
-0.0330416
-0.770411
0.77388
0.0368689
-0.040294
-0.919786
0.923211
0.0438395
-0.0467507
-1.09576
1.09867
0.0494027
-0.051148
-1.30223
1.30397
0.0520794
-0.0517986
-1.544
1.54372
0.0503727
-0.0478754
-1.52509
1.52259
0.0450335
-0.0415458
-1.25859
1.2551
0.0381848
-0.0344404
-1.04156
1.03782
0.0310558
-0.0274528
-0.863658
0.860055
0.0243021
-0.0210302
-0.717375
0.714104
0.0182181
-0.0153342
-0.596587
0.593703
0.0128735
-0.0103506
-0.496144
0.493621
0.00817911
-0.00590996
-0.40233
0.400061
0.0039382
-0.00199232
-0.260391
0.258445
0.000655786
-0.05023
0.0495742
-0.0642427
0.0657195
-0.00147671
0.00786169
-0.0113287
-0.350178
0.353645
0.0150218
-0.0183665
-0.452708
0.456053
0.0221199
-0.0257569
-0.544365
0.548002
0.0300173
-0.03417
-0.651499
0.655651
0.0389378
-0.0433942
-0.777776
0.782233
0.048247
-0.0525157
-0.926947
0.931215
0.0568444
-0.0603092
-1.10178
1.10524
0.0633607
-0.0652567
-1.30576
1.30766
0.0660888
-0.0654514
-1.54326
1.54262
0.0634493
-0.0601824
-1.51972
1.51645
0.0565632
-0.0521808
-1.25117
1.24679
0.0479856
-0.0433263
-1.03361
1.02895
0.0391217
-0.0346492
-0.855982
0.85151
0.0307412
-0.026684
-0.710372
0.706315
0.0231967
-0.0196152
-0.590419
0.586838
0.0165451
-0.0133703
-0.490821
0.487646
0.0106029
-0.00767391
-0.397612
0.394683
0.00511502
-0.00259097
-0.256315
0.253791
0.000860135
-0.0488776
0.0480175
-0.0673003
0.0695622
-0.00226194
0.0115907
-0.0163306
-0.357394
0.362133
0.02114
-0.0254011
-0.460323
0.464584
0.0301649
-0.0348615
-0.552817
0.557514
0.0404463
-0.0458957
-0.660575
0.666024
0.0520865
-0.057757
-0.787065
0.792736
0.063781
-0.0689378
-0.935691
0.940848
0.0740145
-0.0779374
-1.10879
1.11271
0.0812245
-0.0830828
-1.30945
1.31131
0.083577
-0.0823517
-1.54165
1.54043
0.0795563
-0.0753173
-1.51268
1.50844
0.0707615
-0.0653278
-1.24187
1.23644
0.0601656
-0.0544509
-1.02374
1.01802
0.0492972
-0.0438143
-0.846432
0.840949
0.0390212
-0.0340455
-0.701606
0.696631
0.0297682
-0.0253749
-0.582646
0.578253
0.0215931
-0.017643
-0.484083
0.480133
0.0141301
-0.010311
-0.391652
0.387833
0.00690636
-0.00350802
-0.251181
0.247782
0.00117384
-0.0471803
0.0460065
-0.0718767
0.0756465
-0.00376979
0.0183185
-0.0248969
-0.367504
0.374082
0.031177
-0.0366803
-0.470755
0.476258
0.0429328
-0.0491893
-0.564
0.570257
0.0566174
-0.0637045
-0.67222
0.679307
0.0714968
-0.078373
-0.798575
0.805451
0.0854231
-0.091244
-0.946008
0.951829
0.096752
-0.100803
-1.11649
1.12055
0.103932
-0.105386
-1.31284
1.31429
0.105144
-0.102988
-1.53866
1.5365
0.0991097
-0.0936605
-1.50355
1.4981
0.0880049
-0.0813772
-1.23037
1.22374
0.0751429
-0.0682707
-1.01166
1.00478
0.0620751
-0.0554704
-0.834725
0.82812
0.0496813
-0.043655
-0.690757
0.68473
0.038464
-0.0331227
-0.572895
0.567554
0.0285042
-0.0236436
-0.475516
0.470655
0.0192216
-0.014218
-0.384029
0.379025
0.00961781
-0.00489861
-0.244614
0.239895
0.00162506
-0.0449927
0.0433676
-0.0792058
0.086494
-0.00728814
0.0323778
-0.0418517
-0.382442
0.391916
0.0498901
-0.0568744
-0.485285
0.492269
0.0650932
-0.0732756
-0.578668
0.58685
0.0826491
-0.0911558
-0.686791
0.695297
0.10008
-0.107623
-0.812161
0.819704
0.115061
-0.120941
-0.957338
0.963218
0.126226
-0.129801
-1.12412
1.12769
0.132157
-0.132657
-1.3151
1.3156
0.131161
-0.127646
-1.53355
1.53004
0.122353
-0.115455
-1.49185
1.48495
0.108544
-0.100627
-1.21641
1.20849
0.093269
-0.0852165
-0.997221
0.989169
0.0779712
-0.0702383
-0.820718
0.812985
0.0634325
-0.0563115
-0.677629
0.670508
0.0501345
-0.0437332
-0.560876
0.554475
0.0381724
-0.0322929
-0.464651
0.458772
0.0267885
-0.0201908
-0.374049
0.367451
0.013664
-0.00679633
-0.235742
0.228874
0.00214148
-0.0420482
0.0399067
-0.0938882
0.0965138
-0.00262553
0.0193083
-0.0278687
-0.404904
0.413465
0.0359994
-0.0438143
-0.50473
0.512545
0.0532984
-0.0631237
-0.59663
0.606455
0.0738161
-0.0833022
-0.703457
0.712943
0.0938237
-0.103116
-0.826512
0.835804
0.112754
-0.12101
-0.968206
0.976462
0.129211
-0.135788
-1.13025
1.13683
0.141663
-0.145544
-1.31501
1.3189
0.147696
-0.147259
-1.52541
1.52498
0.144106
-0.138596
-1.4771
1.47159
0.132011
-0.123551
-1.19984
1.19138
0.115192
-0.105052
-0.980466
0.970326
0.0956301
-0.0851295
-0.80454
0.794039
0.0756132
-0.0653782
-0.662359
0.652124
0.0560476
-0.0464375
-0.546631
0.537021
0.0382573
-0.0293106
-0.451308
0.442361
0.0212369
-0.0126911
-0.360743
0.352197
0.00604311
-0.00143096
-0.222564
0.217952
-0.000292748
-0.0377463
0.038039
-0.103748
0.0987213
0.00502675
-0.0045465
-0.000541044
-0.425323
0.430411
0.00795852
-0.0150508
-0.523838
0.53093
0.023903
-0.0322519
-0.616295
0.624644
0.0417037
-0.0503185
-0.722381
0.730996
0.0595031
-0.067814
-0.844611
0.852922
0.0764341
-0.0835397
-0.984422
0.991527
0.0908085
-0.0963338
-1.14329
1.14881
0.10126
-0.104289
-1.32264
1.32567
0.105451
-0.104411
-1.52401
1.52297
0.100888
-0.0953025
-1.46564
1.46005
0.0887299
-0.0805911
-1.18284
1.17471
0.0727561
-0.063759
-0.96038
0.951383
0.0553086
-0.0458864
-0.783408
0.773986
0.0374313
-0.0287257
-0.6409
0.632194
0.021298
-0.0136912
-0.525635
0.518028
0.00725745
-0.00104524
-0.430889
0.424677
-0.00370394
0.00729009
-0.341529
0.337943
-0.00819177
0.00608554
-0.210524
0.212631
-0.00283897
-0.0362942
0.0391331
-0.100493
0.0959798
0.00451317
-0.0105463
0.00839604
-0.439468
0.441618
-0.00355602
-0.00209105
-0.540047
0.545694
0.00908981
-0.0159813
-0.633074
0.639965
0.0237402
-0.0308362
-0.73902
0.746116
0.0386024
-0.0454976
-0.860462
0.867357
0.0524643
-0.0585765
-0.998388
1.0045
0.0646969
-0.0694926
-1.15394
1.15874
0.0734281
-0.0757354
-1.32823
1.33054
0.0766573
-0.0755235
-1.52163
1.5205
0.0722393
-0.0672575
-1.45445
1.44947
0.0615941
-0.054907
-1.16713
1.16044
0.0482737
-0.0410424
-0.942865
0.935634
0.0344209
-0.0272181
-0.765652
0.758449
0.0211021
-0.0148583
-0.623907
0.617663
0.00978542
-0.00462581
-0.509723
0.504564
0.000724463
0.00268999
-0.416679
0.413264
-0.00511613
0.00647542
-0.331273
0.329913
-0.0058798
0.00361565
-0.20812
0.210385
-0.00164254
-0.0384516
0.0400941
-0.0966654
0.0928326
0.00383278
-0.0113287
0.0107768
-0.448592
0.449144
-0.00758425
0.0031265
-0.552452
0.55691
0.00259623
-0.00796392
-0.646448
0.651815
0.0141726
-0.0198862
-0.752832
0.758546
0.0261222
-0.0316994
-0.873704
0.879282
0.0377085
-0.0426395
-1.01013
1.01506
0.0477967
-0.0514558
-1.16315
1.1668
0.0547873
-0.0567353
-1.33277
1.33472
0.0574026
-0.056154
-1.51929
1.51804
0.0534613
-0.0494391
-1.44455
1.44053
0.0448345
-0.0391848
-1.15421
1.14856
0.0339481
-0.0283652
-0.928892
0.923309
0.0231726
-0.0178932
-0.752042
0.746763
0.0131246
-0.00850533
-0.61153
0.606911
0.00475477
-0.0012847
-0.498915
0.495445
-0.00121245
0.00337339
-0.407599
0.405438
-0.00484458
0.00525961
-0.324815
0.3244
-0.00471719
0.00294938
-0.206548
0.208316
-0.00132985
-0.0389513
0.0402812
-0.093799
0.090958
0.00284102
-0.00977262
0.0102464
-0.454728
0.454254
-0.00780706
0.00446943
-0.562339
0.565676
-0.000131914
-0.00432654
-0.657075
0.661534
0.00913836
-0.0138246
-0.763755
0.768441
0.0188474
-0.0233686
-0.884385
0.888907
0.0282074
-0.0323748
-1.0198
1.02397
0.0365259
-0.0397934
-1.17033
1.1736
0.0425966
-0.0442444
-1.33644
1.33808
0.0448371
-0.0437933
-1.51692
1.51588
0.0415836
-0.0381274
-1.43636
1.4329
0.0343564
-0.0298848
-1.14342
1.13895
0.0256841
-0.0211063
-0.918008
0.91343
0.0170532
-0.0128378
-0.741747
0.737532
0.00921605
-0.00560155
-0.602418
0.598803
0.00275184
-0.000135309
-0.491199
0.488582
-0.0018947
0.00349433
-0.401289
0.399689
-0.00428803
0.00460646
-0.320335
0.320016
-0.0041294
0.00239192
-0.204648
0.206385
-0.00110446
-0.0391226
0.0402271
-0.0921238
0.089928
0.0021958
-0.00794937
0.00845785
-0.458937
0.458429
-0.00709521
0.0044133
-0.569528
0.57221
-0.000622083
-0.00285698
-0.665459
0.668938
0.00667996
-0.0104793
-0.772525
0.776324
0.0146627
-0.0184591
-0.89308
0.896877
0.0226498
-0.0260718
-1.02782
1.03124
0.0296112
-0.0324082
-1.17659
1.17938
0.0347668
-0.0361594
-1.33954
1.34093
0.036649
-0.0360847
-1.51495
1.51439
0.0341979
-0.0314433
-1.42939
1.42664
0.0282788
-0.0245246
-1.13471
1.13095
0.0212171
-0.0172828
-0.909119
0.905185
0.0138664
-0.0104562
-0.733544
0.730134
0.00746061
-0.0044649
-0.595356
0.59236
0.00205586
0.00031958
-0.485271
0.482896
-0.00182986
0.00309955
-0.396327
0.395057
-0.00394472
0.00412203
-0.316518
0.316341
-0.00358365
0.00213281
-0.203072
0.204523
-0.000947346
-0.0390952
0.0400425
-0.0912472
0.0895829
0.00166425
-0.00622693
0.00677077
-0.462229
0.461685
-0.00552514
0.00354117
-0.575526
0.57751
-0.000332619
-0.00258432
-0.672198
0.675115
0.00604097
-0.0090736
-0.779846
0.782878
0.0124885
-0.0156141
-0.900614
0.90374
0.0193817
-0.0222745
-1.03464
1.03753
0.0251836
-0.0276835
-1.18197
1.18447
0.0300829
-0.0312843
-1.34236
1.34356
0.0318527
-0.0313637
-1.51358
1.51309
0.0300633
-0.0275214
-1.42394
1.4214
0.0249682
-0.0218877
-1.12733
1.12425
0.0189486
-0.0157231
-0.901546
0.89832
0.0127186
-0.00957842
-0.726682
0.723542
0.00717179
-0.00444863
-0.589328
0.586605
0.00218988
-0.000198974
-0.480092
0.478101
-0.00131082
0.00263242
-0.392267
0.390945
-0.0033053
0.00346918
-0.313429
0.313265
-0.00301504
0.00179815
-0.201617
0.202834
-0.000812439
-0.0389615
0.039774
-0.0909598
0.0895933
0.0013665
-0.00493718
0.00545779
-0.46501
0.46449
-0.00415893
0.00228934
-0.58048
0.58235
0.000446496
-0.002894
-0.677873
0.680321
0.00563656
-0.00844864
-0.785924
0.788736
0.0114134
-0.0145568
-0.906652
0.909795
0.0175057
-0.0200877
-1.04044
1.04302
0.0229522
-0.0250768
-1.1868
1.18892
0.0268769
-0.0283547
-1.34466
1.34614
0.0290107
-0.028783
-1.51273
1.5125
0.0276922
-0.025783
-1.41921
1.4173
0.0236194
-0.0209203
-1.12105
1.11835
0.0183843
-0.0154784
-0.895139
0.892233
0.0127795
-0.0100644
-0.720568
0.717853
0.00757122
-0.00511121
-0.583821
0.581361
0.0030937
-0.00102446
-0.475632
0.473563
-0.000549442
0.00164379
-0.388377
0.387282
-0.00239741
0.00274188
-0.310558
0.310213
-0.00249976
0.00148005
-0.200231
0.201251
-0.000685816
-0.0387724
0.0394582
-0.0911384
0.0898798
0.00125851
-0.00374491
0.00396348
-0.467662
0.467443
-0.00277497
0.000951786
-0.584845
0.586668
0.00137112
-0.00365447
-0.682895
0.685178
0.00618128
-0.0085582
-0.791393
0.79377
0.0115443
-0.0138541
-0.912356
0.914665
0.016636
-0.0189046
-1.04565
1.04792
0.0214822
-0.0236135
-1.19093
1.19307
0.0254813
-0.0265863
-1.34734
1.34844
0.0274053
-0.02746
-1.51223
1.51229
0.0269399
-0.0253161
-1.4154
1.41378
0.023558
-0.0212123
-1.11588
1.11353
0.0189737
-0.0162552
-0.889243
0.886525
0.0138313
-0.0111489
-0.715008
0.712325
0.00876033
-0.00630616
-0.578777
0.576323
0.00419076
-0.00230524
-0.471186
0.469301
0.000617473
0.000633872
-0.384694
0.383443
-0.00160421
0.00204952
-0.307688
0.307242
-0.00191212
0.00122615
-0.198699
0.199385
-0.000523614
-0.0384685
0.0389921
-0.0914367
0.0904393
0.000997474
-0.00281031
0.0025571
-0.470491
0.470744
-0.00149933
-0.000300774
-0.588493
0.590294
0.00226337
-0.00440224
-0.687365
0.689504
0.00673627
-0.00918463
-0.796055
0.798503
0.0115277
-0.0138884
-0.917106
0.919467
0.0164994
-0.0184192
-1.05047
1.05239
0.0208787
-0.0227576
-1.19488
1.19676
0.0244384
-0.0258141
-1.34984
1.35121
0.0268693
-0.0270507
-1.51238
1.51256
0.0266907
-0.0257413
-1.41243
1.41148
0.0244905
-0.0224539
-1.1112
1.10916
0.0203948
-0.0180696
-0.88384
0.881515
0.0154354
-0.012975
-0.709486
0.707026
0.0106202
-0.00806701
-0.573936
0.571383
0.00603572
-0.00392918
-0.466764
0.464658
0.0022041
-0.000584462
-0.381147
0.379527
-0.00044689
0.00110943
-0.304771
0.304108
-0.00133875
0.000917672
-0.197033
0.197454
-0.00039871
-0.0379742
0.0383729
-0.0919928
0.0911313
0.000861425
-0.00205369
0.0018509
-0.473438
0.473641
-0.00028705
-0.00125371
-0.592181
0.593721
0.00333877
-0.00534308
-0.691336
0.69334
0.00752631
-0.00958097
-0.800675
0.80273
0.0119772
-0.0139591
-0.921772
0.923754
0.0163881
-0.018548
-1.05461
1.05677
0.0204389
-0.0223797
-1.19851
1.20045
0.024151
-0.0253348
-1.35234
1.35353
0.0264638
-0.0271944
-1.51292
1.51366
0.0271878
-0.0268558
-1.41053
1.4102
0.0258771
-0.0243421
-1.10732
1.10579
0.0226791
-0.0204609
-0.87894
0.876721
0.0180838
-0.0155757
-0.704183
0.701675
0.0131888
-0.0104844
-0.568746
0.566041
0.00822099
-0.00602397
-0.462192
0.459995
0.00396771
-0.00215169
-0.377176
0.37536
0.000821567
0.000141177
-0.301561
0.300598
-0.000574563
0.000501551
-0.195177
0.19525
-0.000233298
-0.0373258
0.0375591
-0.0927185
0.0920288
0.000689611
-0.00116612
0.000773521
-0.476425
0.476817
0.000694541
-0.00236349
-0.595533
0.597202
0.00431992
-0.00618018
-0.69507
0.69693
0.0084416
-0.0103425
-0.804776
0.806677
0.0125534
-0.0145724
-0.926123
0.928142
0.0167767
-0.0187332
-1.05867
1.06062
0.0205848
-0.0222659
-1.20212
1.2038
0.0238502
-0.025383
-1.35478
1.35631
0.0265692
-0.0273487
-1.51425
1.51503
0.0279304
-0.0280059
-1.40995
1.41002
0.027718
-0.0269004
-1.10443
1.10361