/*--------------------------------*- C++ -*----------------------------------*\
  =========                 |
  \\      /  F ield         | OpenFOAM: The Open Source CFD Toolbox
   \\    /   O peration     | Website:  https://openfoam.org
    \\  /    A nd           | Version:  9
     \\/     M anipulation  |
\*---------------------------------------------------------------------------*/
FoamFile
{
    format      ascii;
    class       volVectorField;
    location    "6";
    object      U;
}
// * * * * * * * * * * * * * * * * * * * * * * * * * * * * * * * * * * * * * //

dimensions      [0 1 -1 0 0 0 0];

internalField   nonuniform List<vector> 
8800
(
(0.984795 -0.088321 0)
(1.00194 -0.0566407 0)
(0.999959 -0.0304807 0)
(0.999705 -0.0155869 0)
(0.999208 -0.00842821 0)
(0.999639 -0.00501373 0)
(0.99987 -0.00313036 0)
(0.999981 -0.00186348 0)
(1.00004 -0.000886963 0)
(1.00005 -0.000102641 0)
(1.00004 0.000563643 0)
(1.00002 0.00143128 0)
(0.999931 0.00256365 0)
(0.999785 0.00403452 0)
(0.999437 0.00650288 0)
(0.999299 0.0113822 0)
(1.00005 0.0218745 0)
(0.999171 0.0409522 0)
(1.00719 0.0768787 0)
(0.773702 0.0450628 0)
(0.363037 -0.0147193 0)
(1.04709 -0.072694 0)
(1.08657 -0.0654279 0)
(1.04639 -0.0489748 0)
(1.0239 -0.0354323 0)
(1.01208 -0.0234139 0)
(1.00598 -0.0144848 0)
(1.00288 -0.00857935 0)
(1.00149 -0.0047132 0)
(1.00107 -0.00184408 0)
(1.00107 0.000862825 0)
(1.00115 0.00351309 0)
(1.00199 0.00675705 0)
(1.00408 0.0114915 0)
(1.0085 0.0187544 0)
(1.01716 0.0292983 0)
(1.03348 0.042345 0)
(1.06428 0.0564084 0)
(1.09419 0.07096 0)
(0.844244 0.054846 0)
(0.225628 -0.00130803 0)
(1.08047 -0.0442043 0)
(1.10208 -0.042669 0)
(1.06579 -0.0346833 0)
(1.04042 -0.0280461 0)
(1.02357 -0.0216512 0)
(1.01331 -0.0158082 0)
(1.00785 -0.0104003 0)
(1.0053 -0.00558722 0)
(1.00445 -0.000850987 0)
(1.00463 0.00386001 0)
(1.00624 0.00845589 0)
(1.01003 0.0134568 0)
(1.01763 0.0190771 0)
(1.03079 0.0250378 0)
(1.05164 0.0315435 0)
(1.0824 0.0386609 0)
(1.10967 0.0451919 0)
(0.951811 0.0363247 0)
(0.225402 0.00131567 0)
(0.196914 5.29211e-05 0)
(1.0317 -0.0203223 0)
(1.10042 -0.027861 0)
(1.07206 -0.0282537 0)
(1.04733 -0.026066 0)
(1.03179 -0.0226306 0)
(1.02142 -0.0178829 0)
(1.01476 -0.0124897 0)
(1.01077 -0.00674763 0)
(1.00902 -0.000936465 0)
(1.00955 0.00476715 0)
(1.01228 0.0104876 0)
(1.01744 0.0159336 0)
(1.02579 0.0209289 0)
(1.03839 0.024876 0)
(1.058 0.0276252 0)
(1.08791 0.0286745 0)
(1.09405 0.0257819 0)
(0.865102 0.0119427 0)
(0.196578 -4.8451e-05 0)
(0.193993 8.29163e-05 0)
(0.99373 -0.00694448 0)
(1.0828 -0.0161831 0)
(1.06757 -0.0217604 0)
(1.04864 -0.0234403 0)
(1.03476 -0.0219869 0)
(1.02519 -0.0184953 0)
(1.0186 -0.0135461 0)
(1.01427 -0.00763461 0)
(1.01223 -0.000916752 0)
(1.01283 0.00594907 0)
(1.01579 0.0120532 0)
(1.02111 0.0173333 0)
(1.02903 0.0213892 0)
(1.0405 0.0237737 0)
(1.05691 0.0235839 0)
(1.0777 0.0198668 0)
(1.06639 0.0122778 0)
(0.826584 0.0025636 0)
(0.193435 -7.80866e-05 0)
(0.19327 -4.97015e-07 0)
(0.970657 -0.00364128 0)
(1.06305 -0.0105567 0)
(1.05924 -0.0161444 0)
(1.04866 -0.0186077 0)
(1.03942 -0.0183374 0)
(1.03191 -0.0162255 0)
(1.02601 -0.012501 0)
(1.02192 -0.00744047 0)
(1.01978 -0.000680753 0)
(1.02025 0.00615872 0)
(1.02325 0.0120046 0)
(1.0281 0.016302 0)
(1.03462 0.0190623 0)
(1.04283 0.0201046 0)
(1.05277 0.0186989 0)
(1.06289 0.0143323 0)
(1.04187 0.00733543 0)
(0.809976 0.00135091 0)
(0.192483 8.75024e-06 0)
(0.193057 2.87997e-05 0)
(0.95788 -0.00129314 0)
(1.04803 -0.00514759 0)
(1.05017 -0.00912061 0)
(1.04495 -0.011741 0)
(1.03898 -0.0126666 0)
(1.03343 -0.0119297 0)
(1.02866 -0.00955412 0)
(1.02543 -0.00563867 0)
(1.02346 -0.000128896 0)
(1.02381 0.00556589 0)
(1.0261 0.0101823 0)
(1.02997 0.0132411 0)
(1.03492 0.0144076 0)
(1.0404 0.0139489 0)
(1.04589 0.0117674 0)
(1.04973 0.00806855 0)
(1.02542 0.00353236 0)
(0.801847 0.000508718 0)
(0.19197 -1.14746e-05 0)
(0.19318 9.73306e-06 0)
(0.952342 -0.000573711 0)
(1.03998 -0.00238079 0)
(1.04434 -0.00459215 0)
(1.0421 -0.00639845 0)
(1.03881 -0.00738848 0)
(1.0353 -0.00720143 0)
(1.03191 -0.00576707 0)
(1.02947 -0.00302265 0)
(1.02782 0.000704304 0)
(1.0279 0.00463344 0)
(1.02992 0.00750048 0)
(1.03211 0.00937017 0)
(1.0352 0.00956372 0)
(1.03827 0.00861078 0)
(1.04087 0.0067722 0)
(1.04179 0.0043549 0)
(1.01697 0.00188496 0)
(0.798041 0.000354146 0)
(0.19168 7.17267e-06 0)
(0.193198 9.75079e-06 0)
(0.949869 -0.000255192 0)
(1.03606 -0.00105489 0)
(1.04094 -0.00211739 0)
(1.0399 -0.00309783 0)
(1.03809 -0.00372044 0)
(1.03591 -0.00365355 0)
(1.03358 -0.00275662 0)
(1.03164 -0.000936038 0)
(1.03021 0.00149825 0)
(1.02997 0.00405933 0)
(1.03154 0.00570634 0)
(1.03254 0.00639932 0)
(1.0343 0.0062363 0)
(1.03596 0.00533272 0)
(1.0372 0.00399955 0)
(1.03708 0.00250164 0)
(1.01246 0.00112078 0)
(0.795796 0.000254194 0)
(0.191362 8.18614e-06 0)
(0.193342 1.53312e-05 0)
(0.948808 -6.54769e-07 0)
(1.03437 -0.00031376 0)
(1.03941 -0.000746337 0)
(1.03886 -0.00115096 0)
(1.03782 -0.00138404 0)
(1.03642 -0.00124989 0)
(1.03478 -0.000608899 0)
(1.0332 0.000616891 0)
(1.03188 0.00225272 0)
(1.03139 0.00386342 0)
(1.03222 0.00473744 0)
(1.03262 0.00474286 0)
(1.03348 0.00439505 0)
(1.03428 0.00362068 0)
(1.03483 0.00265856 0)
(1.03428 0.00167742 0)
(1.00982 0.00081016 0)
(0.79427 0.000227121 0)
(0.191059 1.20468e-05 0)
(0.193625 1.85662e-05 0)
(0.948659 0.000194925 0)
(1.03381 0.000171156 0)
(1.0389 0.000103794 0)
(1.03858 6.96962e-05 0)
(1.03789 0.00013977 0)
(1.0369 0.000415827 0)
(1.03565 0.000988602 0)
(1.03427 0.00190362 0)
(1.03296 0.00304576 0)
(1.03219 0.00402039 0)
(1.03223 0.0044062 0)
(1.03232 0.00409197 0)
(1.03261 0.00358874 0)
(1.03291 0.00287556 0)
(1.0331 0.00209866 0)
(1.03236 0.00135607 0)
(1.00798 0.000710419 0)
(0.792998 0.000235497 0)
(0.190714 1.59823e-05 0)
(0.194022 2.28105e-05 0)
(0.949086 0.000350239 0)
(1.03399 0.000535933 0)
(1.03909 0.000716097 0)
(1.03885 0.000945996 0)
(1.03831 0.0012626 0)
(1.0375 0.00171059 0)
(1.03641 0.00233189 0)
(1.03509 0.00312367 0)
(1.03367 0.00396755 0)
(1.03258 0.00451193 0)
(1.03206 0.00451132 0)
(1.03177 0.00405436 0)
(1.03168 0.00341606 0)
(1.03167 0.0026881 0)
(1.03165 0.00196514 0)
(1.0308 0.00130212 0)
(1.00644 0.000727318 0)
(0.791747 0.000269314 0)
(0.190299 2.08346e-05 0)
(0.194548 2.95475e-05 0)
(0.950036 0.00050425 0)
(1.0347 0.000862205 0)
(1.03977 0.00124423 0)
(1.03956 0.00169681 0)
(1.03905 0.00223687 0)
(1.03828 0.00287934 0)
(1.0372 0.00362044 0)
(1.0358 0.00441121 0)
(1.03415 0.00509758 0)
(1.03266 0.00535132 0)
(1.03167 0.00506113 0)
(1.03102 0.00443237 0)
(1.03063 0.00365956 0)
(1.03039 0.0028556 0)
(1.03024 0.00209478 0)
(1.0293 0.0014153 0)
(1.00492 0.00082425 0)
(0.790362 0.000324709 0)
(0.189784 2.66691e-05 0)
(0.195228 3.73673e-05 0)
(0.951454 0.000670929 0)
(1.03589 0.00119739 0)
(1.04092 0.001776 0)
(1.04068 0.00244824 0)
(1.04014 0.0032219 0)
(1.03931 0.0040875 0)
(1.03811 0.00500805 0)
(1.03649 0.0058865 0)
(1.03448 0.00651484 0)
(1.03252 0.00656461 0)
(1.03106 0.00603819 0)
(1.03006 0.00519471 0)
(1.0294 0.00424064 0)
(1.02897 0.00329457 0)
(1.0287 0.00242308 0)
(1.02769 0.00165496 0)
(1.00324 0.000985762 0)
(0.788727 0.000400403 0)
(0.189141 3.38139e-05 0)
(0.196101 4.78699e-05 0)
(0.95338 0.000876163 0)
(1.03758 0.00158974 0)
(1.04254 0.00238227 0)
(1.04224 0.00329707 0)
(1.0416 0.0043341 0)
(1.04063 0.00546731 0)
(1.0392 0.00662695 0)
(1.03725 0.00766512 0)
(1.03474 0.00830845 0)
(1.0322 0.00819868 0)
(1.03022 0.00742767 0)
(1.02883 0.00632687 0)
(1.0279 0.00513425 0)
(1.02729 0.00398149 0)
(1.02689 0.00293456 0)
(1.02581 0.00201537 0)
(1.00126 0.00121447 0)
(0.786727 0.000501161 0)
(0.188333 4.28284e-05 0)
(0.197227 6.17089e-05 0)
(0.955914 0.00113617 0)
(1.03984 0.00207406 0)
(1.04471 0.00311951 0)
(1.04432 0.00432235 0)
(1.04353 0.00567724 0)
(1.04232 0.00714059 0)
(1.04056 0.00860813 0)
(1.03812 0.00987544 0)
(1.03495 0.0105884 0)
(1.03169 0.0103316 0)
(1.02911 0.00928097 0)
(1.02728 0.00786384 0)
(1.02603 0.00636151 0)
(1.02521 0.00492657 0)
(1.02469 0.00363221 0)
(1.02352 0.00250185 0)
(0.998842 0.0015157 0)
(0.784237 0.000629332 0)
(0.187315 5.39178e-05 0)
(0.198681 7.9977e-05 0)
(0.959208 0.00147116 0)
(1.04279 0.00269011 0)
(1.04754 0.00404992 0)
(1.04702 0.00560955 0)
(1.04602 0.00736031 0)
(1.04449 0.0092366 0)
(1.04226 0.0110959 0)
(1.03916 0.0126663 0)
(1.03514 0.0134911 0)
(1.03098 0.0130759 0)
(1.02766 0.011687 0)
(1.0253 0.00987046 0)
(1.02368 0.00796987 0)
(1.02263 0.00616822 0)
(1.02195 0.00454723 0)
(1.02069 0.00313466 0)
(0.995829 0.00190271 0)
(0.781114 0.000791734 0)
(0.186034 6.77525e-05 0)
(0.200568 0.000104243 0)
(0.96347 0.00190751 0)
(1.04662 0.00348652 0)
(1.05121 0.00524688 0)
(1.0505 0.0072607 0)
(1.04921 0.00951101 0)
(1.04724 0.01191 0)
(1.04439 0.0142642 0)
(1.04044 0.0162172 0)
(1.03532 0.0171878 0)
(1.03001 0.0165786 0)
(1.02579 0.0147655 0)
(1.02278 0.0124432 0)
(1.02073 0.0100336 0)
(1.01938 0.00775943 0)
(1.01853 0.00572131 0)
(1.01713 0.00394645 0)
(0.992048 0.00239731 0)
(0.777181 0.000997391 0)
(0.184423 8.50546e-05 0)
(0.203033 0.000137039 0)
(0.968982 0.00248548 0)
(1.05155 0.00453409 0)
(1.05593 0.00681246 0)
(1.05497 0.00940728 0)
(1.05329 0.0122964 0)
(1.05074 0.0153574 0)
(1.04705 0.0183315 0)
(1.04198 0.0207553 0)
(1.03546 0.0218928 0)
(1.02873 0.0210264 0)
(1.02338 0.0186706 0)
(1.01958 0.0157055 0)
(1.01698 0.0126522 0)
(1.01528 0.00978105 0)
(1.01421 0.00721067 0)
(1.01266 0.00497296 0)
(0.987284 0.00302009 0)
(0.772224 0.00125506 0)
(0.1824 0.000106447 0)
(0.206279 0.000182267 0)
(0.976118 0.00326287 0)
(1.0579 0.00593681 0)
(1.062 0.00889307 0)
(1.0607 0.0122359 0)
(1.05848 0.0159396 0)
(1.05514 0.0198374 0)
(1.05035 0.0235815 0)
(1.04383 0.0265684 0)
(1.03552 0.0278737 0)
(1.02701 0.0266499 0)
(1.02029 0.0235997 0)
(1.0155 0.019822 0)
(1.01224 0.0159561 0)
(1.01011 0.0123316 0)
(1.00876 0.00909007 0)
(1.00702 0.00626828 0)
(0.981278 0.00380225 0)
(0.76598 0.00157575 0)
(0.179865 0.000132831 0)
(0.210614 0.000248466 0)
(0.985388 0.00434508 0)
(1.06607 0.00786782 0)
(1.06981 0.0117036 0)
(1.06803 0.0159974 0)
(1.06506 0.0207411 0)
(1.06064 0.025698 0)
(1.05437 0.0303847 0)
(1.04597 0.0340179 0)
(1.0354 0.0354567 0)
(1.02471 0.0337301 0)
(1.0163 0.0297873 0)
(1.01033 0.0249919 0)
(1.00625 0.0201149 0)
(1.00358 0.0155538 0)
(1.00189 0.0114768 0)
(0.999929 0.00791962 0)
(0.973714 0.00479944 0)
(0.758113 0.00198374 0)
(0.176688 0.000166751 0)
(0.216525 0.000353266 0)
(0.997541 0.0059267 0)
(1.07671 0.0105941 0)
(1.07997 0.0155276 0)
(1.07746 0.0210169 0)
(1.07339 0.0271022 0)
(1.06743 0.0334004 0)
(1.05918 0.0392198 0)
(1.04835 0.043553 0)
(1.03497 0.0450291 0)
(1.02162 0.0425933 0)
(1.01118 0.0375192 0)
(1.00376 0.0314661 0)
(0.998677 0.0253478 0)
(0.99534 0.0196404 0)
(0.993243 0.0145399 0)
(0.991004 0.0100694 0)
(0.964183 0.00610711 0)
(0.748161 0.00251738 0)
(0.172692 0.000212747 0)
(0.224831 0.000527557 0)
(1.01378 0.00834054 0)
(1.09094 0.0144708 0)
(1.09348 0.0207155 0)
(1.08977 0.0277605 0)
(1.084 0.0356284 0)
(1.07584 0.0436128 0)
(1.06487 0.0507255 0)
(1.05088 0.0557236 0)
(1.03404 0.0570379 0)
(1.01752 0.0536113 0)
(1.00468 0.047131 0)
(0.995521 0.0395633 0)
(0.989194 0.0319557 0)
(0.985003 0.0248735 0)
(0.982363 0.0185486 0)
(0.979766 0.0129748 0)
(0.95216 0.00793136 0)
(0.735498 0.0032691 0)
(0.167625 0.000281804 0)
(0.236942 0.000823115 0)
(1.03602 0.0122012 0)
(1.11048 0.0201219 0)
(1.11173 0.0280689 0)
(1.10602 0.0373209 0)
(1.09764 0.0475344 0)
(1.08629 0.0574511 0)
(1.07162 0.065813 0)
(1.05358 0.0712132 0)
(1.03253 0.0719766 0)
(1.01229 0.0671811 0)
(0.996645 0.0589967 0)
(0.985394 0.0496658 0)
(0.977495 0.0403294 0)
(0.972144 0.0316375 0)
(0.968688 0.0238766 0)
(0.965529 0.0170185 0)
(0.936958 0.0106307 0)
(0.71938 0.00442243 0)
(0.161141 0.00038878 0)
(0.255305 0.00137915 0)
(1.06696 0.0189592 0)
(1.13716 0.0291367 0)
(1.136 0.0396985 0)
(1.12705 0.0520323 0)
(1.11477 0.0648805 0)
(1.0989 0.0765117 0)
(1.07933 0.0856125 0)
(1.05629 0.0907724 0)
(1.0303 0.0903257 0)
(1.00583 0.0836529 0)
(0.986969 0.0734547 0)
(0.973243 0.0621624 0)
(0.963357 0.05092 0)
(0.95638 0.0404084 0)
(0.951605 0.0309754 0)
(0.947427 0.0225977 0)
(0.917757 0.0145777 0)
(0.699148 0.00617305 0)
(0.152879 0.000534473 0)
(0.283178 0.00274296 0)
(1.11138 0.0325092 0)
(1.17327 0.0455664 0)
(1.16709 0.0597606 0)
(1.15263 0.0752841 0)
(1.13441 0.0900096 0)
(1.11244 0.102316 0)
(1.0869 0.111055 0)
(1.05814 0.114923 0)
(1.02677 0.112383 0)
(0.997768 0.103243 0)
(0.975438 0.0907459 0)
(0.958922 0.0773981 0)
(0.946651 0.0642411 0)
(0.937531 0.0518702 0)
(0.930803 0.040649 0)
(0.924831 0.0304704 0)
(0.893526 0.0205416 0)
(0.673665 0.00862324 0)
(0.142964 0.000675355 0)
(0.324224 0.0110976 -1.62989e-20)
(1.17019 0.060874 -1.11801e-20)
(1.21828 0.0776338 2.44585e-21)
(1.20262 0.0947015 0)
(1.17988 0.111153 -5.82193e-35)
(1.15387 0.12546 1.1344e-21)
(1.12471 0.136538 -3.73022e-21)
(1.09256 0.143399 0)
(1.05772 0.144876 1.14776e-34)
(1.02065 0.139533 -8.20253e-21)
(0.986796 0.127671 0)
(0.960575 0.112953 -1.13522e-20)
(0.940726 0.0978144 -3.45233e-20)
(0.925382 0.0831614 -1.6655e-20)
(0.913252 0.0695408 -5.21098e-21)
(0.903453 0.0573658 -3.1506e-21)
(0.894267 0.0465396 0)
(0.860742 0.0358011 2.27042e-21)
(0.639509 0.0211444 2.66175e-21)
(0.132818 0.00408693 4.7271e-20)
(0.343954 0.0302095 -3.95496e-20)
(1.21921 0.110334 9.99637e-22)
(1.2591 0.128815 -1.78669e-21)
(1.23492 0.143594 0)
(1.20419 0.157998 7.34004e-22)
(1.17075 0.170239 -1.37956e-21)
(1.1346 0.179173 -2.88714e-21)
(1.09582 0.183734 -1.59305e-20)
(1.05463 0.182786 0)
(1.01131 0.174953 3.45572e-20)
(0.971673 0.160971 3.74505e-20)
(0.940449 0.144905 1.18521e-20)
(0.916119 0.129098 4.64084e-20)
(0.896517 0.114248 6.82406e-20)
(0.880242 0.100837 0)
(0.866236 0.0892867 1.01257e-19)
(0.852622 0.0797689 1.48488e-19)
(0.81616 0.0703345 1.65454e-19)
(0.612669 0.050522 -1.92298e-19)
(0.131591 0.0113324 -3.49733e-21)
(0.331196 0.0488988 0)
(1.24868 0.174561 -1.22438e-20)
(1.28937 0.192547 0)
(1.25936 0.203133 1.67886e-20)
(1.22242 0.21317 0)
(1.18281 0.221298 3.89937e-21)
(1.14067 0.226485 4.38639e-21)
(1.09611 0.22765 -2.58205e-20)
(1.04929 0.223588 -2.92606e-21)
(1.00037 0.212956 1.67381e-20)
(0.955675 0.196947 8.56281e-20)
(0.920385 0.179864 -3.8876e-22)
(0.892725 0.163939 -3.451e-20)
(0.870308 0.149758 -6.63834e-20)
(0.851682 0.137605 8.05995e-20)
(0.835825 0.127683 -1.44407e-19)
(0.821192 0.119971 -1.9732e-20)
(0.788302 0.11164 0)
(0.602381 0.085311 1.20328e-21)
(0.136184 0.0198235 0)
(0.317021 0.0646521 -3.15143e-19)
(1.26179 0.242076 1.2935e-19)
(1.30697 0.260858 6.63651e-20)
(1.27372 0.267151 -1.16637e-20)
(1.23286 0.272258 1.74695e-20)
(1.18899 0.275707 -1.16851e-20)
(1.14243 0.27654 7.2934e-21)
(1.09339 0.273705 0)
(1.04211 0.26605 -6.83005e-20)
(0.988773 0.252302 0)
(0.940207 0.234084 -4.3218e-20)
(0.901976 0.215922 -6.00027e-20)
(0.872201 0.199792 -3.81114e-20)
(0.848395 0.185949 -4.89075e-20)
(0.828961 0.174419 0)
(0.812789 0.165258 0)
(0.798297 0.15838 -1.30943e-19)
(0.7674 0.150016 2.60753e-20)
(0.591632 0.115614 -1.52957e-20)
(0.135794 0.027032 -1.76563e-20)
(0.305926 0.0787707 2.31623e-19)
(1.26381 0.308953 0)
(1.31399 0.328973 -1.85196e-19)
(1.27918 0.331211 -4.47266e-20)
(1.23605 0.331796 -3.10609e-20)
(1.18955 0.330708 0)
(1.13999 0.327222 8.66856e-22)
(1.08766 0.320337 2.39713e-20)
(1.03287 0.308967 3.05906e-20)
(0.975915 0.291942 8.08275e-20)
(0.924253 0.271324 0)
(0.883885 0.251808 -1.28962e-19)
(0.852779 0.235065 -8.19931e-20)
(0.828221 0.221049 -4.92253e-20)
(0.808479 0.2096 3.21669e-19)
(0.792319 0.200529 3.93289e-20)
(0.778152 0.193707 1.88033e-19)
(0.74861 0.184647 -9.09076e-19)
(0.579626 0.143004 5.41476e-19)
(0.134352 0.0336467 -6.45377e-19)
(0.297983 0.0919665 2.42396e-19)
(1.25909 0.372502 -4.48587e-20)
(1.31351 0.394745 3.25337e-20)
(1.27795 0.393434 8.63544e-20)
(1.23348 0.389916 5.03364e-20)
(1.18527 0.384761 3.08249e-21)
(1.13363 0.377255 -1.78163e-21)
(1.07891 0.366464 1.9915e-20)
(1.02153 0.351404 -6.54427e-20)
(0.961895 0.331047 0)
(0.907939 0.307886 -5.55939e-20)
(0.866034 0.286774 -2.76826e-21)
(0.834045 0.269045 -9.1057e-20)
(0.809083 0.254456 0)
(0.789272 0.242616 -6.98273e-20)
(0.773263 0.233243 -1.69297e-19)
(0.759402 0.226066 4.67842e-19)
(0.730882 0.216112 -4.67426e-19)
(0.567604 0.167797 6.63574e-19)
(0.132266 0.0395989 -6.82121e-19)
(0.292108 0.10438 -1.0456e-21)
(1.25045 0.432017 5.42685e-20)
(1.30764 0.456984 1.56174e-19)
(1.27186 0.452822 -5.33418e-20)
(1.2267 0.445825 2.86104e-20)
(1.17741 0.437023 0)
(1.12437 0.425796 8.86224e-21)
(1.06798 0.411341 -1.7369e-20)
(1.0087 0.392738 -3.0367e-20)
(0.947007 0.369103 0)
(0.891272 0.343336 -5.33221e-20)
(0.848184 0.320411 -7.43149e-20)
(0.815559 0.301421 9.88653e-20)
(0.790366 0.285923 -6.33613e-20)
(0.770586 0.273396 -3.05845e-19)
(0.754784 0.263429 1.87849e-19)
(0.741256 0.255699 5.95511e-20)
(0.713616 0.244741 0)
(0.555361 0.19028 -6.42332e-19)
(0.129754 0.0449528 -2.32653e-20)
(0.287436 0.116193 3.89203e-20)
(1.23964 0.487414 -6.18759e-20)
(1.29815 0.515365 -8.42458e-20)
(1.26225 0.508881 -1.59947e-19)
(1.21674 0.498908 1.40188e-19)
(1.16679 0.486913 -6.90691e-20)
(1.11281 0.472323 -1.85324e-20)
(1.05523 0.454464 -2.55269e-20)
(0.994579 0.432539 2.64516e-20)
(0.931386 0.40575 -1.89033e-19)
(0.874262 0.377412 -6.47454e-20)
(0.830194 0.352554 0)
(0.79707 0.332092 1.07515e-19)
(0.771716 0.315425 1.32956e-19)
(0.752022 0.301949 1.63881e-19)
(0.736466 0.291217 -2.04813e-19)
(0.723278 0.282752 -6.16525e-20)
(0.696475 0.270669 7.33041e-20)
(0.542881 0.210562 0)
(0.126918 0.0497171 -5.08922e-20)
(0.283558 0.127515 -4.44611e-19)
(1.2278 0.539276 2.85076e-19)
(1.28623 0.570048 9.04296e-20)
(1.25024 0.561564 -1.21033e-19)
(1.20452 0.548992 8.41294e-20)
(1.15414 0.534149 -6.52396e-21)
(1.09951 0.51652 1.70912e-20)
(1.04112 0.495539 -9.75062e-21)
(0.979545 0.470518 -5.17e-20)
(0.915272 0.440799 -3.81456e-22)
(0.857031 0.410004 -1.89446e-19)
(0.812073 0.383199 1.86686e-19)
(0.778429 0.361111 -1.2007e-19)
(0.752899 0.34305 1.49952e-19)
(0.733294 0.328425 0)
(0.71799 0.316706 -1.11463e-19)
(0.705193 0.30737 -2.82978e-21)
(0.679245 0.293975 -3.21087e-19)
(0.530067 0.228816 -4.73181e-20)
(0.12369 0.0538518 0)
(0.280303 0.13823 0)
(1.21549 0.587927 3.01609e-19)
(1.2727 0.621156 2.10425e-19)
(1.23659 0.610905 1.35786e-19)
(1.19073 0.596107 7.92064e-20)
(1.14008 0.578713 0)
(1.08501 0.55832 2.19838e-20)
(1.02604 0.534424 -2.43282e-21)
(0.963856 0.50653 1.05902e-19)
(0.898888 0.474124 -2.24558e-20)
(0.839737 0.441083 -1.37624e-19)
(0.793877 0.412414 9.2447e-20)
(0.759574 0.388617 -4.13567e-21)
(0.733769 0.368975 1.57662e-19)
(0.714181 0.35296 1.04e-19)
(0.699134 0.340048 -2.43361e-19)
(0.686736 0.329676 2.95254e-19)
(0.661661 0.314879 8.86033e-20)
(0.516777 0.244993 3.65707e-19)
(0.119978 0.0572852 -9.64691e-19)
(0.277596 0.148621 -1.11059e-19)
(1.20287 0.633696 1.73007e-19)
(1.25816 0.668947 -1.30374e-19)
(1.22185 0.657118 -1.55601e-19)
(1.17588 0.64033 0)
(1.125 0.62066 6.1823e-20)
(1.06964 0.597724 -6.09475e-20)
(1.01031 0.571076 1.09213e-20)
(0.947783 0.540454 0)
(0.882457 0.505612 -3.343e-19)
(0.822602 0.470687 3.66431e-19)
(0.775711 0.440377 0)
(0.740502 0.414869 1.41957e-19)
(0.714176 0.393444 -4.60025e-21)
(0.694482 0.375783 -3.30495e-19)
(0.67962 0.36141 1.29609e-19)
(0.667654 0.349778 0)
(0.643483 0.333524 4.82526e-19)
(0.502762 0.259242 0)
(0.115772 0.0600295 -4.63912e-19)
(0.2754 0.158683 1.21936e-19)
(1.19014 0.676931 1.96688e-19)
(1.2432 0.713565 -1.35166e-19)
(1.20646 0.700448 0)
(1.16037 0.681844 1.06962e-19)
(1.10925 0.660097 0)
(1.05366 0.634773 8.45265e-20)
(0.99416 0.605515 6.30386e-21)
(0.931555 0.572256 1.13881e-20)
(0.866199 0.535212 -1.61519e-19)
(0.805858 0.498876 3.4702e-20)
(0.757803 0.467312 0)
(0.721262 0.440153 -3.00845e-19)
(0.693999 0.416781 5.00715e-21)
(0.673946 0.397136 0)
(0.659142 0.380999 5.71078e-21)
(0.647595 0.367812 4.42175e-19)
(0.624431 0.3498 -4.28428e-19)
(0.487801 0.271446 1.25872e-19)
(0.110891 0.0618477 0)
(0.273448 0.168338 0)
(1.17735 0.717632 2.16864e-19)
(1.228 0.755321 1.56809e-19)
(1.1908 0.741048 -4.07555e-21)
(1.14449 0.720838 6.74384e-20)
(1.09311 0.697158 1.4073e-19)
(1.03728 0.669567 -2.65023e-20)
(0.977701 0.637767 -3.95688e-22)
(0.915325 0.601932 5.87047e-20)
(0.850336 0.562853 -2.36128e-19)
(0.789834 0.525665 -2.2677e-21)
(0.740372 0.493458 -1.18761e-19)
(0.701942 0.464874 4.94757e-19)
(0.673153 0.439388 -6.48556e-21)
(0.652299 0.417411 -2.66234e-19)
(0.637327 0.399069 -4.8826e-19)
(0.626169 0.383953 0)
(0.604028 0.363863 0)
(0.471599 0.281393 1.41829e-19)
(0.105115 0.0626727 -8.11128e-20)
(0.272126 0.177722 1.47783e-19)
(1.16492 0.756009 -4.63804e-19)
(1.21263 0.794642 -1.65006e-19)
(1.17507 0.779162 0)
(1.12847 0.757499 -1.79271e-21)
(1.07679 0.732007 1.68095e-19)
(1.02068 0.702229 -9.19716e-20)
(0.961055 0.667894 -3.03754e-20)
(0.89915 0.629494 5.77309e-20)
(0.835078 0.588489 -1.6989e-19)
(0.774826 0.551057 -2.84529e-19)
(0.723787 0.519051 3.12393e-19)
(0.682744 0.489508 0)
(0.651585 0.461823 -1.20362e-19)
(0.629231 0.437015 -2.96504e-19)
(0.61378 0.415875 -3.5998e-19)
(0.602892 0.398384 -4.3982e-19)
(0.581647 0.37567 1.32674e-19)
(0.453443 0.288933 -7.69016e-20)
(0.0979966 0.0623651 1.81119e-21)
(0.270929 0.186834 0)
(1.15301 0.792227 0)
(1.19741 0.831596 2.35178e-21)
(1.15942 0.815006 0)
(1.11247 0.792014 -2.4389e-19)
(1.06043 0.764812 -1.46569e-19)
(1.00402 0.732903 0)
(0.94431 0.696005 -9.36491e-21)
(0.883036 0.65491 6.31334e-20)
(0.820495 0.612077 -3.69855e-19)
(0.761207 0.574987 0)
(0.708539 0.544321 -1.94496e-19)
(0.664001 0.514635 -8.56002e-21)
(0.629279 0.484855 -7.22249e-21)
(0.60453 0.456796 3.21029e-19)
(0.588073 0.431782 -4.4905e-22)
(0.57685 0.411262 -9.74012e-19)
(0.55643 0.385302 2.95524e-19)
(0.432782 0.29372 8.8161e-20)
(0.0893518 0.0604577 0)
(0.269887 0.195892 -5.30965e-19)
(1.14131 0.826476 -2.76039e-19)
(1.18252 0.866377 -3.99505e-19)
(1.14399 0.848774 5.45814e-19)
(1.09665 0.824545 -4.47598e-19)
(1.04414 0.795731 0)
(0.98736 0.761736 -7.77548e-20)
(0.927564 0.722224 1.80379e-20)
(0.866984 0.678237 4.94575e-21)
(0.806571 0.633459 2.74067e-20)
(0.749294 0.597349 3.21497e-19)
(0.695152 0.569472 -6.43218e-20)
(0.646147 0.540898 -3.03878e-19)
(0.606412 0.509495 -1.48322e-19)
(0.577725 0.477124 1.83267e-19)
(0.559369 0.447449 -9.02591e-24)
(0.547553 0.422384 2.7503e-19)
(0.528836 0.392437 -6.53162e-19)
(0.408674 0.294743 7.85539e-19)
(0.0788951 0.0566205 1.10621e-19)
(0.268941 0.204705 1.92451e-19)
(1.1299 0.858971 -1.46956e-19)
(1.16802 0.899158 8.77872e-21)
(1.12891 0.88064 3.00931e-19)
(1.0811 0.855266 1.03239e-19)
(1.02804 0.824919 2.84036e-19)
(0.970765 0.788882 -3.44386e-20)
(0.910818 0.74668 8.89122e-20)
(0.851036 0.699547 -7.49344e-21)
(0.793284 0.652486 -1.64135e-19)
(0.739241 0.617952 0)
(0.684334 0.594607 -2.87977e-19)
(0.629802 0.569115 4.44628e-19)
(0.582787 0.537005 0)
(0.548108 0.499147 -3.96495e-19)
(0.526484 0.464816 2.53669e-19)
(0.514709 0.433194 -3.03893e-19)
(0.496877 0.397574 -3.7108e-19)
(0.379019 0.291855 -6.56023e-19)
(0.0658907 0.050254 -5.03697e-19)
(0.268413 0.213456 -2.08098e-19)
(1.11887 0.889778 1.56719e-19)
(1.154 0.930086 3.60445e-19)
(1.11426 0.910736 4.09679e-19)
(1.0659 0.884319 -2.11248e-19)
(1.01219 0.852531 1.89722e-19)
(0.954319 0.814501 -1.05444e-19)
(0.894068 0.769535 1.12606e-19)
(0.835117 0.718946 1.72547e-20)
(0.780571 0.669087 1.1226e-19)
(0.731044 0.636432 5.85703e-19)
(0.676697 0.61977 0)
(0.615497 0.599874 0)
(0.558959 0.567801 -1.7421e-19)
(0.514986 0.525239 0)
(0.487949 0.482695 5.62935e-19)
(0.47556 0.444176 6.82726e-19)
(0.457806 0.400095 0)
(0.341927 0.283623 0)
(0.0500203 0.0409632 5.69488e-19)
(0.267883 0.221783 2.2631e-19)
(1.10827 0.919037 1.8347e-19)
(1.1405 0.959307 2.55564e-19)
(1.1001 0.939206 -3.55632e-19)
(1.05114 0.911839 -2.30643e-19)
(0.996682 0.878703 -2.46665e-19)
(0.938077 0.838753 1.53667e-19)
(0.877342 0.790958 2.43768e-21)
(0.819107 0.736523 -4.6742e-21)
(0.76828 0.683195 -2.50438e-20)
(0.725076 0.652212 2.70229e-19)
(0.673287 0.644993 0)
(0.604952 0.633022 4.52411e-19)
(0.535303 0.601014 3.69436e-19)
(0.478817 0.558311 9.95864e-19)
(0.445239 0.504849 3.09727e-19)
(0.428317 0.452662 -3.92834e-19)
(0.410871 0.394996 -2.33195e-19)
(0.297344 0.266312 0)
(0.0331078 0.0284242 6.40578e-19)
(0.267881 0.230366 -4.89302e-19)
(1.09814 0.946804 0)
(1.12755 0.986925 2.78529e-19)
(1.0865 0.966149 -2.84564e-19)
(1.03687 0.937935 2.53084e-19)
(0.981579 0.903558 3.53097e-19)
(0.922109 0.861791 -3.47046e-19)
(0.860644 0.81111 3.89616e-21)
(0.802918 0.752419 0)
(0.756132 0.694751 -1.74748e-20)
(0.721494 0.664875 -4.32275e-19)
(0.674551 0.669498 3.16523e-20)
(0.599046 0.668809 6.15627e-19)
(0.51269 0.643109 0)
(0.442485 0.594328 6.88139e-19)
(0.394612 0.536088 0)
(0.366373 0.469543 0)
(0.348457 0.380672 -2.70642e-19)
(0.248229 0.229609 0)
(0.0360334 0.0203395 1.76017e-19)
(0.267782 0.238432 -5.2604e-19)
(1.08839 0.973288 0)
(1.1151 1.01311 4.47081e-19)
(1.07344 0.991768 0)
(1.0231 0.962851 -1.33432e-19)
(0.966846 0.927387 0)
(0.906367 0.884002 -2.52839e-20)
(0.843859 0.830424 -2.1023e-20)
(0.786308 0.76711 -8.69044e-21)
(0.743666 0.70394 4.72435e-20)
(0.72032 0.673964 6.06538e-21)
(0.681413 0.693054 2.69098e-19)
(0.598496 0.708159 5.95897e-19)
(0.493156 0.692479 9.51583e-20)
(0.406609 0.646718 5.54059e-19)
(0.339069 0.574419 0)
(0.28547 0.487307 8.87541e-19)
(0.253739 0.352572 -5.37896e-19)
(0.13328 0.175777 6.1625e-19)
(-0.0411084 0.407684 -7.49663e-19)
(0.267954 0.246489 4.24233e-19)
(1.07882 0.998636 6.63991e-19)
(1.10302 1.03812 0)
(1.06079 1.01646 2.57333e-21)
(1.00961 0.987117 3.58088e-19)
(0.952181 0.950826 -6.52794e-19)
(0.890415 0.906135 -1.46479e-19)
(0.826336 0.849652 0)
(0.768267 0.781229 -8.77986e-20)
(0.72986 0.71061 7.26612e-21)
(0.721963 0.678327 0)
(0.696396 0.716354 0)
(0.60597 0.757022 5.19829e-19)
(0.484701 0.753387 -3.15872e-19)
(0.367409 0.704679 -5.66255e-19)
(0.271367 0.636419 0)
(0.177132 0.5296 4.54837e-19)
(0.0733056 0.608802 -5.35034e-19)
(0.0648313 1.81426 -2.96817e-19)
(0.0957639 2.76787 -3.81667e-19)
(0.26822 0.253688 -3.03052e-19)
(1.06925 1.02287 -8.22551e-19)
(1.0913 1.06184 2.47813e-19)
(1.04867 1.04012 2.30039e-19)
(0.996512 1.01057 0)
(0.937747 0.973701 -4.57692e-19)
(0.874542 0.928084 -2.38202e-19)
(0.808323 0.868766 1.35036e-20)
(0.748893 0.794734 -1.62815e-20)
(0.714533 0.714271 -1.6474e-19)
(0.725272 0.677513 -1.5506e-20)
(0.720572 0.737106 1.68259e-19)
(0.629062 0.810149 5.01926e-19)
(0.47191 0.827456 -7.49566e-19)
(0.319452 0.790769 -8.76829e-19)
(0.205215 0.71865 0)
(0.112009 0.964424 0)
(0.165157 2.46883 2.35544e-19)
(0.168233 3.13572 0)
(0.165019 3.32529 5.16588e-19)
(0.272351 0.259886 0)
(1.05933 1.04579 0)
(1.07978 1.08396 0)
(1.03685 1.06258 6.34578e-20)
(0.983616 1.03305 3.06031e-19)
(0.923436 0.995966 -3.35143e-19)
(0.858774 0.949916 -1.63183e-19)
(0.789795 0.887932 1.46714e-20)
(0.727972 0.807771 -1.72868e-19)
(0.697385 0.714785 -4.14916e-20)
(0.72964 0.66842 -3.4682e-19)
(0.752826 0.747375 -2.28524e-20)
(0.659915 0.875231 4.72207e-20)
(0.465845 0.930065 1.15992e-19)
(0.263085 0.883698 -7.48065e-21)
(0.169305 1.06097 4.02118e-21)
(0.222682 2.54551 -1.16036e-18)
(0.246988 3.2252 -4.36796e-19)
(0.224757 3.37254 2.02452e-19)
(0.203165 3.40089 -2.04285e-19)
(0.169903 0.19695 1.62194e-19)
(1.04685 1.06728 0)
(1.06921 1.10481 -4.61592e-19)
(1.02577 1.08436 -5.784e-19)
(0.971513 1.05517 6.25706e-19)
(0.909911 1.01814 3.52129e-19)
(0.844403 0.971651 1.87623e-19)
(0.772333 0.909827 -2.14779e-19)
(0.705447 0.825644 1.57753e-19)
(0.676486 0.717822 0)
(0.731984 0.648655 -3.73181e-19)
(0.80278 0.726363 -4.56147e-21)
(0.748962 0.919974 0)
(0.496591 1.04655 9.96383e-20)
(0.254465 1.05367 2.654e-19)
(0.201143 2.13118 -3.08575e-19)
(0.334743 3.22952 3.28327e-19)
(0.311816 3.38128 1.58455e-19)
(0.262123 3.42098 1.71501e-19)
(0.228834 3.44087 2.11595e-19)
(0.326927 0.313933 -2.71124e-19)
(1.02493 1.07871 0)
(1.05532 1.13599 4.64444e-19)
(1.00816 1.11653 5.72304e-19)
(0.951645 1.08785 -6.19597e-19)
(0.886783 1.05056 -3.5198e-19)
(0.815399 1.00171 -2.69247e-19)
(0.738327 0.934401 -1.71317e-20)
(0.667354 0.838649 -2.19667e-19)
(0.64034 0.705674 -4.76563e-19)
(0.743957 0.593735 -3.83535e-20)
(0.945231 0.680734 -2.9244e-19)
(0.934264 1.041 1.43501e-20)
(0.596614 1.31074 -9.28881e-20)
(0.382845 1.93635 -2.57686e-19)
(0.475388 3.16726 1.71044e-19)
(0.459254 3.41203 -1.47957e-19)
(0.399171 3.46533 -7.91252e-20)
(0.337316 3.51194 1.74413e-20)
(0.250411 3.50273 -9.15394e-22)
(0.317671 0.313676 0)
(1.02345 1.10238 1.26658e-19)
(1.04581 1.1586 -9.28059e-20)
(0.997299 1.13963 -6.42395e-20)
(0.939249 1.11137 -3.97692e-19)
(0.872403 1.0742 3.40339e-19)
(0.797825 1.0247 1.72887e-19)
(0.716067 0.95537 -1.71061e-20)
(0.637963 0.852531 2.59133e-19)
(0.603137 0.691154 -4.40526e-20)
(0.731201 0.505871 1.8725e-18)
(1.07831 0.61078 -4.88802e-20)
(1.11433 1.17733 1.82167e-20)
(0.719939 1.60588 -8.87129e-20)
(0.560793 2.59479 6.15111e-20)
(0.626986 3.37731 7.47728e-21)
(0.526145 3.50723 -8.16125e-20)
(0.468626 3.55907 -1.42175e-19)
(0.371828 3.61062 2.11968e-19)
(0.2759 3.58905 8.70167e-20)
(0.300168 0.310906 3.15919e-19)
(1.02022 1.13003 8.43508e-19)
(1.03618 1.18386 -2.57766e-19)
(0.986038 1.16495 -2.38232e-19)
(0.926241 1.13696 0)
(0.857266 1.0999 4.7978e-19)
(0.779256 1.04993 2.54792e-19)
(0.692064 0.978783 -1.68346e-20)
(0.604366 0.868219 3.24923e-20)
(0.556765 0.675211 7.33192e-19)
(0.715013 0.386185 1.36876e-18)
(1.16466 0.606658 9.1181e-19)
(1.28578 1.39684 4.89691e-19)
(0.890037 1.99367 2.21067e-19)
(0.745962 3.09471 1.60592e-19)
(0.742829 3.52503 0)
(0.606403 3.59543 0)
(0.521371 3.67683 2.1869e-19)
(0.421615 3.74367 0)
(0.292557 3.71055 2.75405e-19)
(0.287865 0.312346 -4.61193e-19)
(1.01464 1.15979 -7.00121e-19)
(1.02552 1.21129 0)
(0.973694 1.19203 2.4827e-21)
(0.912127 1.16418 -3.78578e-19)
(0.840946 1.1273 6.96283e-19)
(0.759462 1.07732 1.6153e-19)
(0.666296 1.00525 -1.74012e-20)
(0.566611 0.888683 2.29037e-19)
(0.495987 0.665102 -3.74289e-20)
(0.627593 0.320315 0)
(1.16379 0.694833 0)
(1.40217 1.71702 1.10313e-18)
(1.02858 2.43255 -1.52678e-19)
(0.911038 3.43527 -1.87454e-19)
(0.816369 3.64911 0)
(0.708272 3.71686 5.67238e-19)