/*--------------------------------*- C++ -*----------------------------------*\
  =========                 |
  \\      /  F ield         | OpenFOAM: The Open Source CFD Toolbox
   \\    /   O peration     | Website:  https://openfoam.org
    \\  /    A nd           | Version:  9
     \\/     M anipulation  |
\*---------------------------------------------------------------------------*/
FoamFile
{
    format      ascii;
    class       volScalarField;
    location    "23";
    object      p;
}
// * * * * * * * * * * * * * * * * * * * * * * * * * * * * * * * * * * * * * //

dimensions      [0 2 -2 0 0 0 0];

internalField   nonuniform List<scalar> 
2200
(
0.405907
0.38441
0.368508
0.352844
0.338242
0.325739
0.315386
0.30728
0.301545
0.298538
0.298851
0.302427
0.308591
0.316995
0.327562
0.340223
0.354929
0.370671
0.386619
0.408134
0.338308
0.335051
0.332139
0.328039
0.322603
0.316151
0.309544
0.303573
0.299
0.296523
0.29684
0.299928
0.304939
0.311239
0.318078
0.324691
0.330247
0.334416
0.337362
0.340644
0.298372
0.298603
0.300682
0.302053
0.302471
0.301634
0.299689
0.297038
0.294462
0.292834
0.293211
0.295479
0.298535
0.30154
0.303734
0.304733
0.304424
0.303208
0.301261
0.301041
0.275951
0.277409
0.280041
0.282524
0.284962
0.286996
0.288151
0.288371
0.287994
0.287566
0.287992
0.289138
0.290072
0.290268
0.289424
0.287622
0.285361
0.282987
0.280389
0.278958
0.261664
0.263645
0.266481
0.269331
0.272219
0.275067
0.277496
0.279302
0.280425
0.281024
0.281517
0.28177
0.281307
0.279988
0.277924
0.275344
0.272636
0.269883
0.267106
0.265144
0.254295
0.255868
0.258104
0.260723
0.263467
0.26616
0.268751
0.271182
0.273129
0.274433
0.275025
0.274756
0.273599
0.271749
0.269583
0.2672
0.264676
0.262199
0.260039
0.258476
0.251151
0.252135
0.253446
0.255393
0.257607
0.259805
0.261973
0.264222
0.266374
0.268092
0.268792
0.268327
0.267138
0.265619
0.263953
0.262147
0.260212
0.258458
0.257243
0.256259
0.249037
0.249699
0.250396
0.251783
0.253481
0.255206
0.256892
0.258648
0.260459
0.262124
0.26297
0.262834
0.262193
0.261316
0.260281
0.259025
0.25767
0.256515
0.255931
0.255266
0.246158
0.24658
0.247099
0.248372
0.249925
0.251541
0.253139
0.254687
0.25622
0.257675
0.25876
0.259209
0.259126
0.258658
0.257853
0.256776
0.255624
0.25462
0.254223
0.253798
0.242587
0.242777
0.243278
0.244609
0.246223
0.24798
0.249808
0.25159
0.253266
0.25481
0.256155
0.256944
0.257047
0.256593
0.25571
0.254679
0.253565
0.252567
0.252194
0.25201
0.239212
0.239257
0.239707
0.240842
0.24226
0.243908
0.245783
0.247813
0.249893
0.2519
0.253535
0.254433
0.254514
0.25413
0.253478
0.252706
0.251854
0.251108
0.250827
0.250779
0.235975
0.235923
0.236305
0.237098
0.238195
0.239544
0.241132
0.243027
0.245269
0.247686
0.249762
0.251057
0.251646
0.251776
0.251648
0.251303
0.250922
0.250588
0.250434
0.250432
0.232497
0.232399
0.232749
0.233335
0.234283
0.235478
0.236894
0.238675
0.240885
0.24352
0.246116
0.248108
0.249468
0.250232
0.250571
0.250656
0.250645
0.250571
0.250508
0.250503
0.228722
0.228687
0.228967
0.229546
0.230532
0.231827
0.233428
0.235454
0.237927
0.240939
0.24409
0.246637
0.248432
0.249569
0.250271
0.250696
0.250879
0.250938
0.250944
0.250945
0.224471
0.224465
0.224714
0.225319
0.226364
0.227784
0.229674
0.232134
0.235194
0.238931
0.242846
0.245992
0.248171
0.249702
0.250773
0.251435
0.251775
0.251952
0.252011
0.252006
0.219281
0.219247
0.219537
0.220202
0.221269
0.222761
0.224848
0.22769
0.231401
0.236067
0.241041
0.245129
0.248034
0.250112
0.25158
0.252545
0.25316
0.253534
0.253668
0.253649
0.213094
0.213055
0.213355
0.214035
0.215174
0.216848
0.219239
0.222528
0.226954
0.232651
0.238891
0.244142
0.248009
0.250786
0.252796
0.25417
0.255081
0.255612
0.255809
0.255774
0.205515
0.205475
0.20584
0.206699
0.20813
0.210217
0.213168
0.217231
0.222674
0.229671
0.237379
0.243938
0.248812
0.25233
0.254828
0.256538
0.257682
0.25834
0.2586
0.258559
0.196599
0.196541
0.19699
0.198072
0.199891
0.202562
0.206325
0.211467
0.218315
0.227041
0.236529
0.244582
0.250518
0.254807
0.25784
0.259932
0.26131
0.262087
0.262392
0.262338
0.185714
0.185671
0.18628
0.187684
0.190005
0.193387
0.198148
0.204674
0.213319
0.224228
0.235935
0.245787
0.25303
0.258254
0.261935
0.264476
0.266145
0.267087
0.267467
0.2674
0.172491
0.172399
0.173159
0.174952
0.177929
0.18228
0.188402
0.196732
0.207638
0.221224
0.235604
0.247597
0.256398
0.262751
0.267252
0.270375
0.27244
0.273605
0.274049
0.273951
0.155984
0.155953
0.157038
0.159376
0.163261
0.168979
0.176944
0.187648
0.201441
0.218277
0.235799
0.250289
0.260914
0.268584
0.274031
0.277815
0.280296
0.281687
0.282228
0.282113
0.135155
0.135072
0.13656
0.139818
0.145149
0.152891
0.16347
0.17741
0.194856
0.215598
0.236782
0.254114
0.266785
0.275945
0.282468
0.287039
0.290092
0.291808
0.292437
0.292262
0.107706
0.107923
0.110295
0.115033
0.122634
0.133473
0.147842
0.166002
0.187951
0.213315
0.238644
0.259119
0.274043
0.284888
0.292719
0.298255
0.301931
0.303957
0.30469
0.304483
0.0711684
0.0716436
0.0756052
0.0832851
0.0947768
0.110481
0.129958
0.153481
0.180873
0.211534
0.241449
0.265362
0.282785
0.295496
0.304752
0.311416
0.315961
0.318522
0.319404
0.319053
0.0220995
0.0226686
0.0302208
0.043384
0.0614031
0.0838156
0.110084
0.140303
0.174037
0.2106
0.245452
0.272953
0.292971
0.307707
0.318613
0.326613
0.332136
0.335135
0.336007
0.335566
-0.0441751
-0.0409594
-0.0247256
-0.00247838
0.0243353
0.055016
0.0892282
0.12695
0.16771
0.210919
0.251368
0.283202
0.30666
0.324202
0.337458
0.347521
0.354863
0.358735
0.359685
0.359419
-0.121002
-0.109879
-0.0822188
-0.0501012
-0.0136061
0.0259479
0.0683194
0.113767
0.1619
0.212198
0.258965
0.295962
0.32352
0.344578
0.360944
0.37368
0.383597
0.389315
0.39157
0.391913
-0.187436
-0.170948
-0.136384
-0.0960202
-0.0504708
-0.00238311
0.0480762
0.101259
0.156711
0.213916
0.266696
0.308369
0.339427
0.363352
0.3821
0.396738
0.407879
0.414944
0.417584
0.417664
-0.23669
-0.222266
-0.182559
-0.136486
-0.0839778
-0.0288057
0.02897
0.0893648
0.151663
0.215274
0.273481
0.319092
0.353077
0.379039
0.399332
0.415107
0.42684
0.433952
0.436638
0.436871
-0.277341
-0.26382
-0.220955
-0.17116
-0.113493
-0.0526659
0.011303
0.0779433
0.146338
0.21586
0.2791
0.328341
0.36451
0.391689
0.412423
0.428375
0.440344
0.447736
0.450665
0.450953
-0.312374
-0.298581
-0.253519
-0.201167
-0.139475
-0.0740917
-0.0050103
0.0669425
0.140795
0.21581
0.283567
0.335534
0.373053
0.400895
0.422164
0.438447
0.450681
0.458283
0.461406
0.46168
-0.342961
-0.329093
-0.282146
-0.227597
-0.162623
-0.0935347
-0.0202086
0.0563428
0.135091
0.214881
0.286455
0.3407
0.379704
0.408457
0.429971
0.446362
0.45871
0.466449
0.469857
0.469949
-0.370626
-0.35677
-0.308143
-0.251346
-0.183527
-0.111438
-0.0345623
0.0459485
0.128942
0.212916
0.288149
0.345148
0.385568
0.41502
0.437092
0.453741
0.465937
0.473871
0.476768
0.476696
-0.395957
-0.382236
-0.332254
-0.273212
-0.202828
-0.128219
-0.0483518
0.0355623
0.122292
0.210327
0.289417
0.348998
0.3908
0.42129
0.443774
0.460456
0.472587
0.480234
0.483279
0.483325
-0.419851
-0.405801
-0.354869
-0.29384
-0.221118
-0.144264
-0.0617945
0.0250861
0.115221
0.207113
0.290014
0.35245
0.396443
0.427681
0.450467
0.46719
0.479286
0.486855
0.489873
0.490014
-0.442337
-0.428087
-0.37649
-0.313689
-0.238911
-0.159921
-0.0750582
0.0144919
0.107779
0.203318
0.290114
0.35585
0.401588
0.433912
0.45725
0.474236
0.486328
0.493652
0.496754
0.496906
-0.463558
-0.449339
-0.39724
-0.333028
-0.256525
-0.175483
-0.0883254
0.0037045
0.0998891
0.198957
0.289674
0.358627
0.406438
0.440188
0.464191
0.481388
0.493607
0.500933
0.503838
0.503954
-0.483999
-0.469648
-0.417222
-0.351888
-0.274007
-0.191087
-0.101761
-0.00740441
0.0914672
0.193831
0.288255
0.36047
0.411289
0.446784
0.471599
0.489037
0.501178
0.50818
0.511063
0.511108
-0.504164
-0.489237
-0.436534
-0.370234
-0.291261
-0.206732
-0.115467
-0.0189393
0.0824158
0.187783
0.28589
0.361877
0.41582
0.453435
0.479445
0.497192
0.509136
0.516004
0.518505
0.518411
-0.524049
-0.508306
-0.455283
-0.388057
-0.308186
-0.22234
-0.129433
-0.0309863
0.0725834
0.180558
0.281967
0.361981
0.419598
0.460341
0.488044
0.506275
0.517657
0.523642
0.525843
0.525656
-0.543476
-0.526982
-0.473529
-0.405368
-0.32471
-0.237814
-0.143584
-0.0435377
0.061927
0.172284
0.277241
0.361636
0.423279
0.467328
0.497512
0.516489
0.527037
0.531855
0.533159
0.532797
-0.562262
-0.545244
-0.491293
-0.422198
-0.340804
-0.253053
-0.157775
-0.0564266
0.0507218
0.16352
0.271628
0.359602
0.425572
0.474057
0.50774
0.52873
0.538669
0.539891
0.539192
0.539475
-0.580384
-0.562999
-0.508541
-0.438565
-0.356463
-0.267981
-0.171856
-0.0694324
0.0392229
0.153879
0.264035
0.355639
0.426524
0.479918
0.518453
0.543049
0.553843
0.551293
0.546014
0.543589
-0.597817
-0.580139
-0.525208
-0.454453
-0.371686
-0.28254
-0.185688
-0.0823614
0.0274243
0.143439
0.255839
0.351071
0.425836
0.48469
0.529312
0.559782
0.575808
0.5679
0.562015
0.566877
-0.614578
-0.596611
-0.541237
-0.469813
-0.386447
-0.29669
-0.199201
-0.0951848
0.0154415
0.132735
0.246831
0.343802
0.422556
0.487121
0.538591
0.577247
0.60307
0.587679
0.54305
0.496929
-0.630601
-0.612413
-0.556642
-0.484695
-0.400859
-0.310612
-0.212653
-0.108174
0.00305017
0.121126
0.236144
0.33475
0.416429
0.485862
0.544861
0.59422
0.635361
0.649672
0.670615
0.721052
-0.645853
-0.627616
-0.571515
-0.499219
-0.415099
-0.324568
-0.226362
-0.121673
-0.0102725
0.108124
0.223723
0.322936
0.40614
0.478985
0.54087
0.591346
0.624915
0.632028
0.606945
0.614262
-0.660296
-0.642175
-0.585807
-0.513322
-0.429077
-0.338466
-0.240233
-0.135627
-0.0243732
0.093868
0.209351
0.308202
0.390414
0.462142
0.52219
0.567154
0.57282
0.53495
0.480271
0.47195
-0.673963
-0.656104
-0.599531
-0.527002
-0.442775
-0.352286
-0.254244
-0.149941
-0.039175
0.0783066
0.192953
0.290418
0.369273
0.434786
0.487482
0.505819
0.477214
0.409351
0.338936
0.327853
-0.686889
-0.669383
-0.6127
-0.540281
-0.456198
-0.366005
-0.268332
-0.164578
-0.0546509
0.0616901
0.174768
0.269415
0.342078
0.394442
0.423038
0.41441
0.367643
0.268168
0.181797
0.165309
-0.699532
-0.682441
-0.62572
-0.553527
-0.469683
-0.379899
-0.28274
-0.179741
-0.0709164
0.0436214
0.154065
0.244719
0.310237
0.347341
0.341295
0.306327
0.202373
0.0805026
-0.0268156
-0.0496843
-0.712766
-0.696024
-0.639265
-0.567352
-0.483795
-0.394429
-0.297839
-0.195719
-0.0882856
0.024044
0.131248
0.21654
0.274177
0.289205
0.249594
0.163174
0.00430389
-0.149583
-0.277757
-0.302704
-0.727085
-0.710593
-0.653657
-0.58199
-0.498709
-0.409718
-0.313735
-0.212616
-0.106753
0.00297404
0.105859
0.186074
0.233755
0.220309
0.156829
0.00396478
-0.204728
-0.424236
-0.608109
-0.654352
-0.742543
-0.726151
-0.66892
-0.597445
-0.514409
-0.425759
-0.330391
-0.230322
-0.126182
-0.0194537
0.0782001
0.152711
0.186024
0.139253
0.0409816
-0.159969
-0.407575
-0.713022
-1.04823
-1.1902
-0.759192
-0.742876
-0.685166
-0.613797
-0.530934
-0.442597
-0.347873
-0.248962
-0.146723
-0.0432452
0.0491024
0.116928
0.132596
0.0526919
-0.0977755
-0.325471
-0.582669
-0.953148
-1.57015
-2.15759
-0.777021
-0.760686
-0.702413
-0.63108
-0.548295
-0.460238
-0.366143
-0.268374
-0.167982
-0.0677339
0.0189576
0.0793368
0.0776552
-0.0281838
-0.235709
-0.499451
-0.730031
-0.998871
-1.60993
-3.23229
-0.796117
-0.77974
-0.720761
-0.649408
-0.566615
-0.478815
-0.385366
-0.288802
-0.190417
-0.0937356
-0.0130892
0.0380891
0.0184091
-0.092777
-0.340749
-0.618152
-0.794284
-0.858736
-0.885473
-1.29994
-0.81637
-0.799958
-0.740342
-0.669045
-0.586239
-0.498775
-0.406114
-0.310975
-0.214868
-0.122089
-0.0472454
-0.006094
-0.0449568
-0.144188
-0.398976
-0.644409
-0.782932
-0.808257
-0.763893
-0.811807
-0.837788
-0.821309
-0.761175
-0.69003
-0.607183
-0.520154
-0.428415
-0.334863
-0.241335
-0.15294
-0.0832213
-0.0509505
-0.102643
-0.197383
-0.437281
-0.63897
-0.74585
-0.761383
-0.802155
-0.817438
-0.860193
-0.843411
-0.783204
-0.71234
-0.629388
-0.542929
-0.452272
-0.360541
-0.269975
-0.186252
-0.121436
-0.0985341
-0.156043
-0.258009
-0.474324
-0.638765
-0.729977
-0.696967
-0.723138
-0.725037
-0.88334
-0.86619
-0.806337
-0.735829
-0.652662
-0.566966
-0.47749
-0.387683
-0.300319
-0.221312
-0.160783
-0.148767
-0.205859
-0.328882
-0.514375
-0.64029
-0.71095
-0.734626
-0.721585
-0.728971
-0.906654
-0.889314
-0.830493
-0.760238
-0.676772
-0.592004
-0.503785
-0.415934
-0.332089
-0.257859
-0.200977
-0.202449
-0.250568
-0.39686
-0.561403
-0.657701
-0.669837
-0.732634
-0.698486
-0.709024
-0.92983
-0.912551
-0.85514
-0.784926
-0.701366
-0.617735
-0.530751
-0.444894
-0.364788
-0.295234
-0.240983
-0.255454
-0.304873
-0.458959
-0.593127
-0.681566
-0.653949
-0.70299
-0.687566
-0.690293
-0.952335
-0.935507
-0.879334
-0.80943
-0.726145
-0.643646
-0.557809
-0.47382
-0.397375
-0.332639
-0.279276
-0.302128
-0.369343
-0.513458
-0.604918
-0.672588
-0.693075
-0.68038
-0.692028
-0.689633
-0.973549
-0.957422
-0.902291
-0.832767
-0.750594
-0.669076
-0.584247
-0.501984
-0.428658
-0.369314
-0.316282
-0.344767
-0.443801
-0.592029
-0.620636
-0.603245
-0.682032
-0.663656
-0.690279
-0.693315
-0.992531
-0.977447
-0.923503
-0.854511
-0.774093
-0.693101
-0.609188
-0.528603
-0.457668
-0.404159
-0.352961
-0.37838
-0.519409
-0.698149
-0.700689
-0.579204
-0.623635
-0.647941
-0.678611
-0.689783
-1.00828
-0.994483
-0.942139
-0.873884
-0.79533
-0.714674
-0.63184
-0.552548
-0.482937
-0.43497
-0.387035
-0.401088
-0.595262
-0.842312
-0.942604
-0.921835
-0.928576
-0.918735
-0.908171
-0.896183
-1.01973
-1.00758
-0.957478
-0.89032
-0.813144
-0.732866
-0.651001
-0.572596
-0.502726
-0.458525
-0.419185
-0.419582
-0.652177
-1.00446
-1.40265
-1.63553
-1.69233
-1.64537
-1.56608
-1.48988
-1.02593
-1.0156
-0.968392
-0.902471
-0.826106
-0.746396
-0.665341
-0.587584
-0.51644
-0.469334
-0.443723
-0.427208
-0.666338
-1.05636
-1.60587
-1.97347
-2.04462
-1.9531
-1.85237
-1.77008
-1.02573
-1.01716
-0.97346
-0.909033
-0.833387
-0.754252
-0.673581
-0.595635
-0.52181
-0.466211
-0.442746
-0.418777
-0.591724
-0.841677
-1.16264
-1.34796
-1.32668
-1.24285
-1.10344
-1.02567
-1.01817
-1.011
-0.971325
-0.90874
-0.834218
-0.75559
-0.674467
-0.594788
-0.516897
-0.450204
-0.41374
-0.346802
-0.367668
-0.273831
-0.167245
-0.0703967
0.0576668
0.160445
0.228757
0.281758
-1.00104
-0.994239
-0.960254
-0.900539
-0.827581
-0.749479
-0.667546
-0.585333
-0.502191
-0.417709
-0.357505
-0.231388
-0.0726623
0.26017
0.633047
0.925609
1.13933
1.2767
1.3435
1.36616
-0.970713
-0.964206
-0.938613
-0.884273
-0.813727
-0.736563
-0.654166
-0.568702
-0.480863
-0.37574
-0.282584
-0.146858
0.145411
0.556775
0.988785
1.34732
1.61174
1.7688
1.83719
1.85559
-0.927085
-0.922507
-0.907756
-0.860197
-0.792969
-0.717436
-0.635802
-0.548024
-0.456678
-0.343578
-0.226739
-0.117373
0.167941
0.53039
0.919037
1.25346
1.5116
1.67077
1.74373
1.76459
-0.882065
-0.881036
-0.873193
-0.83039
-0.766913
-0.693754
-0.615227
-0.52847
-0.43751
-0.335709
-0.217995
-0.141149
0.053351
0.343142
0.65473
0.91614
1.12617
1.2633
1.33131
1.35553
-0.839203
-0.841936
-0.832864
-0.795608
-0.736921
-0.668383
-0.594878
-0.51429
-0.43049
-0.343444
-0.235927
-0.171629
-0.0570745
0.165709
0.409409
0.600571
0.751959
0.858964
0.910703
0.928407
-0.775674
-0.779346
-0.772258
-0.745425
-0.696298
-0.637386
-0.573061
-0.503787
-0.427935
-0.351379
-0.253552
-0.189902
-0.123749
0.0373973
0.228975
0.3706
0.476767
0.554835
0.588634
0.595425
-0.691551
-0.693411
-0.690112
-0.673984
-0.639717
-0.59667
-0.546524
-0.490697
-0.422881
-0.355933
-0.267854
-0.201132
-0.162756
-0.0565443
0.0911586
0.183654
0.256231
0.306173
0.327908
0.333867
-0.606619
-0.607549
-0.605546
-0.596533
-0.576697
-0.549203
-0.514491
-0.473899
-0.418945
-0.356094
-0.278117
-0.205189
-0.181667
-0.111291
-0.00075087
0.0466688
0.101367
0.134415
0.149157
0.154452
-0.535979
-0.536502
-0.535173
-0.530612
-0.520849
-0.505291
-0.483212
-0.455841
-0.416459
-0.357909
-0.287228
-0.220109
-0.1815
-0.153261
-0.0729286
-0.0420009
-0.00667067
0.0188237
0.0313523
0.0362143
-0.491126
-0.490954
-0.490244
-0.488282
-0.48359
-0.475125
-0.461398
-0.440942
-0.409801
-0.370754
-0.305417
-0.240935
-0.19298
-0.19114
-0.144625
-0.113695
-0.0875979
-0.0688003
-0.0587292
-0.0566837
-0.47406
-0.473657
-0.473189
-0.472387
-0.470488
-0.465509
-0.45835
-0.44588
-0.42533
-0.397697
-0.335108
-0.276425
-0.231559
-0.232681
-0.201497
-0.176995
-0.156195
-0.145944
-0.141929
-0.142277
-0.479513
-0.479119
-0.478895
-0.478997
-0.478741
-0.477052
-0.476034
-0.472819
-0.469894
-0.455239
-0.405038
-0.342576
-0.300315
-0.283213
-0.256407
-0.236284
-0.216406
-0.208363
-0.207785
-0.20972
-0.499702
-0.49942
-0.499766
-0.500955
-0.50287
-0.505789
-0.512825
-0.523668
-0.544961
-0.554581
-0.534837
-0.454228
-0.385975
-0.351544
-0.319422
-0.290356
-0.265186
-0.24718
-0.240115
-0.245753
-0.524841
-0.525153
-0.526412
-0.529163
-0.534389
-0.544081
-0.562787
-0.595165
-0.648816
-0.707497
-0.730598
-0.627965
-0.516294
-0.445863
-0.386734
-0.342287
-0.301251
-0.277179
-0.266571
-0.273684
-0.544008
-0.544992
-0.547577
-0.552354
-0.561551
-0.579364
-0.612888
-0.673019
-0.772221
-0.898995
-0.962327
-0.856206
-0.719957
-0.612394
-0.502022
-0.408342
-0.343997
-0.322408
-0.320482
-0.325768
-0.545438
-0.546905
-0.550164
-0.55761
-0.570268
-0.595068
-0.642197
-0.727509
-0.875494
-1.08232
-1.19099
-1.07812
-0.89914
-0.753999
-0.614803
-0.517206
-0.472881
-0.441979
-0.439346
-0.439431
-0.519846
-0.522101
-0.524887
-0.53211
-0.548094
-0.576169
-0.628259
-0.722912
-0.888566
-1.13578
-1.29183
-1.16822
-0.971104
-0.794312
-0.670656
-0.602128
-0.563757
-0.557209
-0.551135
-0.54807
-0.466881
-0.4689
-0.472066
-0.477673
-0.491037
-0.517933
-0.56759
-0.658322
-0.814458
-1.03435
-1.16562
-1.05041
-0.860721
-0.730451
-0.657676
-0.612537
-0.5868
-0.591535
-0.589509
-0.58724
-0.389261
-0.390741
-0.393382
-0.398156
-0.408006
-0.428534
-0.467477
-0.539473
-0.661269
-0.822465
-0.91011
-0.804897
-0.666738
-0.621247
-0.597613
-0.570608
-0.574626
-0.575461
-0.573943
-0.571578
-0.298497
-0.299373
-0.300824
-0.303572
-0.309627
-0.322676
-0.347781
-0.394824
-0.473505
-0.574167
-0.631036
-0.538469
-0.487294
-0.489669
-0.493981
-0.507429
-0.513961
-0.513745
-0.510865
-0.50849
-0.208359
-0.208719
-0.209213
-0.210024
-0.212466
-0.218584
-0.230737
-0.254255
-0.293084
-0.345744
-0.368076
-0.316807
-0.33553
-0.356477
-0.383313
-0.411311
-0.413948
-0.41472
-0.414681
-0.414193
-0.129933
-0.129885
-0.129803
-0.129382
-0.129347
-0.130513
-0.133238
-0.139333
-0.147431
-0.150252
-0.15271
-0.180357
-0.213892
-0.248831
-0.285604
-0.307159
-0.310416
-0.313712
-0.315683
-0.315603
-0.0692404
-0.0689388
-0.068629
-0.0677402
-0.0665961
-0.0652924
-0.0632222
-0.0604851
-0.0550667
-0.0372986
-0.0381535
-0.083982
-0.127637
-0.163923
-0.204563
-0.218331
-0.223177
-0.22701
-0.227942
-0.228164
-0.0272714
-0.026897
-0.0265874
-0.0257789
-0.0245281
-0.0226679
-0.0193266
-0.0142513
-0.00655389
0.00702254
0.00891383
-0.036306
-0.0771724
-0.108854
-0.133608
-0.145003
-0.151858
-0.154668
-0.155825
-0.156328
-0.00140599
-0.00106793
-0.000849698
-0.000400012
0.000505006
0.00190516
0.00471387
0.00908187
0.0153106
0.0229625
0.0215177
-0.014031
-0.0460126
-0.069529
-0.0875139
-0.0947696
-0.0986795
-0.101139
-0.102385
-0.102958
0.012092
0.0123515
0.0124622
0.0124962
0.0129227
0.0136686
0.0153965
0.018219
0.0221944
0.0257607
0.0225754
-0.00293852
-0.0265986
-0.0432133
-0.0555295
-0.0617754
-0.0643707
-0.0656121
-0.0663576
-0.0667176
0.0168822
0.0170651
0.0171005
0.0168829
0.0168943
0.0170726
0.0178135
0.01919
0.0211522
0.0221756
0.0185729
0.00142597
-0.0149858
-0.0262659
-0.0342929
-0.0383622
-0.0403837
-0.0412158
-0.0417568
-0.0420079
0.0158705
0.0159896
0.015986
0.0156941
0.0154935
0.0153583
0.0155056
0.0159617
0.0166426
0.0163834
0.0131266
0.00224944
-0.00827629
-0.015256
-0.0202553
-0.0226332
-0.0239091
-0.0244564
-0.0248541
-0.0250177
0.0112241
0.0113016
0.011298
0.0110399
0.0107943
0.0105735
0.0104588
0.0104946
0.010557
0.0099704
0.00778957
0.00177136
-0.0040784
-0.00786726
-0.0107314
-0.0122301
-0.0129253
-0.0130921
-0.0131737
-0.0131914
0.00440337
0.00443371
0.00444489
0.004285
0.00413654
0.00400437
0.0038806
0.00388665
0.00380034
0.00351724
0.00271451
0.000649569
-0.00144521
-0.00293761
-0.00447548
-0.00502839
-0.00486016
-0.00429634
-0.00392986
-0.0040277
-1.5405
-0.651279
-0.377325
-0.0869095
0.109614
0.279952
0.423494
0.569237
0.72447
0.801266
-0.517953
-0.0880548
-0.0588539
0.138159
0.275706
0.398587
0.505607
0.59961
0.631434
0.586745
-0.109843
0.117177
0.162617
0.303838
0.399301
0.486692
0.558867
0.612576
0.617439
0.629356
0.136843
0.291513
0.32834
0.439075
0.499084
0.562214
0.610442
0.644514
0.654815
0.67775
0.329133
0.435361
0.465283
0.541164
0.585774
0.630696
0.664843
0.690059
0.700718
0.731624
0.477028
0.55089
0.581432
0.628694
0.665971
0.69797
0.723576
0.744719
0.759564
0.787367
0.6009
0.654039
0.680464
0.710451
0.739574
0.764364
0.785107
0.804687
0.819956
0.846173
0.707387
0.746217
0.767938
0.789532
0.811386
0.83149
0.849273
0.867688
0.88268
0.906261
0.803524
0.832804
0.850251
0.866128
0.882908
0.899392
0.915172
0.932351
0.945947
0.968249
0.892892
0.913912
0.92921
0.942734
0.95664
0.970673
0.984267
0.998937
1.01047
1.03014
0.979478
0.995412
1.00945
1.0215
1.0336
1.04531
1.05647
1.06819
1.07585
1.09266
1.06516
1.07814
1.09197
1.10367
1.11427
1.12403
1.13281
1.14106
1.14463
1.15592
1.15461
1.1656
1.17909
1.1883
1.19573
1.20291
1.21012
1.21672
1.21772
1.22515
1.25309
1.25783
1.26586
1.27035
1.27362
1.27809
1.28409
1.29187
1.29569
1.30557
1.36642
1.35271
1.34526
1.33961
1.33693
1.33833
1.34486
1.35728
1.37201
1.40166
1.48725
1.43157
1.4007
1.38363
1.3755
1.37551
1.38416
1.40362
1.43568
1.50484
)
;

boundaryField
{
    wall-4
    {
        type            zeroGradient;
    }
    pressure-outlet-7
    {
        type            fixedValue;
        value           uniform 0;
    }
    velocity-inlet-6
    {
        type            zeroGradient;
    }
    velocity-inlet-5
    {
        type            zeroGradient;
    }
    frontAndBackPlanes
    {
        type            empty;
    }
}


// ************************************************************************* //
