/*--------------------------------*- C++ -*----------------------------------*\
  =========                 |
  \\      /  F ield         | OpenFOAM: The Open Source CFD Toolbox
   \\    /   O peration     | Website:  https://openfoam.org
    \\  /    A nd           | Version:  9
     \\/     M anipulation  |
\*---------------------------------------------------------------------------*/
FoamFile
{
    format      ascii;
    class       volVectorField;
    location    "23";
    object      U;
}
// * * * * * * * * * * * * * * * * * * * * * * * * * * * * * * * * * * * * * //

dimensions      [0 1 -1 0 0 0 0];

internalField   nonuniform List<vector> 
2200
(
(0.878861 -0.0304117 0)
(1.0058 -0.0512891 0)
(1.00328 -0.0353884 0)
(1.00026 -0.0244293 0)
(0.99992 -0.0166223 0)
(1.00007 -0.0106097 0)
(0.999974 -0.00673264 0)
(0.999852 -0.00417272 0)
(0.999822 -0.00228614 0)
(1.00017 -0.000795056 0)
(1.00005 0.00103579 0)
(0.999842 0.00251811 0)
(0.999851 0.00437751 0)
(0.999971 0.00692459 0)
(1.00007 0.0107303 0)
(0.999887 0.0167148 0)
(1.00028 0.0245092 0)
(1.00338 0.0354087 0)
(1.00583 0.0513178 0)
(0.878886 0.0304275 0)
(0.711953 -0.0327508 0)
(0.996625 -0.0629888 0)
(1.03331 -0.0561693 0)
(1.02499 -0.0464969 0)
(1.01605 -0.0362365 0)
(1.00971 -0.0265931 0)
(1.00588 -0.0183724 0)
(1.00378 -0.0115522 0)
(1.00268 -0.00607535 0)
(1.00213 -0.00164854 0)
(1.00214 0.00230212 0)
(1.00262 0.00669394 0)
(1.0037 0.0120595 0)
(1.00578 0.0187908 0)
(1.0096 0.0270209 0)
(1.016 0.036637 0)
(1.02487 0.0468335 0)
(1.03306 0.0565182 0)
(0.996483 0.0631562 0)
(0.711715 0.032807 0)
(0.535697 -0.0238762 0)
(0.969945 -0.0568387 0)
(1.05624 -0.054621 0)
(1.05193 -0.0486338 0)
(1.03597 -0.0404394 0)
(1.02434 -0.0324622 0)
(1.01592 -0.0241901 0)
(1.01046 -0.0162841 0)
(1.00724 -0.00896127 0)
(1.00579 -0.00238773 0)
(1.0057 0.00362894 0)
(1.00706 0.010163 0)
(1.01032 0.01736 0)
(1.01574 0.0251893 0)
(1.02418 0.0332726 0)
(1.03572 0.04105 0)
(1.05165 0.0491041 0)
(1.05601 0.0547438 0)
(0.969388 0.0571314 0)
(0.534919 0.0239305 0)
(0.392744 -0.0135617 0)
(0.912073 -0.0462252 0)
(1.05755 -0.046635 0)
(1.06934 -0.0438426 0)
(1.05448 -0.0375652 0)
(1.03928 -0.0309207 0)
(1.02772 -0.02422 0)
(1.01911 -0.0172737 0)
(1.01343 -0.0100971 0)
(1.01062 -0.00276038 0)
(1.01054 0.00450239 0)
(1.01322 0.0117746 0)
(1.01874 0.0188003 0)
(1.02728 0.025466 0)
(1.03861 0.0319253 0)
(1.05381 0.0384427 0)
(1.06863 0.0445936 0)
(1.05652 0.04728 0)
(0.910857 0.0465377 0)
(0.391268 0.0136481 0)
(0.30869 -0.0044233 0)
(0.847383 -0.032187 0)
(1.04982 -0.0397051 0)
(1.07972 -0.0379783 0)
(1.06811 -0.033009 0)
(1.05127 -0.0271984 0)
(1.03811 -0.0220795 0)
(1.0282 -0.0162711 0)
(1.02134 -0.00972642 0)
(1.01761 -0.00257157 0)
(1.01748 0.00494803 0)
(1.02098 0.0119064 0)
(1.02761 0.0181821 0)
(1.03717 0.0237611 0)
(1.05038 0.0286831 0)
(1.06716 0.0342805 0)
(1.07856 0.0390414 0)
(1.04824 0.0405912 0)
(0.844921 0.0325854 0)
(0.306328 0.00452683 0)
(0.265764 0.000100251 0)
(0.789973 -0.0197235 0)
(1.03366 -0.0309743 0)
(1.08399 -0.0316878 0)
(1.07767 -0.0284628 0)
(1.06081 -0.0235753 0)
(1.0469 -0.0190903 0)
(1.03589 -0.014274 0)
(1.02806 -0.008674 0)
(1.02383 -0.00206298 0)
(1.02356 0.0052511 0)
(1.02735 0.0115743 0)
(1.0348 0.0168085 0)
(1.04585 0.0212752 0)
(1.05953 0.0254859 0)
(1.07624 0.0300057 0)
(1.08229 0.0329132 0)
(1.03126 0.0319039 0)
(0.786261 0.0201395 0)
(0.262589 -4.65398e-06 0)
(0.242645 0.00114869 0)
(0.741325 -0.0117548 0)
(1.01454 -0.0237203 0)
(1.08391 -0.0255282 0)
(1.08287 -0.0236662 0)
(1.06766 -0.0198909 0)
(1.05384 -0.0160871 0)
(1.04269 -0.0118478 0)
(1.03453 -0.00698499 0)
(1.02978 -0.00114915 0)
(1.0294 0.00516985 0)
(1.0335 0.0107683 0)
(1.0413 0.0152756 0)
(1.05193 0.0191408 0)
(1.0656 0.0223642 0)
(1.08061 0.0257669 0)
(1.08117 0.0272111 0)
(1.0106 0.0249017 0)
(0.73581 0.01227 0)
(0.238448 -0.00103705 0)
(0.22934 0.00114077 0)
(0.700652 -0.00744886 0)
(0.99483 -0.0193398 0)
(1.08138 -0.0214631 0)
(1.08556 -0.0199522 0)
(1.07215 -0.0169068 0)
(1.05887 -0.0136814 0)
(1.04843 -0.00965553 0)
(1.04076 -0.00512351 0)
(1.0361 4.10418e-05 0)
(1.0357 0.00508067 0)
(1.03958 0.00988828 0)
(1.04654 0.0138582 0)
(1.05642 0.0170966 0)
(1.06957 0.0200454 0)
(1.08243 0.0225352 0)
(1.07757 0.0235238 0)
(0.989224 0.020827 0)
(0.692914 0.00808709 0)
(0.223953 -0.000996749 0)
(0.221029 0.000727781 0)
(0.667067 -0.0048496 0)
(0.975656 -0.0161297 0)
(1.07856 -0.0183504 0)
(1.08773 -0.0169373 0)
(1.07557 -0.0144655 0)
(1.06227 -0.0113869 0)
(1.0522 -0.00769045 0)
(1.04477 -0.00358197 0)
(1.0402 0.000916532 0)
(1.03948 0.0051668 0)
(1.04278 0.00927174 0)
(1.04926 0.0127865 0)
(1.05913 0.0160405 0)
(1.07187 0.0182738 0)
(1.08343 0.0200988 0)
(1.0732 0.0209761 0)
(0.967867 0.0179168 0)
(0.656696 0.00560469 0)
(0.214158 -0.000542235 0)
(0.2161 0.000369938 0)
(0.642761 -0.00246145 0)
(0.959095 -0.0117826 0)
(1.07609 -0.0141503 0)
(1.09019 -0.0131236 0)
(1.07862 -0.0111622 0)
(1.06498 -0.00873418 0)
(1.05441 -0.00563568 0)
(1.0467 -0.0020527 0)
(1.04204 0.0019843 0)
(1.04111 0.00606083 0)
(1.04428 0.0095718 0)
(1.05092 0.0123337 0)
(1.06025 0.0145211 0)
(1.07348 0.0158962 0)
(1.08452 0.0171498 0)
(1.06892 0.0173937 0)
(0.948369 0.0139455 0)
(0.629301 0.00340666 0)
(0.20742 -0.000146465 0)
(0.214018 0.000137918 0)
(0.628134 -0.000617488 0)
(0.945278 -0.00703071 0)
(1.07334 -0.00919605 0)
(1.0925 -0.00863626 0)
(1.0819 -0.00700976 0)
(1.06813 -0.00515224 0)
(1.05712 -0.00296265 0)
(1.04885 -0.000242958 0)
(1.04375 0.00306634 0)
(1.04263 0.00677356 0)
(1.04572 0.00930884 0)
(1.05256 0.0111578 0)
(1.06272 0.01189 0)
(1.07599 0.0131636 0)
(1.08504 0.0138391 0)
(1.06357 0.0131798 0)
(0.931049 0.00958502 0)
(0.610896 0.00175967 0)
(0.202962 8.84551e-05 0)
(0.213795 -2.10747e-05 0)
(0.620795 0.000279015 0)
(0.935321 -0.00334888 0)
(1.07094 -0.00543077 0)
(1.09467 -0.00525586 0)
(1.08537 -0.00373857 0)
(1.07191 -0.00196428 0)
(1.06112 -7.19738e-05 0)
(1.05278 0.00225032 0)
(1.04743 0.00478585 0)
(1.04586 0.00761394 0)
(1.04845 0.00924889 0)
(1.0547 0.0102065 0)
(1.0644 0.0110781 0)
(1.07687 0.0110701 0)
(1.08464 0.010989 0)
(1.05807 0.00990484 0)
(0.917548 0.00645077 0)
(0.599952 0.00106739 0)
(0.200186 0.000195372 0)
(0.214666 -5.23692e-05 0)
(0.619144 0.000853024 0)
(0.929808 -0.000927105 0)
(1.06907 -0.00258085 0)
(1.0961 -0.00244749 0)
(1.08795 -0.00137716 0)
(1.0749 -5.83835e-05 0)
(1.06442 0.00180525 0)
(1.05648 0.00411607 0)
(1.0512 0.00651223 0)
(1.04913 0.00892225 0)
(1.05079 0.0102421 0)
(1.05599 0.0110423 0)
(1.06436 0.0113216 0)
(1.07625 0.0105624 0)
(1.08295 0.010073 0)
(1.05208 0.00864534 0)
(0.90607 0.00512361 0)
(0.591739 0.00111871 0)
(0.197486 0.000266369 0)
(0.216339 0.00019816 0)
(0.619615 0.00117217 0)
(0.925818 0.000606959 0)
(1.06747 -0.000495568 0)
(1.09671 -0.000344115 0)
(1.089 0.000481704 0)
(1.07612 0.0017223 0)
(1.06563 0.00369186 0)
(1.05763 0.0059977 0)
(1.0522 0.00858623 0)
(1.04971 0.0108618 0)
(1.05085 0.0121398 0)
(1.05577 0.0122969 0)
(1.06366 0.0118721 0)
(1.07496 0.0107488 0)
(1.08008 0.00970201 0)
(1.04605 0.00762734 0)
(0.896824 0.00423957 0)
(0.585568 0.00116472 0)
(0.194968 0.000279773 0)
(0.219396 0.00041228 0)
(0.622012 0.00158051 0)
(0.925014 0.00221366 0)
(1.06664 0.00172628 0)
(1.09709 0.00187786 0)
(1.09002 0.00250264 0)
(1.07748 0.00355111 0)
(1.06703 0.00549225 0)
(1.0588 0.00789318 0)
(1.05289 0.0107639 0)
(1.04977 0.0130229 0)
(1.05025 0.0142895 0)
(1.05453 0.0142325 0)
(1.06196 0.0132373 0)
(1.07246 0.0119166 0)
(1.07594 0.0101274 0)
(1.03937 0.00742441 0)
(0.888016 0.00391116 0)
(0.57937 0.00122979 0)
(0.192204 0.000285523 0)
(0.222841 0.000429041 0)
(0.626061 0.00201219 0)
(0.92615 0.00355828 0)
(1.06622 0.00331773 0)
(1.09785 0.00342413 0)
(1.0919 0.0041369 0)
(1.08015 0.00563214 0)
(1.0701 0.00799197 0)
(1.06176 0.010744 0)
(1.05516 0.0139234 0)
(1.05103 0.01615 0)
(1.05033 0.0173094 0)
(1.05338 0.0170141 0)
(1.05969 0.0157754 0)
(1.06881 0.0136612 0)
(1.07044 0.0109882 0)
(1.03146 0.00751698 0)
(0.87933 0.00396868 0)
(0.573598 0.00148191 0)
(0.189403 0.000332023 0)
(0.228211 0.000519816 0)
(0.634512 0.00255367 0)
(0.929681 0.00473747 0)
(1.06666 0.0052199 0)
(1.09862 0.00539664 0)
(1.09412 0.00601778 0)
(1.08349 0.00783637 0)
(1.07405 0.0105982 0)
(1.06573 0.0139487 0)
(1.05852 0.0175231 0)
(1.05328 0.0198235 0)
(1.05137 0.0207664 0)
(1.05294 0.0201296 0)
(1.05789 0.0185479 0)
(1.06485 0.0160579 0)
(1.06445 0.0127939 0)
(1.02346 0.00891223 0)
(0.870912 0.00497027 0)
(0.5667 0.00203913 0)
(0.185624 0.000434706 0)
(0.23311 0.000628845 0)
(0.640993 0.00291753 0)
(0.933707 0.00566048 0)
(1.06813 0.00679685 0)
(1.09994 0.00743916 0)
(1.0966 0.00865793 0)
(1.08702 0.01107 0)
(1.07783 0.0144704 0)
(1.0692 0.0184621 0)
(1.06107 0.0224215 0)
(1.05447 0.0248483 0)
(1.05119 0.0254583 0)
(1.05112 0.0244497 0)
(1.0544 0.0222054 0)
(1.05902 0.0190389 0)
(1.05625 0.0147127 0)
(1.01303 0.010024 0)
(0.860191 0.00580154 0)
(0.557985 0.00255516 0)
(0.180816 0.000539891 0)
(0.241224 0.000852408 0)
(0.65397 0.00399196 0)
(0.941997 0.00786193 0)
(1.07128 0.0099622 0)
(1.10186 0.0111289 0)
(1.0997 0.0127613 0)
(1.09104 0.0157417 0)
(1.08197 0.0196541 0)
(1.07267 0.0240546 0)
(1.06317 0.0281355 0)
(1.05499 0.0303864 0)
(1.05015 0.0302597 0)
(1.0486 0.0283816 0)
(1.05014 0.0252513 0)
(1.0526 0.0212881 0)
(1.04769 0.0166806 0)
(1.00324 0.0118471 0)
(0.85041 0.00720533 0)
(0.548254 0.00317748 0)
(0.174911 0.000647083 0)
(0.249459 0.00111251 0)
(0.665675 0.00472696 0)
(0.950736 0.00950422 0)
(1.07627 0.0126311 0)
(1.10584 0.0152308 0)
(1.10435 0.0182152 0)
(1.09626 0.0220684 0)
(1.08699 0.0266871 0)
(1.07673 0.0315964 0)
(1.06561 0.0356604 0)
(1.05542 0.03741 0)
(1.04857 0.0363241 0)
(1.04509 0.033431 0)
(1.04452 0.0294357 0)
(1.04475 0.0245846 0)
(1.0374 0.018985 0)
(0.990429 0.0133253 0)
(0.835918 0.00824281 0)
(0.535002 0.00373267 0)
(0.167568 0.000756345 0)
(0.262462 0.00145258 0)
(0.685553 0.00668037 0)
(0.965447 0.0131703 0)
(1.0848 0.0177866 0)
(1.11212 0.0213252 0)
(1.11083 0.0251914 0)
(1.10275 0.0301255 0)
(1.09278 0.0355988 0)
(1.08105 0.0409316 0)
(1.06772 0.0448136 0)
(1.05499 0.0457552 0)
(1.04582 0.0434023 0)
(1.0404 0.0390738 0)
(1.03777 0.0337012 0)
(1.03586 0.027806 0)
(1.02672 0.0219029 0)
(0.978797 0.0160382 0)
(0.824004 0.010369 0)
(0.521757 0.00462138 0)
(0.159313 0.000893489 0)
(0.2775 0.00203418 0)
(0.708204 0.00806265 0)
(0.983177 0.016449 0)
(1.09646 0.0227475 0)
(1.12119 0.0281418 0)
(1.1193 0.0341854 0)
(1.11048 0.0405836 0)
(1.09914 0.0470589 0)
(1.08537 0.0528456 0)
(1.06948 0.0564151 0)
(1.05406 0.0561032 0)
(1.04226 0.0520843 0)
(1.03448 0.0462321 0)
(1.0297 0.0398063 0)
(1.02584 0.0329511 0)
(1.0144 0.0259726 0)
(0.962907 0.0190133 0)
(0.803273 0.0122091 0)
(0.501427 0.00547504 0)
(0.14839 0.00106945 0)
(0.299059 0.00291773 0)
(0.738843 0.0119417 0)
(1.00669 0.0222431 0)
(1.11221 0.0306618 0)
(1.13367 0.0377341 0)
(1.13037 0.0456666 0)
(1.11984 0.0534353 0)
(1.10615 0.0610912 0)
(1.08943 0.0671954 0)
(1.07008 0.0700862 0)
(1.05102 0.0683235 0)
(1.03628 0.0626693 0)
(1.02644 0.0550926 0)
(1.01972 0.0467945 0)
(1.01402 0.038547 0)
(1.00085 0.0306108 0)
(0.947649 0.0228712 0)
(0.787127 0.0151641 0)
(0.483024 0.0067254 0)
(0.136929 0.00117841 0)
(0.329677 0.00404645 0)
(0.780609 0.0147936 0)
(1.0379 0.0294367 0)
(1.13361 0.0406116 0)
(1.15042 0.0503756 0)
(1.14423 0.0608392 0)
(1.13055 0.0707514 0)
(1.11349 0.0793515 0)
(1.09308 0.0854326 0)
(1.06993 0.0873486 0)
(1.04749 0.0836735 0)
(1.02977 0.0755484 0)
(1.01711 0.0658802 0)
(1.00817 0.0561247 0)
(1.00055 0.0465455 0)
(0.984803 0.0373822 0)
(0.926388 0.0280441 0)
(0.756576 0.0181549 0)
(0.451564 0.00771826 0)
(0.121037 0.00134702 0)
(0.366236 0.00795853 0)
(0.831258 0.0245005 0)
(1.07722 0.0416091 0)
(1.16023 0.056512 0)
(1.17122 0.068294 0)
(1.16054 0.0821295 0)
(1.1427 0.0930476 0)
(1.12121 0.10192 0)
(1.09617 0.107325 0)
(1.06819 0.107392 0)
(1.04107 0.101084 0)
(1.01984 0.0906591 0)
(1.00522 0.0790173 0)
(0.9945 0.0671686 0)
(0.984916 0.0558689 0)
(0.966456 0.0448261 0)
(0.903941 0.0337424 0)
(0.732418 0.0222404 0)
(0.426674 0.00969679 0)
(0.106723 0.00130496 0)
(0.449965 0.0115512 0)
(0.910486 0.0345251 0)
(1.129 0.0611878 0)
(1.19313 0.079258 0)
(1.19716 0.0957527 7.01663e-35)
(1.1791 0.111103 -4.80214e-35)
(1.15541 0.122124 0)
(1.12819 0.130492 0)
(1.0978 0.134118 0)
(1.065 0.131615 0)
(1.03418 0.122406 0)
(1.01007 0.108881 0)
(0.991991 0.0944425 0)
(0.978588 0.0807061 0)
(0.966843 0.0677496 0)
(0.944805 0.0554155 0)
(0.874582 0.0422853 0)
(0.687661 0.0274757 0)
(0.376213 0.0102433 0)
(0.0831028 0.00106432 0)
(0.516922 0.0265877 -7.56764e-21)
(1.00094 0.058913 5.08755e-21)
(1.18546 0.0935834 0)
(1.22913 0.115246 7.64653e-22)
(1.22358 0.134682 -6.19614e-22)
(1.19722 0.149521 5.06647e-35)
(1.167 0.159543 0)
(1.13361 0.166257 4.75562e-21)
(1.09737 0.16745 -1.70737e-20)
(1.0586 0.16196 3.77629e-21)
(1.02177 0.149115 0)
(0.992651 0.132334 -1.24375e-20)
(0.972457 0.115995 -1.55769e-20)
(0.956955 0.100098 2.73953e-20)
(0.941579 0.0851652 -2.20388e-20)
(0.913075 0.0699723 0)
(0.830472 0.0532208 -8.47406e-21)
(0.629602 0.0345577 0)
(0.327117 0.0152156 -4.57955e-20)
(0.0653954 0.00187519 5.41954e-20)
(0.545954 0.0547902 6.20712e-23)
(1.05393 0.102436 -4.53397e-20)
(1.22946 0.145278 1.1943e-20)
(1.26203 0.163954 1.77597e-20)
(1.2475 0.18285 -5.84735e-22)
(1.21327 0.195627 1.7191e-21)
(1.17644 0.203848 0)
(1.13669 0.208436 0)
(1.09413 0.207167 2.67131e-20)
(1.04917 0.198784 0)
(1.00755 0.183049 4.26734e-20)
(0.974925 0.164756 1.33438e-20)
(0.94855 0.14607 3.38569e-22)
(0.927335 0.128863 -3.07656e-20)
(0.908258 0.112887 0)
(0.876134 0.0977772 0)
(0.791418 0.0775332 -1.43084e-19)
(0.598461 0.0551864 3.58987e-19)
(0.314602 0.0255998 -2.13324e-19)
(0.0644836 0.00626422 -2.53063e-19)
(0.549122 0.0792052 7.89513e-20)
(1.08304 0.160419 -2.32e-20)
(1.26206 0.207635 -6.16111e-21)
(1.28831 0.223553 -3.41334e-20)
(1.26616 0.239323 1.3731e-20)
(1.2255 0.248019 6.45679e-22)
(1.18269 0.252925 3.85036e-21)
(1.13691 0.254395 0)
(1.08829 0.250132 -5.52994e-20)
(1.03733 0.238843 6.19693e-20)
(0.989467 0.220955 -1.16717e-19)
(0.95029 0.199385 5.69994e-20)
(0.921847 0.179835 -4.22055e-20)
(0.899439 0.162088 9.23409e-20)
(0.877015 0.145915 0)
(0.843057 0.130017 -3.63525e-20)
(0.761958 0.110321 0)
(0.584343 0.0790188 2.06307e-19)
(0.318343 0.0432577 -4.89623e-19)
(0.0763912 0.0104714 3.07253e-19)
(0.537635 0.111349 -3.74407e-19)
(1.09762 0.219263 1.49606e-19)
(1.28183 0.274627 2.42288e-20)
(1.30588 0.288271 0)
(1.27856 0.300508 1.85907e-20)
(1.23317 0.30441 -2.01479e-20)
(1.18524 0.305392 -4.01035e-21)
(1.13403 0.303116 0)
(1.08002 0.295223 3.90116e-20)
(1.02381 0.280302 -4.25237e-20)
(0.971022 0.258193 1.02693e-19)
(0.928992 0.235463 0)
(0.8958 0.215238 -8.8886e-20)
(0.868672 0.197485 4.88873e-20)
(0.845326 0.181228 1.33321e-19)
(0.813085 0.165734 -1.17325e-19)
(0.738216 0.143856 1.94024e-19)
(0.576469 0.108064 -4.30957e-19)
(0.330555 0.0624524 2.73492e-19)
(0.0886035 0.0173936 -3.42966e-19)
(0.520966 0.135493 2.31198e-19)
(1.10008 0.274204 -1.70384e-19)
(1.29163 0.341947 7.57656e-20)
(1.31512 0.353788 -1.04184e-19)
(1.28426 0.362831 7.0234e-20)
(1.23562 0.362362 -1.16863e-20)
(1.18376 0.359436 3.67017e-21)
(1.12831 0.353179 -2.48196e-20)
(1.06996 0.341325 -3.88606e-20)
(1.00905 0.322665 -9.15104e-20)
(0.952375 0.298395 -2.21748e-19)
(0.90702 0.274004 -7.49148e-20)
(0.872662 0.252023 2.67541e-21)
(0.846135 0.233491 -1.76806e-19)
(0.82108 0.216893 -6.3449e-21)
(0.788093 0.199538 1.72547e-19)
(0.718438 0.176426 -5.37029e-20)
(0.570539 0.136885 -3.13471e-20)
(0.339495 0.0825272 0)
(0.0969409 0.0243002 7.36444e-19)
(0.501599 0.156855 0)
(1.09143 0.324856 5.28242e-20)
(1.29335 0.406214 3.67905e-20)
(1.31811 0.417855 -1.22386e-20)
(1.28474 0.424667 -8.53049e-20)
(1.2337 0.420183 1.84617e-20)
(1.17885 0.413525 6.64071e-22)
(1.12014 0.403325 4.49638e-20)
(1.05819 0.387646 -2.3509e-20)
(0.993286 0.365095 3.981e-20)
(0.932283 0.337175 1.19697e-19)
(0.882957 0.308649 1.66055e-19)
(0.845704 0.285228 -1.03952e-19)
(0.816439 0.265662 1.9199e-19)
(0.79409 0.249022 -1.54318e-19)
(0.766136 0.233322 0)
(0.704298 0.2098 -4.11628e-19)
(0.566767 0.166119 5.53343e-19)
(0.344628 0.101719 4.18619e-20)
(0.101652 0.0307039 -7.81419e-19)
(0.486113 0.177611 -5.47701e-21)
(1.08191 0.374056 -3.60381e-19)
(1.2901 0.467515 -2.772e-19)
(1.31591 0.47927 2.31162e-19)
(1.28045 0.484503 -5.06697e-20)
(1.22785 0.476641 2.7611e-20)
(1.17085 0.466653 -1.14356e-20)
(1.10953 0.452829 -2.80784e-21)
(1.04429 0.433545 -8.1805e-20)
(0.975807 0.407604 7.10762e-22)
(0.912352 0.376261 -1.30763e-19)
(0.863919 0.347088 -1.77169e-19)
(0.828775 0.322695 1.17212e-19)
(0.80222 0.302331 -6.90859e-20)
(0.775917 0.284321 1.68185e-19)
(0.744403 0.264901 0)
(0.683973 0.239217 -2.55416e-19)
(0.554497 0.192773 3.77814e-19)
(0.342355 0.118719 7.2359e-19)
(0.102083 0.0356273 -8.49254e-19)
(0.470991 0.195393 -6.85575e-19)
(1.06754 0.41897 3.4639e-19)
(1.28308 0.525261 2.70154e-19)
(1.31022 0.537791 -2.50872e-19)
(1.27304 0.541936 1.12164e-20)
(1.21927 0.531034 7.39099e-20)
(1.16054 0.518127 -4.53348e-22)
(1.09718 0.501054 -1.67132e-20)
(1.02964 0.478375 -5.10458e-20)
(0.959058 0.448683 8.93948e-20)
(0.893752 0.413239 1.23145e-19)
(0.841251 0.379843 2.77697e-19)
(0.801072 0.351621 0)
(0.769472 0.328066 5.56872e-21)
(0.748847 0.309504 -4.68304e-19)
(0.724733 0.294425 1.07582e-19)
(0.671386 0.267917 5.49362e-19)
(0.545807 0.216644 -1.61319e-19)
(0.333617 0.133344 3.42986e-19)
(0.0993645 0.0387729 -2.86171e-20)
(0.461596 0.214371 6.20087e-21)
(1.05559 0.463019 3.20785e-19)
(1.2737 0.58056 2.05234e-19)
(1.30145 0.593603 -4.47675e-19)
(1.26276 0.59644 2.85652e-19)
(1.20834 0.582867 -9.10452e-20)
(1.14836 0.567503 -2.98946e-21)
(1.08342 0.54754 3.4212e-20)
(1.01385 0.521812 8.91002e-20)
(0.940543 0.488812 -1.15941e-19)
(0.872441 0.450669 0)
(0.819908 0.414539 -1.09872e-19)
(0.783903 0.385641 1.26142e-19)
(0.758334 0.363026 1.70393e-19)
(0.731551 0.343899 -9.77052e-20)
(0.701963 0.320684 -2.47288e-19)
(0.647427 0.292396 -7.51636e-20)
(0.52801 0.234951 -1.21e-21)
(0.322207 0.143352 0)
(0.0944287 0.0414556 0)
(0.452777 0.229785 -3.39188e-19)
(1.04181 0.503412 0)
(1.26229 0.632264 2.35132e-19)
(1.29088 0.646492 -1.08215e-19)
(1.25105 0.648172 -2.97051e-19)
(1.1961 0.632031 8.19406e-20)
(1.13504 0.61454 -9.17165e-21)
(1.06881 0.592042 -1.45202e-20)
(0.997589 0.563634 5.48766e-20)
(0.922303 0.527453 -4.84011e-20)
(0.851949 0.484933 6.91484e-20)
(0.797568 0.444897 3.43088e-19)
(0.756489 0.412676 1.3474e-20)
(0.723342 0.385357 -1.73843e-19)
(0.702937 0.361812 3.36573e-19)
(0.681688 0.345222 4.49693e-21)
(0.63333 0.312941 8.04166e-20)
(0.513841 0.252819 -3.90614e-19)
(0.30944 0.151151 3.95719e-19)
(0.08851 0.0431279 -4.72969e-19)
(0.44629 0.248975 3.18315e-23)
(1.02984 0.542897 0)
(1.25014 0.681431 0)
(1.27889 0.696672 1.01096e-19)
(1.23803 0.697007 1.16372e-19)
(1.18276 0.678506 -6.8217e-20)
(1.1208 0.659139 4.45594e-20)
(1.05349 0.634469 0)
(0.980574 0.603701 -9.05147e-20)
(0.903117 0.564856 1.69643e-19)
(0.830594 0.519848 2.11921e-19)
(0.774194 0.477654 -1.2952e-19)
(0.734612 0.441688 -1.62831e-19)
(0.710723 0.41368 3.85249e-19)
(0.685964 0.391273 -1.19052e-19)
(0.657872 0.365213 -1.44678e-19)
(0.606577 0.332046 -8.85711e-20)
(0.49225 0.264705 -4.23796e-19)
(0.295131 0.156754 5.96814e-20)
(0.0819282 0.0437072 5.14036e-19)
(0.442534 0.267822 -1.35639e-19)
(1.01799 0.579438 -2.14415e-19)
(1.23719 0.727126 2.36553e-20)
(1.26628 0.744031 6.16174e-23)
(1.22471 0.743333 3.82229e-20)
(1.16909 0.72254 -1.82094e-19)
(1.10625 0.701391 0)
(1.03786 0.674753 1.29532e-20)
(0.963471 0.64188 -1.02139e-20)
(0.883889 0.600572 2.67175e-19)
(0.808357 0.552216 -5.33581e-20)
(0.749668 0.50533 5.91859e-20)
(0.709539 0.467163 0)
(0.674983 0.434779 -2.10415e-19)
(0.655568 0.407281 2.62615e-19)
(0.636058 0.385422 0)
(0.589803 0.345961 -1.93882e-19)
(0.473882 0.276512 5.6704e-19)
(0.279611 0.160429 6.74372e-20)
(0.074949 0.0432667 -6.369e-19)
(0.440555 0.284833 -3.01148e-19)
(1.00792 0.614804 3.86412e-19)
(1.22425 0.770305 0)
(1.25315 0.788612 2.51666e-19)
(1.21092 0.786947 0)
(1.15507 0.764191 1.70658e-19)
(1.09147 0.741424 0)
(1.02216 0.713 0)
(0.946355 0.678467 -3.19714e-20)
(0.864692 0.635356 -2.60823e-19)
(0.787244 0.584477 -3.94433e-19)
(0.727504 0.535201 7.51379e-20)
(0.684451 0.492552 2.81579e-19)
(0.660768 0.458749 2.37002e-19)
(0.6365 0.430683 -8.42772e-19)
(0.609902 0.399188 -3.48626e-19)
(0.560881 0.361586 2.02654e-19)
(0.449121 0.282811 0)
(0.262611 0.161924 5.84025e-19)
(0.0673838 0.041832 -6.91055e-19)
(0.439097 0.300565 3.32127e-19)
(0.997577 0.647198 -4.24758e-19)
(1.21116 0.810153 0)
(1.23993 0.830295 -1.02571e-20)
(1.19723 0.828048 -1.03495e-19)
(1.14118 0.803609 0)
(1.07694 0.779361 -1.43026e-20)
(1.00675 0.749286 1.97715e-20)
(0.929539 0.713174 -3.89241e-20)
(0.845906 0.667901 2.52689e-20)
(0.765613 0.614205 0)
(0.70296 0.561818 2.99921e-19)
(0.659495 0.51596 3.94025e-21)
(0.62358 0.475852 1.2878e-19)
(0.604962 0.44124 1.55327e-19)
(0.587029 0.41654 0)
(0.542119 0.3675 -3.42124e-19)
(0.428782 0.288558 6.70703e-19)
(0.245117 0.161206 -7.13665e-19)
(0.0600043 0.0394559 1.5e-18)
(0.437883 0.315502 0)
(0.988522 0.678868 0)
(1.19848 0.847843 -2.33648e-19)
(1.22666 0.869359 0)
(1.18348 0.866487 0)
(1.12735 0.84068 2.45099e-19)
(1.06262 0.815236 -1.80858e-20)
(0.991678 0.783772 1.69964e-20)
(0.913239 0.746409 -2.07873e-21)
(0.827482 0.700527 0)
(0.743959 0.646791 -6.35168e-20)
(0.678301 0.590676 -2.48761e-19)
(0.631797 0.539377 -3.12788e-19)
(0.607225 0.497873 -1.30134e-19)
(0.58446 0.463612 1.71038e-19)
(0.558593 0.423288 -4.06306e-19)
(0.51113 0.379254 7.4054e-19)
(0.401525 0.289486 6.59584e-21)
(0.226907 0.158354 -6.90374e-19)
(0.0527193 0.0365061 -1.02418e-19)
(0.436539 0.330081 0)
(0.979235 0.708068 -3.31288e-19)
(1.18591 0.882659 2.60671e-19)
(1.2136 0.905777 0)
(1.17004 0.902492 0)
(1.1139 0.875561 -5.41839e-19)
(1.04885 0.84911 0)
(0.977403 0.816437 0)
(0.897979 0.778078 -6.39396e-20)
(0.811228 0.730867 4.99643e-20)
(0.726719 0.673057 -5.05341e-19)
(0.657455 0.614036 0)
(0.607096 0.56359 -3.40385e-19)
(0.566815 0.514114 1.15166e-20)
(0.54766 0.469067 -5.47204e-19)
(0.532945 0.435144 2.20245e-19)
(0.490905 0.375784 3.62067e-21)
(0.382372 0.287545 -7.90554e-19)
(0.210417 0.154064 3.75069e-19)
(0.047237 0.0335438 1.09575e-19)
(0.435277 0.344198 0)
(0.97115 0.736707 -3.90626e-19)
(1.1739 0.915772 2.77554e-19)
(1.20077 0.939937 5.83178e-19)
(1.15684 0.936044 1.18281e-19)
(1.10076 0.908155 -8.22996e-20)
(1.03551 0.880923 5.10987e-20)
(0.963633 0.847313 -9.75756e-20)
(0.883288 0.808184 6.83971e-20)
(0.793736 0.760103 3.02352e-19)
(0.70234 0.703677 4.19125e-19)
(0.628208 0.645085 8.09462e-20)
(0.576011 0.58562 4.94273e-19)
(0.547935 0.534271 3.21542e-19)
(0.524235 0.488828 3.95206e-19)
(0.500711 0.433453 -2.46902e-19)
(0.45755 0.380571 -2.92025e-19)
(0.354405 0.280901 3.4342e-19)
(0.192559 0.14485 -2.02891e-19)
(0.0433975 0.0327752 3.57921e-19)
(0.433927 0.357848 5.14014e-19)
(0.962867 0.762895 6.20437e-19)
(1.16203 0.946369 1.52467e-19)
(1.18829 0.971792 1.61267e-20)
(1.14409 0.967421 -4.10748e-19)
(1.08812 0.938688 1.56969e-19)
(1.02275 0.910795 -5.8438e-20)
(0.950571 0.876478 -2.14288e-20)
(0.869192 0.836722 -5.79546e-20)
(0.778134 0.788584 -3.38413e-19)
(0.688108 0.730648 2.49042e-20)
(0.612011 0.668915 0)
(0.552929 0.611882 0)
(0.504098 0.552311 -1.63387e-19)
(0.480597 0.490707 -6.51097e-19)
(0.467184 0.441669 5.35835e-19)
(0.435233 0.358153 3.27351e-19)
(0.34708 0.260138 0)
(0.197065 0.123709 6.4765e-19)
(0.0380433 0.013319 -3.87287e-19)
(0.432724 0.370753 -2.74646e-19)
(0.955561 0.788426 2.37501e-19)
(1.15078 0.975511 -3.39951e-19)
(1.17623 1.00172 -3.66411e-19)
(1.13177 0.996669 -1.62065e-19)
(1.07593 0.967127 3.7713e-20)
(1.01049 0.938709 0)
(0.938028 0.903736 1.41825e-19)
(0.855923 0.863613 1.08367e-20)
(0.763815 0.814953 0)
(0.66864 0.757508 0)
(0.584811 0.697347 5.68011e-20)
(0.519809 0.633455 8.72467e-20)
(0.482889 0.572233 -1.76434e-19)
(0.452111 0.513967 4.70803e-19)
(0.424851 0.432036 -5.90268e-19)
(0.389717 0.350378 -7.03169e-19)
(0.32687 0.236031 6.23281e-19)
(0.225209 0.141228 -2.33469e-19)
(0.122746 0.0927588 1.33899e-19)
(0.431275 0.382877 3.16929e-19)
(0.947962 0.811521 0)
(1.13968 1.00228 0)
(1.16457 1.02955 -1.23429e-19)
(1.11996 1.02402 9.99068e-20)
(1.06427 0.99375 -2.06953e-20)
(0.998749 0.964797 -2.22095e-19)
(0.926047 0.929394 -2.20576e-19)
(0.843354 0.889186 5.37284e-20)
(0.749247 0.840874 -2.75296e-20)
(0.651445 0.784497 6.66396e-20)
(0.56583 0.721938 -4.66626e-19)
(0.500535 0.660978 -5.15268e-19)
(0.43567 0.596251 -9.41463e-20)
(0.396098 0.516586 0)
(0.372902 0.444203 -1.26487e-20)
(0.347888 0.299988 3.88211e-19)
(0.305263 0.139192 -6.5297e-19)
(0.26651 -0.0204272 4.84259e-19)
(0.0812636 -0.0866038 3.86691e-19)
(0.42993 0.394368 -6.9075e-19)
(0.941146 0.834093 -2.98378e-19)
(1.12916 1.02794 6.40349e-21)
(1.1533 1.0559 1.57124e-19)
(1.1085 1.0498 0)
(1.05292 1.0189 4.67325e-19)
(0.987388 0.98965 2.76454e-19)
(0.914646 0.953998 -4.54055e-20)
(0.831378 0.913618 -1.38185e-20)
(0.73634 0.865473 -2.58489e-20)
(0.637266 0.808823 2.40088e-20)
(0.54805 0.751105 4.12583e-19)
(0.464664 0.689532 5.03616e-19)
(0.413738 0.619706 9.07674e-20)
(0.365213 0.55314 5.0271e-19)
(0.306974 0.437798 0)
(0.209793 0.298033 0)
(0.0478198 0.285277 4.83019e-19)
(-0.0656753 0.630155 -3.34922e-20)
(0.000312907 1.49944 -6.2104e-19)
(0.428189 0.405247 3.76034e-19)
(0.934042 0.854529 8.95351e-19)
(1.11869 1.05159 -1.34744e-18)
(1.14229 1.08066 8.12401e-19)
(1.09736 1.07437 -9.49455e-20)
(1.04195 1.04313 6.09907e-19)
(0.976391 1.0137 0)
(0.903383 0.977981 2.28937e-19)
(0.819541 0.938241 0)
(0.722976 0.891205 2.40362e-19)
(0.619434 0.837985 -3.8121e-20)
(0.522273 0.77903 4.27431e-20)
(0.448974 0.719938 5.58778e-19)
(0.361744 0.660703 -2.06548e-19)
(0.277575 0.572185 -2.63305e-19)
(0.209386 0.502045 0)
(0.109189 0.588829 0)
(0.0397435 1.24569 0)
(0.0794121 2.42483 -2.71624e-19)
(0.110457 2.89202 -1.68616e-19)
(0.426509 0.415695 0)
(0.927697 0.874571 0)
(1.10886 1.07443 4.822e-19)
(1.13173 1.10424 -6.77192e-19)
(1.08664 1.09767 4.649e-19)
(1.03134 1.06617 -5.58925e-19)
(0.965759 1.03682 -3.19435e-20)
(0.892792 1.00143 2.48714e-20)
(0.808728 0.962134 5.67526e-21)
(0.711243 0.916103 -2.73124e-19)
(0.607181 0.862949 5.78166e-20)
(0.512784 0.810869 3.87769e-19)
(0.4116 0.759193 -5.50471e-19)
(0.340979 0.688754 -6.46516e-19)
(0.274639 0.637287 2.2614e-19)
(0.209239 0.755049 0)
(0.146289 1.48773 3.26715e-19)
(0.144895 2.6672 3.64555e-19)
(0.150282 3.07909 -4.08001e-19)
(0.141029 3.21834 4.49373e-19)
(0.424483 0.425325 0)
(0.921039 0.892438 7.2776e-19)
(1.09906 1.09526 -1.2498e-19)
(1.12147 1.12623 8.52501e-19)
(1.07628 1.11974 -4.87985e-19)
(1.02119 1.08827 0)
(0.955715 1.05912 0)
(0.882676 1.02399 0)
(0.798052 0.985642 -7.95622e-20)
(0.699354 0.941578 2.07651e-21)
(0.592184 0.892185 0)
(0.484272 0.841627 -3.78201e-19)
(0.405521 0.791552 0)
(0.295611 0.746565 4.59851e-19)
(0.218467 0.82415 -2.99496e-19)
(0.172713 1.43996 -2.51492e-19)
(0.181045 2.65774 -6.18424e-19)
(0.199838 3.12539 -3.08723e-19)
(0.189696 3.27232 -3.54905e-19)
(0.174421 3.31358 3.05734e-19)
(0.422624 0.434316 -2.45806e-19)
(0.915139 0.910092 1.50456e-20)
(1.08996 1.11556 -1.3468e-19)
(1.11172 1.14727 -6.82251e-19)
(1.06637 1.14071 0)
(1.01143 1.10927 0)
(0.94593 1.08048 0)
(0.872869 1.04603 -1.58163e-20)
(0.788296 1.00894 9.08629e-20)
(0.689423 0.966284 0)
(0.580737 0.919921 0)
(0.483358 0.876199 0)
(0.370349 0.83718 0)
(0.308777 0.831153 3.01976e-19)
(0.286682 1.18188 7.89717e-19)
(0.278419 2.32835 2.46615e-19)
(0.288788 3.07984 4.49085e-19)
(0.280663 3.29219 -2.86842e-19)
(0.229671 3.36098 1.05737e-19)
(0.195223 3.3737 0)
(0.420433 0.442794 2.49142e-19)
(0.908649 0.925984 -1.56982e-18)
(1.0806 1.13437 -4.4502e-19)
(1.10201 1.16732 -1.08674e-19)
(1.05661 1.16105 1.24533e-19)
(1.00189 1.12988 -8.78524e-19)
(0.93657 1.10155 5.95251e-20)
(0.863741 1.06771 4.09886e-19)
(0.778887 1.03146 0)
(0.678678 0.991413 -1.5515e-20)
(0.569507 0.947693 1.41138e-20)
(0.456965 0.905533 0)
(0.376703 0.876527 0)
(0.330697 1.00129 -3.74499e-19)
(0.299558 1.82649 -5.61143e-22)
(0.29515 2.92516 -1.31908e-19)
(0.313259 3.29639 2.17469e-19)
(0.286513 3.40028 7.99922e-20)
(0.21806 3.42661 7.20447e-20)
(0.191688 3.43518 -3.80965e-20)
(0.41816 0.451265 4.80159e-19)
(0.902378 0.943422 1.50172e-18)
(1.07119 1.15462 5.47166e-19)
(1.09203 1.18822 0)
(1.04654 1.18186 0)
(0.99206 1.1507 6.73066e-19)
(0.926833 1.12274 -4.15963e-19)
(0.854041 1.08956 -3.76864e-19)
(0.769475 1.05514 -1.50018e-20)
(0.670511 1.01731 3.37939e-20)
(0.560737 0.978773 -2.69212e-19)
(0.456159 0.943926 0)
(0.379175 0.95474 0)
(0.348481 1.34098 -2.07583e-19)
(0.362321 2.43192 -2.71573e-19)
(0.404398 3.1984 0)
(0.431207 3.38565 4.70027e-20)
(0.360892 3.4518 2.08189e-19)
(0.284945 3.49664 -4.39049e-19)
(0.259616 3.52272 2.59037e-19)
(0.414974 0.460139 -9.09771e-19)
(0.89456 0.960131 -7.1449e-19)
(1.06043 1.1746 0)
(1.08111 1.20947 0)
(1.03572 1.20335 0)
(0.981599 1.17235 0)
(0.916741 1.14472 4.44277e-19)
(0.844645 1.11221 -4.86739e-19)
(0.760506 1.07833 0)
(0.66053 1.04223 -2.49283e-20)
(0.55138 1.00509 4.41377e-19)
(0.446541 0.976263 2.31877e-20)
(0.394849 1.06709 4.0017e-20)
(0.409336 1.71294 3.05433e-19)
(0.433946 2.87295 -9.06479e-20)
(0.469689 3.33077 0)
(0.451509 3.46349 -6.29697e-20)
(0.360365 3.55283 1.0108e-19)
(0.274535 3.62374 3.43434e-19)
(0.197895 3.6044 -2.97726e-19)
(0.41174 0.46917 4.31266e-19)
(0.886818 0.979569 -7.02493e-19)
(1.0493 1.19712 0)
(1.06949 1.23231 -1.74567e-19)
(1.02412 1.22583 6.62828e-19)
(0.970461 1.19453 0)
(0.906042 1.16703 0)
(0.8343 1.13479 9.10484e-19)
(0.750797 1.10262 1.50647e-20)
(0.652981 1.07008 -8.56968e-20)
(0.54242 1.04057 -1.85467e-19)
(0.453147 1.03273 1.47415e-19)
(0.418487 1.22818 0)
(0.451832 2.12644 -1.43003e-19)
(0.50107 3.13387 1.20723e-19)
(0.561011 3.4389 -3.62937e-20)
(0.555211 3.54456 0)
(0.484364 3.64241 -1.92727e-19)
(0.40722 3.68805 -7.55271e-19)
(0.322646 3.65906 -1.91472e-19)
(0.407002 0.478333 -8.3632e-19)
(0.876908 0.997585 9.99622e-19)
(1.03641 1.21881 7.44536e-19)
(1.05672 1.25523 -1.92926e-19)
(1.01168 1.24886 -1.01125e-18)