/*--------------------------------*- C++ -*----------------------------------*\
  =========                 |
  \\      /  F ield         | OpenFOAM: The Open Source CFD Toolbox
   \\    /   O peration     | Website:  https://openfoam.org
    \\  /    A nd           | Version:  9
     \\/     M anipulation  |
\*---------------------------------------------------------------------------*/
FoamFile
{
    format      ascii;
    class       volScalarField;
    location    "42";
    object      p;
}
// * * * * * * * * * * * * * * * * * * * * * * * * * * * * * * * * * * * * * //

dimensions      [0 2 -2 0 0 0 0];

internalField   nonuniform List<scalar> 
918
(
0.574133
1.22497
0.00786096
0.573496
-0.00702294
1.19198
-0.48192
0.729403
0.554286
-0.0767269
-0.0112323
0.550185
1.0528
0.818715
-1.10635
0.00400884
0.679666
-0.360583
0.553331
-0.0100165
0.765449
0.560866
0.563897
0.554482
0.618801
0.796663
0.933924
0.0218056
0.00178968
0.00112171
-0.0139453
-0.0342434
-0.0250842
1.07562
1.12671
1.1494
0.522491
0.349539
-0.346201
-0.413587
-0.40629
-0.525936
0.722722
0.722598
-0.163915
0.732082
0.739178
0.541448
0.553649
0.554552
0.555625
0.554581
0.555974
0.432572
-0.0806899
-0.112396
-0.0569403
-0.0488659
0.0826381
-0.0107197
-0.012698
-0.0115926
-0.0152076
0.473023
0.545773
0.542896
0.555343
0.564293
1.16452
1.13643
1.16257
1.07632
1.09276
1.03077
1.00333
0.839219
0.861263
0.804434
0.790373
-1.54401
-2.50575
-0.510823
-0.257088
-0.0153198
0.0064266
0.0172872
0.671814
0.670533
0.681378
0.691899
1.10277
-0.35833
-0.471002
0.553462
0.552261
0.560638
0.561333
0.557347
0.55644
-0.0113772
-0.0116416
-0.0108621
-0.0101028
-0.01515
0.754543
0.752127
0.55502
0.552037
0.571135
0.592135
0.583831
0.302143
0.622329
0.635259
0.622269
0.785574
0.781352
0.789536
0.907606
0.871284
0.970813
0.994087
0.0160082
0.00390663
-0.00400164
-0.0095188
-0.00825029
0.518411
0.511107
0.537554
0.525858
0.528308
0.265358
0.130422
0.435043
0.460067
-0.259859
-0.319677
-0.413284
-0.43572
-0.550294
0.620472
0.713117
0.711456
-0.181946
-0.107406
-0.236877
-0.0343886
-0.0946399
0.53183
0.53875
0.533796
0.549228
0.543723
0.545674
0.5579
0.554978
0.556534
0.495376
0.619306
0.358806
0.324051
-0.219554
-0.13049
-0.222189
-0.0350332
-0.030013
0.0971042
0.122454
0.0700444
0.0596288
-0.0241351
-0.0160356
-0.0193005
-0.01362
-0.0138767
0.465974
0.455142
0.48541
0.492751
0.535761
0.536947
0.540315
0.538777
0.954104
0.976581
0.984028
0.957669
-3.5065
-6.30899
0.0716853
0.210149
-0.000562439
-0.00739005
0.0069182
-0.0071251
-0.00233508
-0.00290415
0.0177513
0.0203523
0.0231203
0.0323597
0.659663
0.659473
1.02229
1.02385
1.0029
0.953676
0.541568
0.543684
0.549218
0.545079
-0.0144999
-0.0127295
-0.015069
0.740352
0.747999
0.745986
0.264865
0.177615
0.35161
0.379752
0.650416
0.638669
0.648607
0.684544
0.720881
1.00154
1.01974
1.01798
1.02625
1.0702
1.08654
1.052
0.498379
0.508073
0.503183
0.540739
0.538451
0.539384
0.534939
0.536399
0.534228
-0.0214746
-0.405051
0.50905
0.527556
0.508866
0.514583
0.700339
0.777965
0.693653
0.703571
0.701405
0.0318109
-0.0255946
0.280053
0.246344
0.407092
0.442719
0.422087
0.925446
0.885467
0.935641
0.909012
0.870149
0.896635
-0.35668
-1.86903
-0.981086
0.564504
0.376436
0.465091
0.0414842
0.0202903
0.0280202
1.01688
1.09367
0.674874
0.844019
0.850668
0.756004
0.785808
0.845372
0.770419
0.805718
0.840083
0.818359
0.577162
0.521114
0.532052
0.84824
0.905043
0.150208
0.0933455
0.0488047
0.141636
0.199143
0.172907
1.05582
0.96113
1.03322
0.551788
0.552488
0.0102955
0.00856038
0.556662
0.556707
-0.00758275
0.00351059
0.44709
-0.816069
0.135367
0.545147
0.535325
0.552296
-0.0597653
0.387359
-0.0106104
0.0816922
0.0198129
0.548219
0.483628
0.443965
0.0172222
-0.0105262
-0.00940418
-0.187661
0.54946
0.54777
0.551764
0.552735
0.5534
0.00021974
0.00515353
0.00302333
-0.00979686
-0.00653098
-0.00901921
0.516719
0.534572
-0.14324
0.551906
0.554032
0.553853
0.54705
0.552706
0.550939
0.00105055
-0.00443184
-0.00964372
0.248694
0.373396
0.692036
0.784318
0.660856
0.433833
0.195441
0.592514
0.657277
0.560875
0.717399
0.707418
0.725313
0.200815
0.0514005
0.208468
0.149669
0.543013
0.541702
0.533591
0.530636
0.54716
0.545276
0.549824
0.546829
0.549772
0.551167
-0.0175507
-0.0415111
-0.0559443
-0.121669
0.34372
0.603788
0.283604
0.313635
0.174343
-0.00600967
-0.00874684
-0.0109065
-0.0156714
0.031841
0.00469395
0.0731013
0.0731521
0.0426954
0.0173257
0.0229508
0.0107708
0.013381
0.541477
0.539766
0.54615
0.554788
0.49298
0.496749
0.462492
0.482737
0.468246
0.408976
0.443198
0.418707
0.00638476
0.0215658
0.00611771
-0.00299893
0.0044381
-0.00744963
-0.00354783
-0.00403894
0.00407966
-0.00390449
-0.00747126
-0.0136034
-0.14683
-0.260315
1.00838
0.941724
0.150965
0.538654
0.545074
0.541858
0.546671
0.549798
0.55064
0.548383
0.544949
0.535071
0.536753
0.533301
0.534009
-0.0797957
-0.216532
-0.0444814
-0.114413
0.159273
0.641532
0.385233
0.324328
0.318613
0.542214
0.950082
0.742359
0.728445
0.748776
-0.321082
0.0750912
-0.254316
0.365307
0.187414
0.691724
0.740236
0.760507
0.709266
0.661908
-0.0915208
0.571986
-0.0382157
0.00993191
0.206189
0.092211
0.729619
0.690978
0.695266
0.714245
0.732916
0.696963
0.679504
0.674304
0.709881
0.713545
0.518886
0.279889
0.232792
0.194462
0.672777
0.557358
0.612961
0.524209
0.538043
0.540772
0.539372
0.521463
0.528902
0.524545
0.53061
0.533934
0.542874
0.543254
0.538646
0.540806
-0.0228251
-0.0261571
-0.00163146
-0.110073
-0.10089
-0.160095
-0.0386844
0.102981
0.0659494
0.259964
0.365904
0.0783345
-0.037083
-0.0080098
0.0279712
0.204585
0.229751
0.106648
0.193754
0.182805
0.166879
0.267749
0.272834
0.00669739
0.00201545
0.00171944
-0.000996476
0.0521083
0.123718
0.133963
0.0245819
0.0193028
-0.0116307
-0.0118644
0.00870217
0.00531126
0.0078382
0.0448497
-0.0335667
-0.00172272
0.0154268
0.0268072
0.021024
0.0167758
0.534057
0.536186
0.535864
0.54363
0.561075
0.576909
0.534654
0.514732
0.505716
0.508693
0.482368
0.492462
0.488356
0.501854
0.522049
0.531114
0.528792
0.531435
0.514364
0.515954
0.50292
0.506597
0.482227
0.463615
0.452114
-0.023605
0.0177543
0.00700425
-0.0215178
0.00885881
-0.00517077
0.0157841
0.0304069
0.0165707
0.0130643
0.00624735
-0.00182277
0.00114421
-0.0521933
0.030589
-0.160882
-0.19462
-0.263157
0.912819
1.03303
0.835344
0.610965
0.625339
0.864838
0.951829
0.57286
0.759076
0.78278
0.594693
0.863772
0.543452
0.543063
0.540665
0.540143
0.541369
0.0100379
0.111494
0.119025
0.175068
0.290617
0.403956
0.326064
0.203494
0.336389
0.340222
0.636214
0.649966
0.603275
0.625754
0.626212
0.448848
0.525988
0.579358
0.534615
0.583427
0.604915
0.563434
0.594302
0.543025
0.498956
0.495778
0.444403
0.466343
0.443181
0.424743
0.533183
0.511109
0.521298
0.511744
0.531147
0.554988
0.551853
0.583546
0.594718
0.51557
0.473003
0.482976
0.511996
0.47317
0.487554
0.503219
0.241137
0.140397
0.226026
-0.0634457
0.0156195
0.000756358
-0.0463256
-0.000187929
0.285321
-0.410777
-0.384923
-1.01695
0.512263
0.980239
0.681871
0.654767
0.729655
0.709103
0.713546
0.735458
0.740851
0.663423
0.680838
0.684529
0.645313
0.669143
0.691494
0.688757
0.542799
0.412843
0.406762
0.361985
0.233835
0.269633
0.472387
0.394092
0.319157
0.321383
0.484307
0.371273
0.438938
0.477471
0.408957
0.363336
0.56863
0.633465
0.623063
0.597621
0.516202
0.530983
0.555318
0.591121
0.617725
0.649874
0.530306
0.536121
0.537374
0.534915
0.532112
0.535062
0.535194
0.537728
0.538519
0.54145
0.540456
-0.00988247
0.00122421
-0.012598
-0.0188164
0.010359
0.00630773
0.0508324
0.0365775
0.0208118
0.0277179
0.00141559
-0.0032006
0.00237769
0.0114137
0.12822
0.141542
0.124876
0.0856592
0.273778
0.404266
0.474683
0.353262
0.24603
0.269717
0.292663
0.0178669
0.0450988
0.0312352
0.0727027
0.0644758
-0.00309434
-0.00975774
-0.00514596
0.00059815
0.0134737
-0.00652512
-0.0109941
-0.0024486
-0.00563076
-0.00889492
-0.0128865
0.516921
0.510462
0.51194
0.505953
0.504738
0.518733
0.52297
0.524816
0.530147
0.532213
0.52268
0.528179
0.531803
0.0135109
-0.00829379
-0.0146735
0.00114298
-0.000988589
-0.00137842
-0.00119586
0.138608
0.0689962
0.0736648
0.027697
-0.099686
-0.0427635
0.50147
0.499028
0.494413
0.732274
0.582651
0.501157
0.596601
0.702376
0.288754
0.487576
0.320567
0.903949
0.796912
0.943408
0.558564
0.255442
0.412561
0.462872
0.270066
0.34259
0.346402
0.233654
0.265458
0.298801
0.400401
0.277152
0.251934
0.00928109
0.196943
0.314033
0.294858
0.423552
0.485834
0.273703
0.194243
0.149691
0.627253
0.645411
0.663092
0.634934
0.65845
0.593088
0.581523
0.599434
0.608781
0.604857
-0.744401
-0.45169
-1.39605
-0.711002
-0.259994
0.543178
0.506594
0.784614
0.668812
0.729996
0.714325
0.671458
0.637655
0.653157
0.683542
0.377199
0.489199
0.46376
0.468762
0.369047
0.300976
0.603443
0.59729
0.63317
0.657049
0.624427
0.656838
0.528077
0.527724
0.52731
0.523685
0.521985
0.524226
0.0885494
0.0572189
0.0921961
0.0737729
0.051402
0.0394108
0.0201269
0.0115028
0.00347295
0.00383272
0.0152633
0.0189164
0.179833
0.121033
0.0446626
0.0733486
0.0140277
-0.0517574
-0.0705106
0.0309993
0.123733
0.114133
0.420619
0.672813
0.493535
0.662777
0.501648
0.557871
0.485078
0.478267
0.504916
0.392227
0.471699
0.2453
-0.260703
-0.1686
0.800347
0.817209
0.600104
0.416374
0.186197
0.373036
0.567433
0.501818
0.540333
0.609626
0.600356
0.0277721
0.0925933
0.358306
0.585615
0.247032
0.239352
0.233605
0.409787
0.332537
)
;

boundaryField
{
    wall-4
    {
        type            zeroGradient;
    }
    velocity-inlet-5
    {
        type            zeroGradient;
    }
    velocity-inlet-6
    {
        type            zeroGradient;
    }
    pressure-outlet-7
    {
        type            fixedValue;
        value           uniform 0;
    }
    wall-8
    {
        type            zeroGradient;
    }
    frontAndBackPlanes
    {
        type            empty;
    }
}


// ************************************************************************* //
