/*--------------------------------*- C++ -*----------------------------------*\
  =========                 |
  \\      /  F ield         | OpenFOAM: The Open Source CFD Toolbox
   \\    /   O peration     | Website:  https://openfoam.org
    \\  /    A nd           | Version:  9
     \\/     M anipulation  |
\*---------------------------------------------------------------------------*/
FoamFile
{
    format      ascii;
    class       surfaceScalarField;
    location    "42";
    object      phi;
}
// * * * * * * * * * * * * * * * * * * * * * * * * * * * * * * * * * * * * * //

dimensions      [0 3 -1 0 0 0 0];

internalField   nonuniform List<scalar> 
1300
(
3.75095
5.62643
-3.11505
3.75095
-7.63382
5.62643
-4.38898
4.38898
-0.810066
0.810066
1.87641
1.87454
-2.8762
2.8762
-2.34569
2.34569
-2.54998
2.54998
-5.24639
5.24639
-5.06813
5.06813
4.66529
-4.66529
-6.22174
6.22174
-1.1486
1.1486
-3.77747
3.77747
3.16973
-3.16973
-2.26667
2.26667
-0.196671
0.196671
-0.553503
4.30446
3.19745
3.19745
-2.02185
2.02185
-4.86484
4.86484
6.21802
-6.21802
5.06564
-5.06564
-1.95059
-2.28674
1.79343
-11.5807
-5.84039
-5.84039
-8.4404
8.4404
-2.81397
2.81246
2.94445
-2.94445
-1.78226
1.78226
-4.32243
-0.066555
-4.32243
4.3857
0.0032855
4.3857
-0.897405
0.0873396
-0.897405
3.88292
-3.88292
0.688202
0.121864
0.688202
3.06501
-3.06501
-1.87709
3.7535
1.87386
-1.87187
6.17632
-1.87909
3.75363
-5.98743
5.98743
-3.09173
0.215528
-3.09173
2.69462
0.181581
2.69462
-6.81446
6.81446
-2.40448
0.0587923
-2.40448
2.27316
0.0725331
2.27316
2.87213
-2.87213
-2.65402
0.104039
-2.65402
2.43568
0.114303
2.43568
0.353544
5.27289
-5.97997
8.79244
-5.27289
0.0264949
5.20838
0.0380136
5.20838
-5.10582
0.0376968
-5.10582
5.0126
0.0555257
5.0126
4.75589
-0.0905965
4.75589
-4.78003
0.11474
-4.78003
-3.47588
-4.07995
-6.38036
0.158629
-6.38036
-1.16612
0.017515
-1.16612
1.10028
0.0483181
1.10028
-3.64356
3.64356
-4.17166
0.394189
-4.17166
3.12415
0.0455795
3.12415
1.8685
1.88245
5.61946
-5.61946
2.44972
-2.22555
-0.0411244
-2.22555
-2.26374
-2.8019
2.26374
0.00293463
-0.4383
0.241629
-0.4383
3.15933
0.0381161
3.15933
2.27718
0.158496
-2.27718
0.255334
3.24372
-3.24372
1.35787
0.663982
1.35787
-5.56695
5.56695
4.95413
0.0584675
-4.95413
0.0892957
6.15625
0.0617633
6.15625
-6.19952
-0.0184973
-6.19952
2.696
-4.98274
-2.51765
6.02942
0.192316
-6.02942
0.189026
2.91522
0.0292302
2.91522
-2.9203
2.9203
-2.98369
0.0392415
-2.98369
-2.18361
0.401353
-2.18361
1.48043
0.301828
1.48043
-4.18843
-0.134002
-4.18843
-4.30379
0.132129
4.30379
0.081906
1.10102
-1.10102
-1.00199
0.104583
-1.00199
-4.02216
-0.166269
4.02216
-0.139239
-3.7761
-0.106821
-3.7761
-3.02388
0.0401883
3.02388
0.0411316
3.11269
0.0466443
-3.11269
0.0476753
-1.87083
3.75328
-1.88013
3.75399
-5.6044
-0.383033
-5.6044
6.29888
-0.311449
6.29888
3.45058
0.326896
-3.45058
0.358847
2.5639
0.130718
2.5639
-6.78248
-0.0319859
-6.78248
6.79362
0.0208376
6.79362
2.47559
0.0883197
-2.47559
0.0711003
2.23531
0.0378483
2.23531
2.88873
-0.0166021
2.88873
-2.86901
-0.00311544
-2.86901
2.79832
-2.79832
2.72969
0.0686219
-2.72969
0.0756716
-11.1329
11.1144
-0.035076
-11.0978
5.1733
5.1733
4.18573
0.570162
4.18573
-4.99534
0.215309
-4.99534
2.86608
-5.38372
3.09044
-6.56632
4.69151
-16.2722
4.32237
-8.40232
6.65063
-6.65063
6.52874
0.121886
-6.52874
0.148375
-1.2265
0.0603791
-1.2265
-3.0384
-0.605156
-3.0384
4.29311
-0.649548
4.29311
-3.02869
3.02869
-3.07779
0.0490977
3.07779
0.0463629
2.20626
0.0290548
-2.20626
-0.0192916
0.564505
0.123697
-0.564505
0.126204
3.44132
-0.197596
3.44132
-3.05379
-0.18993
-3.05379
-1.2909
0.0644078
1.2909
0.0669636
-5.81519
0.24824
-5.81519
-11.1908
0.0929952
-11.1528
-6.10652
-6.10652
2.33387
11.1263
-2.88909
0.0200758
2.88909
0.0261326
2.97567
0.0530276
-2.97567
0.055364
-2.86164
0.0633252
2.86164
0.0586605
-2.56049
0.376875
-2.56049
-1.06884
1.06884
-1.24235
0.173504
1.24235
0.238083
1.36394
-0.262925
1.36394
1.06106
0.0392204
-1.06106
0.059075
-3.69468
-0.0814162
-3.69468
6.53362
-0.234739
6.53362
-2.94603
-0.107766
2.94602
-0.0572928
-0.0333526
11.1478
-5.13995
0.0341247
5.13995
-11.2095
11.2436
-3.23348
0.672999
3.23348
0.952242
5.2874
0.279551
-5.2874
0.292058
6.74084
0.0527881
-6.74084
0.0902102
-2.54717
-0.491236
-2.54717
-5.02035
-0.584048
5.02035
-0.727241
-11.475
-0.202951
11.6779
-11.4195
6.01814
0.138113
-6.01814
11.3818
-1.01324
-0.0877818
1.01324
0.055606
1.68836
-0.324412
1.68836
3.61601
-0.174697
-3.61601
-0.0786673
-6.68853
-0.0939415
6.68853
-0.154916
-2.10372
-0.443443
2.10372
-0.415369
-4.26702
4.30513
1.9093
-2.52942
-2.45332
-5.33132
1.85191
1.90137
4.30163
-10.202
-6.07019
-10.013
7.2648
-6.97274
-9.26557
9.17498
7.72065
-7.82747
-5.78518
5.83155
6.4824
-6.44127
1.87879
1.87471
7.93414
-7.71861
-15.6381
15.2551
7.47441
-7.41562
15.8111
-15.843
-17.915
17.9678
-5.70826
5.8123
-6.72876
6.72565
-6.95402
6.89672
-2.93623
-3.63009
13.1865
-13.0278
8.38051
-8.42164
-8.54746
8.94164
3.38248
0.922652
3.42913
-1.88225
3.76104
-1.87138
3.78068
2.67647
-5.61269
2.70726
-5.16058
4.17179
4.20872
-4.17472
-1.1566
-5.92132
5.95055
-5.81904
5.8777
8.99164
-9.0582
-1.88515
3.75986
-1.86884
3.7702
-3.42506
-2.36012
3.37948
0.922153
8.10591
5.08054
-8.29823
-1.71477
-7.95958
7.78488
-8.19056
8.00063
-0.438319
5.81906
-5.38075
4.42652
-1.55897
7.37804
5.70582
5.92113
5.86673
-5.58718
1.10601
-6.48675
-6.39746
-2.45758
2.56217
2.40585
-2.28399
6.01715
1.7035
5.87791
-5.66985
-2.15761
-5.75127
3.82099
2.01055
3.87009
4.07748
2.40493
4.11767
3.03075
-3.03571
0.00495365
-3.05639
6.08714
0.724157
-5.41651
-4.49436
4.95748
2.97666
5.13906
-5.5052
-2.21341
-5.14635
-9.54553
-6.0926
-10.1296
10.1007
5.1544
9.78925
-11.9812
11.8263
4.75517
2.71924
4.8277
-4.90745
-2.50817
-4.83635
11.6312
-2.6171
-9.0141
-10.3535
-7.56151
10.3326
5.47841
11.0022
6.96561
11.0924
4.44045
7.19076
-9.91885
2.35734
-3.86424
-1.84402
-3.78857
3.67923
2.13308
3.79353
-4.21411
-2.51465
-4.19403
-4.28911
-2.66491
4.30571
2.41994
-4.4047
-3.78586
4.51247
2.38426
4.06511
-10.1353
4.33722
-7.96731
-9.24738
-3.78045
-9.099
3.48548
2.62027
-6.10575
-2.12722
8.44439
-4.23567
7.28779
-5.11222
-3.30942
-5.13151
-6.81884
-1.72861
-6.68671
-8.88369
8.39246
-9.18411
8.53456
12.6019
-5.6722
-6.9297
-3.96825
-2.47303
3.92057
-0.491445
-3.71094
3.71589
0.0501024
3.83078
4.75344
4.26199
-3.8863
-1.93274
-3.83094
3.83003
2.04767
3.89336
6.7721
2.21954
6.77538
-6.48097
-2.57723
-6.61497
9.07252
-8.67117
2.8999
-2.83549
5.34711
2.65351
-5.14952
-2.81006
6.19902
-3.18354
-3.01548
-12.2046
10.5513
1.65332
-4.82657
-0.400056
-0.203385
-5.49635
-3.76922
5.38161
0.539525
11.0908
7.32159
-5.51322
5.76146
6.16471
6.22318
-0.174279
5.83182
-5.15882
5.33071
-2.50087
-2.82985
5.34534
-5.51161
-1.26963
-5.4074
4.13777
0.366293
1.67374
-1.43212
-1.91184
-0.54574
-1.85277
1.44527
0.960584
1.56897
0.933335
1.62883
-2.94842
0.567817
2.3806
-2.01508
-1.71617
-3.70651
-1.11567
4.82218
5.65884
2.12604
-5.58018
-0.171094
2.61531
-2.56699
-0.723658
-2.98285
2.19206
-2.91572
-3.68452
-1.93089
5.61541
-3.37047
-0.460465
3.31744
0.552648
-3.82616
-2.09516
3.78692
0.330751
-3.12604
6.19043
-3.0644
-5.05877
2.52834
3.55881
4.53889
-4.78982
2.44676
2.34306
-1.23101
4.24217
0.896891
4.37288
-6.82746
4.61405
5.76464
3.177
-6.09154
0.94519
-5.88227
8.49248
-7.31081
-1.18167
4.09945
4.39303
7.11197
5.48992
-5.7024
12.8144
-1.16238
-6.14843
7.04464
-3.86764
4.79462
-8.66226
-10.2845
4.13611
-9.16026
10.9473
-1.78705
-3.63162
-8.34955
12.7919
-1.20496
-11.5869
8.58429
-4.16526
-4.27126
8.43652
-6.78236
6.77943
-1.95506
-4.82437
-10.1274
-5.71569
10.2213
1.60496
-9.85644
12.2138
-2.66568
4.09844
0.729268
4.13629
3.24095
-5.41848
2.17752
3.5414
-5.49647
2.06314
-7.48162
-6.76859
12.1166
-5.34797
-10.549
-9.57129
-0.97775
2.54027
9.67352
-9.50588
7.45602
2.04986
3.30744
0.585922
-3.37606
-0.412515
0.243513
4.53566
-4.77918
4.03704
4.19554
3.3277
1.20797
3.84209
2.10846
-3.86822
-0.325813
-4.15514
1.49024
-1.73521
-3.67979
5.17002
-4.06607
0.38628
-2.73959
-3.5067
6.24629
-4.58361
3.03845
3.15198
5.08612
-4.91251
1.40581
-2.39818
-2.51433
2.66026
-4.39547
1.97815
3.19188
4.3624
0.576549
5.907
6.20956
-8.52727
0.559958
11.2901
-9.57534
2.48175
8.61064
-9.93777
0.366477
-8.73253
0.988687
-5.22435
-5.11706
5.12157
-6.85018
-3.54069
6.16649
0.608897
-6.24839
-0.43832
-6.03514
-2.84855
-6.47859
-3.05014
-6.13397
-8.75254
-1.65333
-7.09921
6.73912
-6.68271
-3.44687
7.40995
1.12461
-7.41745
7.32967
-7.49338
7.16897
0.0950164
3.62088
4.35701
1.88398
-2.38986
4.27385
-5.11133
7.33088
-8.63466
3.52333
4.08936
-6.66659
-4.5453
5.0373
4.03522
5.33913
8.9313
-10.4364
1.50512
-10.7358
12.0595
-1.32368
-16.5146
5.7788
-7.58333
2.56622
0.333678
2.6266
0.596019
2.49048
-3.0865
-2.23948
-2.17251
-2.38521
-3.46111
5.84632
1.14159
-3.46495
2.32336
-3.54485
4.68645
-0.133724
-3.33123
5.30279
-2.81231
5.63647
-3.67858
1.95789
3.38671
5.71643
-2.32973
4.39317
-1.73966
1.87799
-4.20772
-1.58311
-2.96535
5.09843
-3.28094
3.66722
-0.319254
3.98647
-4.07922
0.895681
-0.751526
3.44401
3.69935
4.29144
-3.08347
2.93176
-4.67142
-1.27596
-4.09487
-0.902995
-0.292058
-3.75557
4.04763
6.03217
-6.32423
-5.25536
9.56348
-4.30812
7.71783
-5.39937
-2.31846
-4.27095
-4.40022
3.89408
1.93774
9.65557
0.211094
-5.61046
-4.94773
-3.99549
3.19376
2.13696
-1.8907
3.54402
2.09408
-0.420338
0.519042
1.04992
1.83802
-1.31897
0.255987
1.58203
-1.17613
1.89444
0.720871
-1.93366
0.0808909
-1.3178
3.50986
1.0628
-2.02338
0.704405
1.02419
-3.52506
4.92433
-2.57756
-2.34677
5.94852
1.15329
-3.73085
4.25411
-3.88781
2.34225
-3.45792
-1.3886
-5.27642
-3.57292
-2.55422
4.87758
-3.29209
5.41813
1.19306
-5.24704
6.4401
-3.63561
1.70472
-3.08585
3.80672
-1.05084
-2.03501
2.86674
2.74867
-2.98254
-0.000316761
-0.115802
2.36114
-2.47694
-0.554579
-2.56966
-4.57213
4.90288
-2.10664
4.5534
2.16721
-1.91535
6.46876
1.81054
-3.72589
-3.24823
-3.7087
-1.38283
3.15605
-0.589793
-4.24656
-5.41416
4.15824
0.214648
-6.93253
7.73595
-0.803415
-3.95587
-0.658175
4.75763
-5.97487
0.4784
-3.91173
3.82422
4.72111
4.93576
-11.3742
-0.212727
-6.21979
1.13415
-7.35395
5.52718
-3.57377
7.70988
-10.3652
6.91834
-9.2406
6.52821
-0.82574
6.24396
-4.06643
2.77015
-8.48584
-6.88088
5.42347
-2.70424
6.15274
-3.0666
9.21934
-5.73228
5.17427
4.04507
-0.984592
-4.14692
-5.19269
4.2081
-0.0184196
4.11787
4.97637
-2.86791
4.65056
2.25956
-4.65774
-2.13591
-6.49615
1.83841
-3.34417
-1.91766
3.75608
3.16846
3.75438
1.24175
-3.34186
7.19961
-8.17736
-1.85165
-3.26541
5.17061
-0.962511
3.36316
-6.62857
-1.8612
4.8464
-0.809221
-4.03717
0.825804
-4.3665
1.67366
-6.04016
5.17652
-5.61484
2.21679
-9.80012
-5.20066
-5.14505
-2.25511
-5.23827
-7.60727
5.35216
-1.82847
5.50119
-8.56973
7.76051
-3.48978
8.84194
-5.43081
-1.04778
5.84618
1.32279
10.1647
0.173425
-4.71873
-1.89473
3.94455
-2.04982
1.29903
-3.58214
0.362408
2.48153
3.46698
-6.6193
-0.0472807
-4.76601
-3.92474
7.95996
5.63874
11.6709
1.2345
9.15124
-1.19128
10.3857
4.14785
4.38594
-3.02438
4.5295
1.02325
4.54658
-0.870201
2.82809
1.7564
1.77392
0.793075
2.31328
1.38606
3.20896
0.122467
-2.05004
4.6342
-8.62968
-0.976267
-8.05952
1.11546
5.72243
-4.60697
3.09325
-0.956293
1.04343
0.0342853
-1.53076
1.49647
-2.79556
-1.95109
-0.369064
-1.64676
2.35117
1.8631
-1.9821
-0.813461
0.365669
-3.93859
3.09225
-3.09257
-0.3439
6.0962
-2.77727
0.300334
-1.07255
-2.26933
-2.81507
2.73417
6.1767
0.292052
3.11231
5.19494
3.09978
0.231864
3.89126
-5.67831
-3.59036
-5.89104
-0.363853
4.39378
1.71613
7.95739
5.7612
4.79868
-1.82989
-10.0072
6.55443
-2.02493
5.23075
-1.19358
-4.84658
5.01603
2.31484
-5.62493
0.0100921
-4.83649
-6.86142
-0.525438
8.28594
-9.63929
8.59151
5.74296
1.35625
-4.41463
-0.730418
4.24113
0.144807
10.5305
-1.12587
-6.79882
7.92469
-4.59655
3.62028
0.813692
2.73032
2.31016
1.35387
-5.44495
-10.0519
-1.97435
-1.5507
-4.32112
0.501065
-2.36416
6.24832
-2.62804
3.92987
5.29665
6.34008
-2.15269
-4.17154
6.46082
-2.53095
3.80913
)
;

boundaryField
{
    wall-4
    {
        type            calculated;
        value           uniform 0;
    }
    velocity-inlet-5
    {
        type            calculated;
        value           uniform -3.75095;
    }
    velocity-inlet-6
    {
        type            calculated;
        value           uniform -5.62643;
    }
    pressure-outlet-7
    {
        type            calculated;
        value           nonuniform List<scalar> 8(3.11505 7.63382 4.23733 9.78727 7.55583 5.21364 5.95652 9.01388);
    }
    wall-8
    {
        type            calculated;
        value           uniform 0;
    }
    frontAndBackPlanes
    {
        type            empty;
        value           nonuniform List<scalar> 0();
    }
}


// ************************************************************************* //
