/*--------------------------------*- C++ -*----------------------------------*\
  =========                 |
  \\      /  F ield         | OpenFOAM: The Open Source CFD Toolbox
   \\    /   O peration     | Website:  https://openfoam.org
    \\  /    A nd           | Version:  9
     \\/     M anipulation  |
\*---------------------------------------------------------------------------*/
FoamFile
{
    format      ascii;
    class       volVectorField;
    location    "42";
    object      U;
}
// * * * * * * * * * * * * * * * * * * * * * * * * * * * * * * * * * * * * * //

dimensions      [0 1 -1 0 0 0 0];

internalField   nonuniform List<vector> 
918
(
(0.985163 -0.00050291 0)
(0.00500954 2.96625 0)
(0.00686309 0.830136 0)
(0.979703 0.00214801 0)
(-0.0142856 2.03473 2.9569e-20)
(-0.00704207 2.94879 -2.55374e-18)
(0.822166 1.16109 4.24493e-19)
(0.264793 0.126555 -1.62044e-20)
(0.999908 -0.000282509 0)
(0.0605972 0.807304 0)
(0.0163393 0.618205 0)
(0.734861 -0.0159538 0)
(0.0111204 2.93032 0)
(0.0027332 2.79475 0)
(-0.0174657 3.1555 7.61132e-19)
(-0.0181535 1.88075 -4.89178e-21)
(0.329973 0.0334016 1.06172e-18)
(0.190017 1.17278 2.94784e-19)
(0.96277 0.00502006 0)
(-0.00702157 0.584981 0)
(0.0555364 0.1698 -7.67844e-19)
(1.00198 -0.00498036 0)
(1.00022 -0.00979095 0)
(0.975727 -0.00643983 0)
(0.584881 -0.0380304 0)
(0.0156464 2.63933 0)
(-0.0148654 2.91 9.45495e-19)
(0.0047264 0.899996 0)
(0.00844458 1.12981 0)
(0.000920691 0.875209 0)
(-0.0159498 2.60973 0)
(-0.00161497 2.08862 -2.36013e-20)
(-0.00849669 1.85744 0)
(-0.0206087 2.9876 -9.2048e-23)
(-0.0166911 3.0053 1.9848e-18)
(0.0021053 3.00019 0)
(0.870776 -0.0094594 0)
(0.404388 0.93814 1.90362e-19)
(0.800665 1.17889 -4.64769e-19)
(0.946215 1.01693 5.11303e-19)
(0.672005 1.27177 -9.75824e-20)
(0.671423 1.25792 5.64007e-19)
(0.304157 0.20351 1.58088e-20)
(0.279138 0.0978292 0)
(1.12678 0.5477 0)
(0.270161 0.195594 7.22557e-20)
(0.235011 0.127234 -7.49799e-20)
(0.919786 -0.00745175 0)
(1.00027 0.000152761 0)
(0.999909 0.00033544 0)
(1.00363 -0.00776872 0)
(1.00096 -0.000928175 0)
(1.00017 3.01029e-05 0)
(0.0773682 1.81379 -8.27575e-19)
(0.027938 0.987927 0)
(0.0957914 0.870834 0)
(0.0132724 0.937873 0)
(0.0343648 0.747046 0)
(0.0204447 1.9997 0)
(0.0124248 0.832287 0)
(0.0104883 0.640607 0)
(0.0168617 0.815318 0)
(0.0104085 0.592798 0)
(0.838637 -0.015757 0)
(0.846538 0.0291519 0)
(0.767738 -0.00449866 0)
(0.816735 0.039033 0)
(0.703395 -0.0187729 0)
(0.0146941 3.0004 9.47851e-19)
(0.0115139 3.008 0)
(0.00612154 3.00279 0)
(0.0135536 2.99735 1.07745e-23)
(0.00797399 2.95846 -1.40874e-18)
(0.014487 2.982 0)
(0.0108273 2.90362 0)
(0.0249025 2.93044 2.18076e-24)
(0.00446493 2.82486 0)
(0.0310312 2.91605 0)
(-0.00561325 2.74566 0)
(0.308373 3.55224 0)
(-0.131787 3.63375 0)
(0.139672 3.24585 -7.08318e-19)
(-0.0125952 2.98121 0)
(-0.0137576 2.01508 0)
(-0.00579783 2.15774 4.82471e-21)
(-0.00970759 1.89425 -1.84405e-20)
(0.430081 0.142685 -3.6738e-19)
(0.331621 0.0180152 -3.54433e-19)
(0.410396 0.157796 -1.10641e-18)
(0.31476 0.0493995 -7.29684e-19)
(0.22281 0.962684 0)
(0.272025 1.31847 -3.55649e-19)
(0.369763 1.25624 5.95089e-19)
(0.987471 0.00855149 0)
(0.941922 0.00584026 0)
(1.0003 0.000578142 0)
(1.00286 0.00930565 0)
(1.00302 0.00846064 -2.83074e-18)
(0.991913 0.00970043 2.13769e-18)
(-0.0148606 0.800156 0)
(-0.00183853 0.576319 0)
(-0.014267 0.947601 0)
(-8.52495e-05 0.809895 0)
(-0.0114933 0.575907 0)
(0.0892886 0.172716 2.3731e-19)
(0.147075 0.149045 0)
(0.99354 -0.00838021 0)
(0.954426 -0.00651895 0)
(0.764443 0.0462841 0)
(0.700124 0.0568527 0)
(0.663968 -0.0309073 0)
(0.962508 -0.00854636 0)
(0.616828 0.0762991 0)
(0.445 -0.0110266 1.57107e-18)
(-0.0366336 2.86388 7.13676e-19)
(0.0418713 2.90966 0)
(0.0543825 2.88503 0)
(-0.00423381 2.69936 0)
(-0.0133562 2.98505 8.97914e-19)
(-0.0180115 2.89504 0)
(-0.0154584 2.98807 -2.7788e-18)
(-0.0133275 2.92516 9.50532e-19)
(0.0259456 1.34559 0)
(0.0446715 1.38995 0)
(-0.00622918 2.11725 2.03001e-22)
(-0.00572909 2.06774 0)
(-0.0208856 1.86868 0)
(0.938059 -0.00762548 0)
(0.856502 -0.00972237 0)
(0.863366 0.00621205 0)
(0.949249 -0.00803452 0)
(0.883703 -0.00810493 0)
(0.51662 1.13188 -2.39898e-19)
(0.566069 1.18345 0)
(0.368151 0.882257 3.5105e-20)
(0.310313 0.741197 0)
(0.906032 1.05603 -1.39263e-19)
(1.0154 0.858338 2.76685e-19)
(0.363138 1.36799 0)
(0.527525 1.33396 0)
(0.542988 1.2873 0)
(0.116133 0.180519 -3.06144e-19)
(0.337296 0.195925 0)
(0.303197 0.090743 2.06474e-19)
(0.986601 0.914125 0)
(1.05289 0.764482 0)
(1.07654 0.704556 -2.0812e-19)
(1.10815 0.608203 0)
(1.15868 0.3937 5.48954e-20)
(0.957555 -0.00883324 0)
(0.962404 -0.0100941 0)
(0.901535 -0.00797552 0)
(0.984175 -0.00917015 0)
(0.974655 -0.00937167 0)
(0.937068 -0.00636295 0)
(1.00019 0.0023368 0)
(1.0009 0.00140454 0)
(0.99991 0.000853797 0)
(0.0350826 2.06567 4.56396e-19)
(0.120467 1.75576 0)
(0.0162207 2.18147 7.13486e-19)
(0.0514204 1.86801 -6.03306e-19)
(0.106 1.18013 -2.40879e-19)
(0.0457969 1.06613 0)
(0.142482 1.02302 0)
(0.00511142 0.895283 0)
(0.017794 0.69726 0)
(-0.00504754 2.23559 -1.25038e-21)
(0.0266535 2.00637 0)
(-0.00554556 2.23869 -5.64768e-20)
(0.0191085 2.00568 1.00272e-19)
(0.00448204 0.870935 0)
(0.00909957 0.84921 0)
(0.0078367 0.664683 0)
(-0.0044031 0.801901 0)
(0.00269537 0.580824 0)
(0.935887 0.00904967 0)
(0.846329 -0.015275 0)
(0.925763 -0.000125523 0)
(0.84053 -0.0127882 0)
(0.812035 0.000910659 0)
(0.901346 0.0200842 0)
(0.877373 0.0243664 0)
(0.788728 -0.00115247 0)
(0.00576528 3.06487 -8.88815e-21)
(0.0165365 3.05773 0)
(0.0146397 2.96906 0)
(0.00866103 2.8763 0)
(0.925323 3.96862 0)
(1.23996 3.30118 9.29598e-19)
(0.0700722 3.07339 0)
(-0.028579 2.90478 0)
(0.023324 1.42181 0)
(-0.0169853 1.73359 0)
(0.0170393 1.58751 0)
(-0.028419 2.56681 -6.3347e-21)
(-0.0145348 2.25812 0)
(-0.0200395 2.40314 0)
(0.0160145 1.93029 -3.41293e-23)
(-0.00603136 2.23076 1.67175e-20)
(-0.00952335 2.19099 1.86502e-20)
(0.00711388 1.90413 0)
(0.459981 0.121485 5.53096e-19)
(0.362487 0.00631221 -5.43167e-19)
(0.259841 1.57613 0)
(0.271114 0.737402 -3.20413e-19)
(0.177503 1.6617 -1.07474e-18)
(0.22756 1.20391 1.07736e-18)
(0.902207 0.00648723 0)
(0.967487 0.0110606 0)
(0.974613 0.0107882 0)
(0.923425 0.0064888 0)
(-0.00276825 0.786692 0)
(-0.0160493 0.789645 0)
(-0.00712901 0.575238 0)
(0.232486 0.190122 6.66153e-19)
(0.194565 0.177415 -7.8913e-19)
(0.197792 0.136854 0)
(1.08604 0.0824655 2.96677e-20)
(1.06887 0.0372883 0)
(1.00455 0.0384991 0)
(0.900504 -0.0070773 0)
(0.493668 0.102562 0)
(0.539681 0.085921 -2.51201e-18)
(0.398215 0.00354204 9.40556e-19)
(0.00903928 2.98132 7.61483e-19)
(-0.03253 2.86597 4.69084e-20)
(0.00364603 3.05029 -1.87846e-20)
(0.0201156 3.04334 6.67167e-19)
(-0.0149853 2.99656 3.11819e-20)
(-0.0129578 2.94943 -1.25376e-22)
(-0.0172882 3.01196 -5.75544e-19)
(0.0148796 3.02381 4.17036e-19)
(0.00739334 3.03691 -6.61726e-19)
(0.932809 -0.00173141 0)
(0.938667 -0.00357327 0)
(0.844557 -0.00926857 0)
(0.956698 0.0117728 0)
(0.942979 0.0130242 0)
(0.881746 0.00603812 0)
(0.917911 0.0165191 0)
(0.926427 0.0147495 0)
(0.838579 0.0035135 0)
(0.7201 1.41063 2.96131e-20)
(0.753655 1.51976 0)
(0.186799 0.324926 7.31593e-20)
(0.219425 0.659108 5.91511e-19)
(0.259984 0.719663 -3.44279e-19)
(0.265305 0.533702 6.84569e-19)
(0.337486 0.791145 1.60955e-18)
(0.134659 0.221779 3.78423e-19)
(0.384327 0.177151 7.74211e-19)
(0.364228 0.189726 2.01778e-19)
(0.311511 0.070311 3.85107e-19)
(1.14948 0.451894 2.81534e-20)
(1.16882 0.249009 2.29001e-20)
(0.00761482 2.23034 2.80777e-19)
(0.0467476 1.93653 0)
(0.965191 0.0283953 0)
(0.939354 0.0131959 0)
(0.863904 -0.018571 0)
(0.0113496 3.07448 0)
(0.0198958 2.94422 1.22874e-18)
(0.0164322 2.95642 0)
(0.00628347 2.85052 -1.21887e-18)
(0.00630688 3.09184 2.98938e-19)
(0.00701325 3.08212 0)
(0.786772 1.82238 -1.57464e-19)
(1.24774 2.50035 3.99943e-19)
(0.768918 1.9621 -1.23093e-18)
(0.0200434 2.9819 -6.60167e-19)
(0.0355555 3.00135 0)
(-0.0341379 2.87823 0)
(-0.00467784 2.21537 -1.35038e-20)
(-0.0059482 2.23717 -3.77577e-20)
(0.0146176 1.96492 -9.14517e-21)
(0.276216 1.38399 1.04232e-18)
(0.229888 0.525388 -7.14878e-19)
(0.06369 1.98985 7.92032e-19)
(0.136016 1.87741 -9.38464e-19)
(0.180177 1.49662 9.20391e-20)
(0.00547534 3.11853 -1.67188e-18)
(0.0114361 3.11927 1.8291e-18)
(-0.00914986 2.98061 8.31033e-19)
(-0.00422396 2.97735 -7.87902e-19)
(-0.0214611 2.88082 -8.46396e-19)
(0.00846327 3.09932 -2.22448e-18)
(0.00157912 3.10537 2.24101e-18)
(0.273872 0.682506 0)
(0.238733 0.672867 -1.2183e-18)
(0.095783 0.222997 5.40164e-19)
(0.35183 0.917116 1.124e-18)
(0.190056 0.266751 -1.73299e-18)
(1.16715 0.169394 7.54463e-20)
(1.17013 0.302706 0)
(1.15558 0.118422 -2.16652e-20)
(-0.00214823 2.24822 -1.91698e-21)
(0.00217444 2.23947 0)
(0.0325729 1.97182 0)
(0.339934 1.29212 -3.75136e-19)
(0.369885 1.12948 -8.10531e-19)
(0.20369 0.365933 1.44358e-18)
(1.00587 -0.0108585 0)
(1.00766 -0.00765197 5.22478e-19)
(0.0243916 1.319 0)
(0.000240871 1.2862 0)
(1.00222 0.00350261 1.80128e-21)
(1.00366 0.00944907 1.06629e-18)
(-0.0223451 2.55025 8.02354e-21)
(-0.0286083 2.59193 0)
(0.0354833 3.1785 4.43604e-19)
(0.395215 3.49098 0)
(1.15668 0.646972 -7.31559e-20)
(1.01293 0.0130599 -2.15373e-21)
(1.02126 -0.0103965 0)
(1.0017 0.000112322 7.59863e-23)
(0.102064 1.35867 0)
(0.146179 2.57416 0)
(0.0191623 1.29581 0)
(0.00230939 2.62883 5.76509e-20)
(-0.0216225 2.5889 2.48382e-20)
(1.0013 0.028777 2.44442e-21)
(1.06167 0.00347658 0)
(1.09457 0.023027 0)
(-0.017354 1.76061 0)
(-0.0247353 2.59437 0)
(-0.0027212 1.28512 0)
(0.294502 1.47118 -1.46546e-19)
(1.01127 -0.00965109 0)
(1.00939 -0.0149345 0)
(1.00237 0.000731997 6.67696e-19)
(1.00547 -0.0048231 -7.8471e-19)
(1.00118 -0.000997344 0)
(0.000185013 1.47799 0)
(0.0183557 1.37425 0)
(0.022362 1.44223 0)
(-0.00183226 1.27273 0)
(0.00657392 1.24648 0)
(0.00131575 1.22111 0)
(1.03461 -0.00638874 0)
(1.02043 0.0157062 -9.14739e-22)
(0.79948 1.26533 2.36119e-19)
(1.00223 0.000293168 -6.64846e-19)
(1.00406 0.00524671 7.78431e-19)
(1.00117 0.00206482 0)
(1.01279 0.0102865 6.61969e-19)
(1.00802 0.00829626 -8.01692e-19)
(1.00858 0.0146904 0)
(-0.0288079 2.62141 0)
(-0.0298043 2.60007 -7.04165e-21)
(-0.0286777 2.61384 5.72158e-21)
(1.22778 0.257889 6.4186e-19)
(1.15643 0.0839698 0)
(0.0431039 3.07758 -9.71787e-19)
(0.0653177 2.85409 -7.06823e-20)
(0.141755 3.19288 1.48436e-18)
(0.136545 3.22164 -2.20897e-19)
(0.13532 3.23397 0)
(0.0192536 3.13758 2.52182e-19)
(0.0760251 3.16024 9.59045e-19)
(0.0686305 3.18622 -4.74974e-19)
(0.0223815 3.12941 0)
(0.636231 0.287122 0)
(0.563437 0.338349 0)
(1.12237 0.683509 1.79686e-19)
(1.11743 0.809929 -1.78956e-19)
(1.18412 0.568632 0)
(1.21494 0.504347 0)
(1.01614 0.0132873 -1.2342e-18)
(1.01498 0.014245 1.54923e-18)
(1.02523 -0.00991293 0)
(1.0233 -0.0118942 0)
(1.00644 0.00255974 0)
(1.01042 0.00369292 0)
(1.0046 0.00181816 0)
(1.00978 0.00617914 0)
(1.00786 0.00597478 0)
(1.0045 0.00466444 0)
(0.0901646 1.35527 0)
(0.084575 1.32678 0)
(0.122727 1.39277 0)
(0.136448 1.40326 0)
(0.146244 2.59843 0)
(0.186245 2.66577 -4.46859e-19)
(0.101809 2.65509 0)
(0.087484 2.6588 2.21123e-19)
(0.0413617 2.68187 -1.90646e-19)
(0.0278269 1.30782 0)
(0.0213564 1.2419 0)
(0.0243513 1.3239 0)
(0.0286654 1.26428 0)
(0.00478715 1.98141 -2.11883e-20)
(-0.0198895 2.61668 7.37511e-21)
(-0.00693252 2.67174 4.55423e-20)
(-0.0174931 2.69132 0)
(-0.0241945 2.62307 -5.67905e-20)
(-0.0240164 2.61798 -2.06522e-20)
(0.0145945 1.98073 1.86429e-20)
(-0.00686109 2.40432 -9.89723e-21)
(-0.0120721 2.42465 -5.16458e-20)
(1.01122 0.0365427 1.25798e-18)
(1.00685 0.0161643 -1.55362e-18)
(1.00249 0.0433178 -1.25852e-18)
(0.980599 0.0224775 1.60382e-18)
(1.06298 0.00734282 0)
(1.04847 -0.00866517 0)
(1.0921 0.0328801 0)
(1.07264 0.0116147 0)
(1.07045 -0.000393023 0)
(1.13713 0.0796438 0)
(1.10875 0.0421546 0)
(1.11179 0.0302506 0)
(-0.0211855 2.44539 -1.28635e-21)
(-0.0208425 2.0119 0)
(-0.0127876 2.22623 0)
(-0.0249224 2.61467 -1.38271e-21)
(-0.0232339 2.62232 -3.2008e-22)
(0.0026783 1.57131 -6.30341e-21)
(0.00705091 1.50464 6.35405e-21)
(-0.00564936 1.38396 0)
(-0.00193185 1.39334 0)
(0.000700725 1.39018 0)
(-0.00248037 1.28714 0)
(0.00741549 1.22687 0)
(0.377992 1.48643 2.33644e-19)
(0.417557 1.4905 1.31301e-19)
(0.596775 2.44709 -2.43508e-19)
(0.401434 2.54139 7.18975e-19)
(0.350291 2.0659 7.84853e-20)
(1.02097 -0.00819612 0)
(1.01545 -0.0097939 0)
(1.01489 -0.0155303 0)
(1.00745 -0.00117962 0)
(1.00494 -0.000949292 0)
(1.00776 -0.00475869 0)
(1.00924 -0.00370879 0)
(1.01417 -0.00447752 0)
(1.02115 0.0161014 1.20854e-18)
(1.01799 0.0157235 -1.54878e-18)
(1.02159 0.0180499 -1.21708e-18)
(1.01946 0.0167209 1.52335e-18)
(0.765686 1.31451 0)
(0.701557 1.36652 2.17842e-19)
(0.875512 1.21143 7.25565e-20)
(0.918502 1.16282 -9.64972e-20)
(1.15745 2.60857 3.12559e-19)
(0.802411 0.112791 6.13117e-19)
(1.1596 0.104491 0)
(1.20541 0.188042 -5.15757e-19)
(1.18929 0.150607 -2.17976e-20)
(1.00416 0.147841 0)
(0.135598 2.96062 5.71301e-19)
(0.112731 2.86645 -1.23238e-18)
(0.0228538 2.3734 8.30686e-19)
(0.0907558 -0.0325108 -3.71328e-19)
(0.340268 3.42013 -1.98619e-19)
(0.194646 3.31266 0)
(0.237596 3.35463 2.58669e-19)
(0.245281 3.03389 -1.87742e-18)
(0.339699 3.1931 0)
(0.0070424 3.1207 4.89034e-20)
(0.017811 3.12944 -5.72588e-19)
(0.0156878 3.12554 8.42762e-19)
(0.0354707 3.13954 0)
(0.0335957 3.15068 0)
(1.21616 2.6076 0)
(0.54238 0.833581 -5.45475e-19)
(1.04116 0.986624 1.48048e-20)
(0.976978 1.06528 0)
(0.830615 0.968822 -1.21731e-19)
(1.06642 0.878875 2.85993e-20)
(0.362868 0.386524 -9.55961e-19)
(0.683152 0.314927 -2.12354e-20)
(0.642818 0.226835 4.38673e-19)
(0.584061 0.370792 3.24287e-20)
(0.497166 0.337022 -1.30584e-18)
(0.655429 0.330448 0)
(0.703405 0.417816 7.45337e-19)
(0.711025 0.419148 0)
(0.619269 0.358657 0)
(0.581614 0.281775 0)
(0.805443 0.613822 4.41378e-19)
(1.22782 0.279898 -5.41819e-19)
(1.22571 0.41471 0)
(1.23482 0.355805 0)
(0.733174 0.186072 6.50637e-19)
(0.852703 0.535417 -4.05284e-19)
(0.748407 0.506703 7.18452e-19)
(0.951977 0.425114 -7.90088e-19)
(1.01965 0.0147493 8.30711e-19)
(1.01781 0.014224 -8.35547e-19)
(1.01594 0.0155293 0)
(1.03603 -0.00593323 0)
(1.02965 -0.00858605 -7.83058e-19)
(1.02764 -0.0121212 7.75311e-19)
(1.02501 0.0099501 0)
(1.02364 0.0135553 0)
(1.01142 0.00407071 0)
(1.01427 0.00901692 0)
(1.01513 0.00396942 0)
(1.01424 0.00277136 0)
(0.060232 1.34 0)
(0.0622124 1.29713 0)
(0.144094 1.36718 -1.94985e-20)
(0.269835 1.46806 7.42641e-20)
(0.163575 1.4399 1.53846e-19)
(0.194837 1.44692 -2.52417e-19)
(0.165087 1.39043 0)
(0.130433 1.59392 -1.00605e-19)
(0.115275 1.56649 0)
(0.348058 2.01824 -1.14087e-19)
(0.344971 2.34982 6.47348e-19)
(0.186345 1.45106 8.77321e-20)
(0.262063 1.38136 1.25157e-20)
(0.196719 1.37065 -1.01339e-20)
(0.272073 1.32313 -1.26245e-19)
(0.239786 1.57696 0)
(0.26055 1.61649 1.30837e-19)
(0.0340756 2.2646 -4.29388e-20)
(0.0442473 2.67056 0)
(0.0669754 2.40178 1.65259e-19)
(0.0625809 2.4227 0)
(0.071078 2.67183 -2.44868e-19)
(0.0513091 2.70069 0)
(0.0310355 1.40723 -2.65108e-21)
(0.0379569 1.46048 0)
(0.0310373 1.37828 0)
(0.0264718 1.3794 2.99106e-21)
(0.00191057 2.6564 -1.81325e-20)
(0.0307862 2.69986 2.18832e-19)
(0.0128038 2.72599 1.52841e-21)
(0.0064551 1.82831 1.92559e-20)
(-0.000845544 1.67502 8.04475e-21)
(0.0196665 1.29386 0)
(0.0247331 1.22462 0)
(0.0489594 1.57168 1.52004e-20)
(0.0298935 1.44488 1.01155e-20)
(0.0390401 1.51006 -1.24274e-20)
(0.0409241 1.59649 0)
(-0.0304263 2.27916 4.93001e-20)
(-0.0309352 2.56173 -1.92116e-20)
(-0.0189025 2.45748 -1.83993e-21)
(-0.00247259 1.84608 -2.33342e-20)
(-0.0262429 2.50824 -7.17992e-21)
(-0.0213067 2.44943 3.89019e-20)
(1.01955 0.0208165 -8.25728e-19)
(1.0157 0.0264382 8.29458e-19)
(1.01485 0.0162917 0)
(1.01189 0.0692674 1.16522e-18)
(0.990502 0.0581116 -1.30786e-18)
(0.949997 0.0426018 1.46443e-18)
(1.01382 0.106271 -1.554e-19)
(1.0423 -0.00598832 0)
(1.05041 -0.00180726 7.48354e-19)
(1.03862 -0.0100442 -7.49829e-19)
(1.06956 0.0411926 -4.46196e-20)
(1.06338 0.0224236 3.83855e-19)
(1.06247 0.0540074 0)
(1.05257 0.0482254 -1.38091e-19)
(1.03255 0.0410927 0)
(1.02601 0.0371702 0)
(1.02783 0.0128997 0)
(1.02423 0.0157049 0)
(1.03989 0.031136 2.84192e-19)
(1.0392 0.0260848 -6.27439e-19)
(1.05043 0.0324937 -3.014e-19)
(1.04859 0.0322957 -3.31707e-19)
(1.07013 0.0629486 6.49537e-19)
(1.09461 0.0503707 0)
(1.10263 0.0940822 0)
(-0.0246469 2.28593 3.06532e-20)
(-0.0174037 2.03196 -2.09899e-21)
(-0.0186054 2.03362 0)
(-0.0298919 2.45465 -3.05337e-20)
(-0.0259214 2.41136 3.34726e-21)
(-0.032668 2.48421 1.47855e-21)
(-0.0225039 2.6308 1.7906e-20)
(-0.0253479 2.57333 -1.79111e-21)
(-0.0221125 2.52457 5.66899e-21)
(-0.0193633 2.62522 -5.0148e-21)
(-0.0238714 2.62646 7.39155e-21)
(-0.00820228 1.4834 -5.29157e-22)
(0.00614706 1.61961 -2.52173e-21)
(0.36508 1.42911 -9.44073e-20)
(0.364273 1.36877 5.74248e-20)
(0.646661 1.41496 -2.10646e-19)
(0.515335 1.48104 -1.28167e-19)
(0.569649 1.45044 0)
(0.592451 2.42321 2.15256e-19)
(0.66037 2.41624 3.43308e-19)
(0.410237 2.51548 8.43851e-20)
(0.403047 2.54345 -6.47087e-19)
(0.511178 2.48857 6.32635e-19)
(0.551793 2.46089 0)
(0.488547 2.51576 -5.73105e-19)
(0.248285 2.59028 1.19736e-18)
(0.353423 2.56377 -8.15795e-20)
(0.284145 2.65182 -1.64301e-18)
(0.944354 2.38071 7.3836e-19)
(0.836525 2.38308 0)
(1.011 0.000432205 2.70917e-20)
(1.01525 -0.00549226 -2.19936e-20)
(1.01764 -0.00362962 -4.01806e-19)
(1.01493 -0.000955959 4.03663e-19)
(1.01235 0.00105398 0)
(0.634699 1.28334 0)
(0.655241 1.18122 0)
(0.761764 1.0914 0)
(0.648151 1.14424 0)
(1.18683 2.62304 5.84338e-20)
(1.075 2.36827 0)
(0.839062 2.1878 3.95181e-21)
(0.825569 2.44838 0)
(0.922741 2.53969 -4.37984e-19)
(0.958149 2.49556 2.91529e-19)
(0.815263 0.168191 0)
(0.777825 0.139552 1.67163e-19)
(0.922833 0.142212 9.72902e-19)
(0.838719 0.144672 -3.63435e-19)
(0.808373 0.0828946 -1.12059e-18)
(1.07735 0.230057 -9.4223e-19)
(0.992981 0.287777 -1.56904e-20)
(0.92568 0.28787 9.00875e-19)
(1.0017 0.218966 7.53389e-19)
(0.952962 0.185744 -1.29435e-18)
(0.917358 0.187719 1.61803e-19)
(0.95325 0.25085 -3.4628e-19)
(0.9313 0.213572 0)
(0.99199 0.18152 6.38964e-19)
(1.04278 0.183406 0)
(1.03995 0.209322 0)
(1.10596 0.116659 3.02744e-19)
(1.06635 0.172429 -1.41829e-20)
(1.07211 0.231173 -1.65546e-19)
(1.10417 0.199481 0)
(1.02269 0.0448573 6.40806e-19)
(1.04088 0.0573961 7.99605e-19)
(1.03412 0.0436977 -6.35611e-19)
(1.04305 0.0639657 -5.35773e-19)
(1.01931 0.0718342 -8.19566e-19)
(0.987776 0.154663 0)
(0.998855 0.102587 0)
(0.966719 0.0650206 -5.21641e-19)
(0.915564 0.0880971 2.04874e-19)
(1.03821 0.102117 7.40864e-19)
(1.0677 0.119811 -8.74028e-19)
(1.07211 0.152022 7.80625e-19)
(1.02927 0.140766 0)
(1.07378 0.106675 0)
(1.05465 0.0889712 -3.56839e-19)
(1.0446 0.0936925 -6.06501e-19)
(0.580516 1.07617 1.45538e-19)
(0.613115 1.40907 -4.71734e-20)
(1.15747 2.74014 -2.35705e-19)
(1.22408 3.08104 3.18808e-21)
(1.24953 2.72214 -1.51195e-19)
(1.27958 2.70587 -2.14873e-20)
(1.20761 2.34602 -1.01841e-20)
(1.21133 2.9851 -9.99543e-20)
(1.23065 2.95038 2.45065e-19)
(1.21502 3.2345 -1.40952e-19)
(1.37576 2.96636 1.94928e-19)
(1.36615 2.88448 0)
(0.548228 0.841585 -5.10682e-20)
(0.134799 1.25155 5.85759e-19)
(0.534582 0.43936 6.17631e-19)
(0.37321 0.190321 6.81233e-19)
(0.523841 0.371068 7.37636e-19)
(0.54682 0.470041 -1.18579e-18)
(0.548247 0.470992 9.68221e-19)
(0.494782 0.389212 -3.72955e-19)
(0.413182 0.32099 8.45182e-19)
(0.737841 0.248307 -3.72475e-19)
(0.701941 0.276325 0)
(0.679368 0.198527 8.99098e-21)
(0.732224 0.50703 3.92225e-19)
(0.70446 0.477215 -1.4301e-18)
(0.616089 0.468025 1.49598e-20)
(0.625513 0.455803 0)
(0.679353 0.729542 4.12988e-19)
(0.833252 0.773213 4.23076e-19)
(0.756428 0.85534 -4.94215e-19)
(0.876933 0.808428 -1.68864e-19)
(0.906601 0.851755 -4.25921e-20)
(0.914347 0.852193 4.36175e-20)
(0.849238 0.644764 -7.32585e-19)
(0.928786 0.702747 1.56894e-19)
(0.983791 0.716528 0)
(0.975175 0.692165 -2.15141e-19)
(1.02239 0.324601 2.28103e-19)
(1.14248 0.294442 3.15126e-19)
(1.06438 0.26465 3.85402e-19)
(1.01092 0.356969 -4.58293e-19)
(1.05777 0.421009 0)
(1.11084 0.406161 0)
(0.915878 0.356697 6.32547e-21)
(0.84079 0.288815 0)
(0.877306 0.284396 4.23799e-19)
(0.907382 0.293841 -4.54648e-21)
(0.945459 0.427622 2.20339e-18)
(0.903528 0.487102 5.70264e-19)
(0.906756 0.450783 -6.04808e-19)
(0.823573 0.434368 6.47877e-19)
(0.806765 0.428853 3.88516e-19)
(0.776791 0.412119 -3.81818e-19)
(1.0272 -0.000520758 6.69406e-19)
(1.02 -0.00013408 0)
(1.01849 0.00079306 4.36246e-19)
(1.02155 -0.00180229 -9.88293e-19)
(1.0223 0.00424598 4.80167e-19)
(1.02041 0.0111374 -1.00555e-18)
(1.02138 0.0105355 0)
(1.02067 0.0108195 -2.09501e-19)
(1.01599 0.00764815 5.25554e-19)
(1.01672 0.010412 -2.62218e-19)
(1.01743 0.00975893 1.93131e-19)
(0.028799 1.31444 0)
(0.0336948 1.35152 0)
(0.0427997 1.31785 0)
(0.0407574 1.27486 0)
(0.0704568 1.37847 1.48676e-20)
(0.0769497 1.35066 2.60392e-21)
(0.111716 1.50921 -2.97567e-20)
(0.094269 1.36016 9.17098e-21)
(0.0341954 1.44988 -3.37839e-20)
(0.0378993 1.44278 2.63901e-20)
(0.0615875 1.36248 -7.93895e-21)
(0.0540884 1.3642 1.75464e-21)
(0.0458407 1.33986 7.74256e-23)
(0.038207 1.3618 -3.02024e-21)
(0.107946 2.37212 -1.82841e-19)
(0.0969862 2.41928 0)
(0.171494 2.04779 1.19787e-19)
(0.110209 1.71043 5.3143e-20)
(0.230002 2.0443 -9.82354e-20)
(0.205063 2.43704 0)
(0.265303 2.38849 -6.29972e-19)
(0.303131 2.38653 4.46917e-19)
(0.230587 2.0042 -2.73154e-19)
(0.154418 2.16502 1.80033e-19)
(0.144498 2.27664 0)
(0.0204362 1.87277 -4.16583e-20)
(-0.000219194 2.39863 -9.26e-20)
(0.00611725 2.15114 0)
(0.0133184 2.45988 -1.40026e-20)
(0.0287887 2.30387 3.26065e-20)
(0.024816 1.39137 -1.15561e-21)
(0.0207958 1.37866 2.36592e-20)
(0.0198831 1.38178 -1.18047e-20)
(0.0254043 1.38043 -2.02666e-21)
(0.0301784 1.41145 0)
(0.01724 1.36199 0)
(0.00247243 1.28458 -1.16016e-20)
(0.0131748 1.35243 2.36376e-21)
(0.0135807 1.35368 0)
(0.0165357 1.28175 -9.01838e-21)
(0.0180758 1.21381 1.90228e-20)
(1.04036 0.0112254 0)
(1.0464 0.00750364 -7.0206e-20)
(1.03855 0.0208119 -5.05914e-19)
(1.04802 0.0197111 0)
(1.05177 0.0195327 0)
(1.03629 0.0112536 -6.6576e-21)
(1.03093 0.0111237 8.12108e-19)
(1.0318 0.016075 9.84983e-19)
(1.02583 0.0200164 0)
(1.02304 0.0204104 0)
(1.03516 0.0244866 5.04699e-19)
(1.02618 0.0258746 0)
(1.02441 0.0259673 0)
(-0.0202237 2.02518 0)
(0.0064036 1.65172 -5.38049e-21)
(-0.00691796 1.76015 -2.09051e-20)
(0.00449275 1.36323 0)
(-0.0119395 1.54816 8.24394e-22)
(0.00543676 1.44985 6.95736e-22)
(0.00246509 1.37157 0)
(0.389521 1.66783 0)
(0.366296 1.29735 -1.06239e-19)
(0.301079 1.3416 0)
(0.419866 1.29567 5.21026e-20)
(0.466322 1.45653 0)
(0.447031 1.40133 3.96125e-21)
(1.03582 2.68729 -1.57307e-20)
(0.965641 2.41125 -9.28145e-19)
(0.915929 2.19247 1.05837e-18)
(0.850048 2.37549 2.46221e-19)
(0.847518 2.49797 0)
(0.917414 2.49432 0)
(0.927689 2.37406 0)
(0.906563 2.36059 -9.56728e-19)
(0.688851 2.46581 -4.10319e-19)
(0.801186 2.45597 -1.0076e-19)
(0.811783 2.42983 7.67917e-20)
(0.694748 2.39128 0)
(0.799646 2.3873 0)
(0.758273 2.39952 -3.73522e-19)
(0.769155 2.48754 0)
(0.615657 1.0991 0)
(0.485578 0.92684 -5.16081e-19)
(0.555215 0.96132 -3.28125e-20)
(0.522115 1.0556 0)
(0.523236 1.00515 7.74902e-19)
(0.779286 0.880205 -1.394e-19)
(0.786906 1.01699 0)
(0.76145 0.977755 2.03478e-19)
(0.647556 1.03529 0)
(0.652363 0.943031 0)
(1.16522 2.76209 -2.40831e-19)
(1.143 2.82553 -1.03653e-19)
(0.932628 2.34553 1.10602e-19)
(0.90024 2.32359 -8.6678e-20)
(1.13011 2.73533 0)
(1.0834 2.70546 1.04346e-19)
(1.09004 2.48777 -3.25439e-19)
(0.983962 2.23621 -3.06086e-20)
(0.496637 1.35288 0)
(0.510504 1.07538 -1.28354e-19)
(0.564785 1.16682 0)
(0.858252 0.225783 0)
(0.785892 0.178536 0)
(0.726455 0.140654 0)
(0.85444 0.230823 -6.67059e-19)
(0.757455 0.214956 3.90929e-19)
(0.931066 0.0747303 -4.23147e-19)
(0.946533 0.120836 0)
(0.926001 0.134316 1.81365e-19)
(0.865373 0.109667 7.27981e-19)
(0.835382 0.0672434 -4.5549e-19)
(1.16179 3.35979 -7.15671e-19)
(1.20978 3.27909 0)
(1.15993 3.38789 -1.47651e-18)
(0.647543 3.54866 1.25418e-18)
(0.872195 3.11605 6.37351e-20)
(0.519083 0.847269 6.15712e-19)
(0.433983 0.843078 0)
(0.335649 0.47617 -1.55905e-19)
(0.455872 0.676801 8.84909e-19)
(0.537677 0.444084 -2.13605e-19)
(0.51019 0.502497 2.44588e-19)
(0.66376 0.526642 5.28944e-19)
(0.694327 0.550437 0)
(0.64778 0.606771 0)
(0.60471 0.547231 0)
(0.991558 0.60079 1.05408e-19)
(0.90757 0.536347 -5.54843e-19)
(0.933441 0.571108 4.2343e-19)
(0.9679 0.506452 -4.28923e-19)
(1.07195 0.478877 0)
(1.07943 0.569183 -1.07857e-19)
(0.846815 0.386787 -8.85976e-19)
(0.849812 0.374895 -1.09501e-18)
(0.795651 0.378166 6.90875e-19)
(0.792753 0.348752 -7.06376e-19)
(0.84244 0.308627 -5.52036e-19)
(0.793942 0.306527 6.77568e-19)
(1.02669 0.00568717 -5.13402e-19)
(1.02641 0.00591521 1.0467e-18)
(1.02933 -0.000121163 6.49093e-19)
(1.03337 0.000756559 -7.81851e-19)
(1.03356 0.00859039 0)
(1.03007 0.00917918 -1.27115e-18)
(0.0651165 1.6443 2.89969e-20)
(0.0456871 1.57439 0)
(0.0877585 1.69629 1.79707e-19)
(0.0974539 1.67727 -1.5977e-19)
(0.0890441 1.52706 5.58252e-20)
(0.0867923 1.50897 0)
(0.0152983 1.67662 0)
(0.00305686 1.47868 -2.5414e-21)
(0.00345361 1.42152 2.2881e-21)
(-0.00447365 1.54067 4.70491e-21)
(0.00292502 1.88299 -5.55097e-21)
(-0.0117453 1.93627 5.81276e-21)
(0.495741 1.37128 -2.9623e-19)
(0.489537 1.37451 3.24742e-19)
(0.444494 1.29267 -5.21124e-20)
(0.433665 1.29183 9.08114e-21)
(0.626419 1.29902 0)
(0.543995 1.38702 8.00999e-20)
(0.559458 1.39539 -7.79695e-20)
(0.455248 1.27858 5.06661e-20)
(0.509681 1.23362 0)
(0.562175 1.20028 0)
(0.655233 2.42449 6.02919e-19)
(0.669626 2.46133 1.29912e-18)
(0.715716 2.47333 -8.94972e-19)
(0.6148 2.44837 -2.09877e-19)
(0.560018 2.541 2.92969e-19)
(0.509676 2.51437 -7.80864e-19)
(0.976391 2.38068 -5.92445e-19)
(1.01255 2.39429 0)
(0.922479 2.17064 -6.861e-19)
(1.05356 2.68473 0)
(1.05577 2.6715 0)
(0.612095 2.27303 -1.23211e-19)
(1.04275 3.16268 1.29422e-19)
(0.9137 3.03266 -3.28711e-20)
(0.280103 0.905405 0)
(0.318983 0.763865 -3.2507e-19)
(0.480407 0.720975 -3.27945e-19)
(0.389522 2.01958 0)
(0.466969 2.78474 -4.43677e-20)
(0.423174 2.54846 0)
(0.695188 0.677152 -8.7585e-19)
(0.77778 0.678389 1.19428e-18)
(0.798354 0.621151 -1.18259e-18)
(0.675721 0.63997 -1.13295e-19)
(0.731087 0.592899 -4.69272e-19)
(1.00522 2.76558 -9.84132e-20)
(1.04268 2.82282 -1.74151e-19)
(0.640487 2.14876 6.78612e-19)
(0.597209 1.71447 -4.82975e-19)
(0.70052 1.90742 -4.16062e-19)
(0.990881 2.449 -1.1491e-19)
(0.995776 2.44257 3.07725e-19)
(0.661428 1.84609 2.87892e-20)
(0.452928 1.33475 1.49895e-19)
)
;

boundaryField
{
    wall-4
    {
        type            noSlip;
    }
    velocity-inlet-5
    {
        type            fixedValue;
        value           uniform (1 0 0);
    }
    velocity-inlet-6
    {
        type            fixedValue;
        value           uniform (0 3 0);
    }
    pressure-outlet-7
    {
        type            zeroGradient;
    }
    wall-8
    {
        type            noSlip;
    }
    frontAndBackPlanes
    {
        type            empty;
    }
}


// ************************************************************************* //
