/*--------------------------------*- C++ -*----------------------------------*\
  =========                 |
  \\      /  F ield         | OpenFOAM: The Open Source CFD Toolbox
   \\    /   O peration     | Website:  https://openfoam.org
    \\  /    A nd           | Version:  9
     \\/     M anipulation  |
\*---------------------------------------------------------------------------*/
FoamFile
{
    format      ascii;
    class       volScalarField;
    location    "0.5";
    object      p;
}
// * * * * * * * * * * * * * * * * * * * * * * * * * * * * * * * * * * * * * //

dimensions      [0 2 -2 0 0 0 0];

internalField   nonuniform List<scalar> 
400
(
4.41157e-06
-0.0058224
-0.0129601
-0.0184125
-0.02043
-0.0182363
-0.0117718
-0.00148167
0.0118393
0.027151
0.0432462
0.0588248
0.0725805
0.0833104
0.0900547
0.0922689
0.0900278
0.0842458
0.0768827
0.0710692
0.00578349
-0.000215558
-0.00580144
-0.0095402
-0.0105968
-0.00843062
-0.00296789
0.00547615
0.0163048
0.0287136
0.0417516
0.0543877
0.0655883
0.0744119
0.0801223
0.0823178
0.0810793
0.0770569
0.0712762
0.06532
0.0133377
0.00503618
-0.000992867
-0.00442079
-0.00527077
-0.00326193
0.00160426
0.00902949
0.018504
0.0293512
0.0407673
0.0518714
0.0617703
0.0696383
0.074809
0.0768801
0.0758437
0.072088
0.0658076
0.0575376
0.0201418
0.00869832
0.00122822
-0.00266622
-0.00371995
-0.00188333
0.00273312
0.00978637
0.0187822
0.0290969
0.0399939
0.0506559
0.0602348
0.0679178
0.0730051
0.0750035
0.0737679
0.0694582
0.0616051
0.0501047
0.0245043
0.00977537
0.000592059
-0.00398461
-0.00529999
-0.00350526
0.00117662
0.00833633
0.0174637
0.0279509
0.0390869
0.0500718
0.0600508
0.0681669
0.0736283
0.0757997
0.074371
0.0692919
0.0595277
0.0445393
0.0251802
0.00715226
-0.0037998
-0.00905493
-0.0105098
-0.00849775
-0.00335475
0.0044313
0.0143151
0.0256808
0.0378157
0.0499052
0.0610501
0.0703051
0.0767366
0.0795188
0.0781409
0.0723356
0.0605414
0.0418922
0.0210958
-0.000260101
-0.0129323
-0.0187071
-0.0200275
-0.0174116
-0.0113161
-0.00231759
0.00899238
0.0219781
0.0359115
0.0499463
0.0631142
0.0743473
0.0825239
0.0865715
0.0857227
0.0794492
0.0656225
0.0430739
0.0111452
-0.0136159
-0.0278728
-0.033852
-0.0346012
-0.0308551
-0.0232104
-0.0123428
0.00110705
0.016486
0.0330545
0.0499356
0.0660854
0.080292
0.0912028
0.0974321
0.0978724
0.0916382
0.0758985
0.0491187
-0.00596474
-0.034264
-0.0498677
-0.0555463
-0.0550878
-0.0495122
-0.039591
-0.0261108
-0.00975466
0.00882532
0.0289032
0.0495956
0.0697997
0.0881567
0.10305
0.112703
0.115553
0.110194
0.0928365
0.0614137
-0.0318547
-0.0638736
-0.0804144
-0.0850047
-0.0824177
-0.0740759
-0.0609784
-0.044034
-0.0239489
-0.00133434
0.023148
0.0486634
0.0740979
0.0979745
0.118398
0.133128
0.139991
0.13682
0.118443
0.0819361
-0.0686648
-0.104601
-0.121342
-0.123587
-0.117513
-0.105124
-0.0877157
-0.0663229
-0.0416343
-0.0141529
0.0156082
0.0469558
0.0788583
0.109796
0.137626
0.159588
0.172729
0.173781
0.155523
0.113573
-0.1194
-0.159354
-0.174912
-0.172754
-0.161145
-0.142926
-0.119756
-0.0927743
-0.0625746
-0.0294448
0.00637599
0.0444763
0.0840579
0.123706
0.161139
0.193089
0.215671
0.224079
0.208053
0.160635
-0.188625
-0.232239
-0.243936
-0.233945
-0.213691
-0.187151
-0.156369
-0.122498
-0.0858949
-0.0464691
-0.00401138
0.0415419
0.0898452
0.139832
0.189322
0.234692
0.271077
0.291667
0.281745
0.229778
-0.283971
-0.329301
-0.331828
-0.308277
-0.274705
-0.236436
-0.195761
-0.153607
-0.109837
-0.0637418
-0.0144345
0.0388668
0.0965576
0.15828
0.222377
0.285291
0.3414
0.381578
0.384917
0.331837
-0.419315
-0.459667
-0.442347
-0.395789
-0.342125
-0.287736
-0.234612
-0.182926
-0.131605
-0.0789811
-0.0232102
0.0374791
0.104557
0.178841
0.259865
0.344974
0.42862
0.499703
0.529678
0.485395
-0.620527
-0.63674
-0.578673
-0.494189
-0.411237
-0.335654
-0.267776
-0.205973
-0.147532
-0.0893786
-0.0284217
0.0383526
0.113811
0.200476
0.299979
0.412029
0.533033
0.651779
0.732775
0.722399
-0.935919
-0.87851
-0.741737
-0.597944
-0.474389
-0.372655
-0.288864
-0.217758
-0.153949
-0.0924592
-0.0287126
0.0417003
0.123268
0.220723
0.33893
0.482159
0.652001
0.841346
1.01528
1.09751
-1.47642
-1.20663
-0.920499
-0.691383
-0.5173
-0.387539
-0.290057
-0.213333
-0.148119
-0.0872107
-0.0245728
0.0454623
0.128942
0.233076
0.367108
0.542683
0.771297
1.05932
1.40329
1.73015
-2.53964
-1.63054
-1.04443
-0.710954
-0.495746
-0.352089
-0.254526
-0.183579
-0.126165
-0.0735904
-0.0192643
0.0427917
0.119217
0.218787
0.354817
0.547988
0.826397
1.23659
1.91168
2.9242
-4.36666
-2.04463
-0.973538
-0.563176
-0.357842
-0.240142
-0.170115
-0.123779
-0.0874767
-0.0535056
-0.0166497
0.0276655
0.0846123
0.161734
0.272416
0.442104
0.718223
1.22571
2.41104
4.84854
)
;

boundaryField
{
    movingWall
    {
        type            zeroGradient;
    }
    fixedWalls
    {
        type            zeroGradient;
    }
    frontAndBack
    {
        type            empty;
    }
}


// ************************************************************************* //
