/*--------------------------------*- C++ -*----------------------------------*\
  =========                 |
  \\      /  F ield         | OpenFOAM: The Open Source CFD Toolbox
   \\    /   O peration     | Website:  https://openfoam.org
    \\  /    A nd           | Version:  9
     \\/     M anipulation  |
\*---------------------------------------------------------------------------*/
FoamFile
{
    format      ascii;
    class       volScalarField;
    location    "25";
    object      p;
}
// * * * * * * * * * * * * * * * * * * * * * * * * * * * * * * * * * * * * * //

dimensions      [0 2 -2 0 0 0 0];

internalField   nonuniform List<scalar> 
918
(
0.23002
0.90248
0.0301116
0.229339
-0.00341285
0.869582
-0.830733
0.406027
0.210111
-0.411961
-0.425561
0.201564
0.729986
0.496816
-1.45661
-0.133004
0.360213
-0.707371
0.209092
-0.0270254
0.461498
0.216744
0.219786
0.21038
0.271548
0.482649
0.610551
0.0200312
0.0133085
0.00630662
-0.00867017
-0.0370074
-0.0466092
0.753221
0.804315
0.826979
0.178982
0.00508263
-0.684796
-0.758738
-0.747265
-0.87699
0.397734
0.402278
-0.491837
0.406678
0.419239
0.197511
0.209444
0.210374
0.211504
0.210415
0.211823
0.102982
-0.418112
-0.455003
-0.396173
-0.39326
-0.214039
-0.445885
-0.434974
-0.409711
-0.368645
0.132891
0.198689
0.195561
0.206138
0.21438
0.842028
0.813932
0.840074
0.753752
0.770278
0.707947
0.680495
0.517033
0.538358
0.4821
0.471829
-1.8997
-2.87284
-0.855156
-0.597765
-0.00393092
-0.167946
-0.196224
0.349443
0.352747
0.35894
0.372985
0.756078
-0.701174
-0.845476
0.209163
0.207966
0.216489
0.217179
0.213187
0.212287
-0.0486828
-0.0907863
-0.00799993
-0.013642
-0.0174629
0.446319
0.441061
0.210941
0.207985
0.222017
0.244676
0.234022
-0.0256077
0.27959
0.298639
0.2964
0.469337
0.464661
0.473077
0.583996
0.547131
0.647961
0.671158
0.00963712
0.00746356
-0.117659
-0.0617078
-0.0808926
0.175142
0.168272
0.19314
0.182261
0.1845
-0.0793138
-0.215458
0.0903963
0.113291
-0.593771
-0.659204
-0.766278
-0.780614
-0.888463
0.246059
0.388637
0.39095
-0.508525
-0.427757
-0.569642
-0.353915
-0.420328
0.187901
0.194847
0.189883
0.205192
0.199733
0.201677
0.213742
0.210815
0.212365
0.167123
0.288458
0.0361152
0.0134533
-0.565901
-0.468779
-0.554297
-0.380949
-0.385613
-0.211147
-0.183276
-0.229625
-0.234966
-0.394036
-0.422881
-0.404403
-0.33302
-0.276126
0.125759
0.115724
0.144008
0.150755
0.190371
0.191517
0.193487
0.192446
0.631262
0.653535
0.661112
0.634957
-3.88497
-6.71063
-0.264509
-0.122945
0.00172151
0.00326937
0.00221248
0.00264422
0.000305454
-0.00767355
-0.280325
-0.277591
-0.233839
-0.255504
0.334494
0.335974
0.672242
0.663437
0.657385
0.609924
0.197304
0.199467
0.204978
0.20083
-0.226952
-0.134541
-0.174062
0.416522
0.431041
0.428648
-0.0611272
-0.146421
0.0204782
0.0476289
0.320696
0.303662
0.320135
0.358238
0.395319
0.678594
0.696929
0.69517
0.703714
0.747806
0.764262
0.729511
0.156019
0.165516
0.16057
0.196472
0.194019
0.195089
0.190175
0.191804
0.189394
-0.36925
-0.756595
0.171682
0.193753
0.158846
0.175297
0.323448
0.396663
0.370089
0.38133
0.382668
-0.28727
-0.349076
-0.0351546
-0.0781347
0.0724935
0.104787
0.0874551
0.602274
0.562992
0.612911
0.58629
0.547836
0.573261
-0.708308
-2.23703
-1.33977
0.237613
0.0455152
0.135363
-0.240312
-0.275235
-0.269601
0.648562
0.729621
0.345251
0.506447
0.51865
0.435961
0.466961
0.520058
0.445595
0.480102
0.515619
0.497703
0.205753
0.180841
0.175226
0.467604
0.52317
-0.173898
-0.226112
-0.275509
-0.176958
-0.135774
-0.143594
0.697895
0.58434
0.6602
0.207712
0.208395
0.00397087
-0.00128799
0.212504
0.212585
-0.00571183
-0.0223151
0.117671
-1.16634
-0.185389
0.20088
0.191372
0.208052
-0.402205
0.0640618
-0.460714
-0.256106
-0.304158
0.198781
0.142029
0.107225
0.00971349
-0.106447
-0.0716358
-0.518693
0.205361
0.203698
0.207548
0.208582
0.209224
0.00156673
-0.00561536
0.00110852
-0.0552884
-0.0184725
-0.0192252
0.173349
0.189616
-0.480333
0.207733
0.209842
0.209689
0.202711
0.208531
0.206638
-0.0742719
-0.0439527
-0.0960464
-0.0749062
0.0413601
0.370301
0.471337
0.330828
0.102064
-0.140339
0.267255
0.334928
0.234389
0.397288
0.377969
0.39569
-0.124683
-0.271843
-0.116971
-0.171144
0.198877
0.19751
0.189589
0.186729
0.20296
0.200992
0.205662
0.202468
0.2055
0.206903
-0.355055
-0.384687
-0.395647
-0.459892
0.0238772
0.279671
-0.044828
-0.0125908
-0.150572
-0.490553
-0.425101
-0.458477
-0.432058
-0.452374
-0.313757
-0.282459
-0.251214
-0.330924
-0.377005
-0.50018
-0.39917
-0.411091
0.192982
0.191906
0.198106
0.205085
0.151013
0.154328
0.123422
0.141519
0.12702
0.0734887
0.106547
0.0829068
-0.00017001
0.0107615
0.00448563
-0.118879
-0.222839
-0.0458451
-0.0116484
-0.0109433
-0.0232875
-0.0310451
-0.114559
-0.140814
-0.478949
-0.59677
0.654609
0.602867
-0.202688
0.19457
0.201
0.197804
0.202519
0.205615
0.20647
0.204251
0.200881
0.190314
0.192187
0.188216
0.188635
-0.423484
-0.558095
-0.380808
-0.447503
-0.189351
0.310672
0.0540696
-0.00519106
-0.00984931
0.204828
0.607816
0.409933
0.420879
0.445792
-0.665772
-0.264782
-0.597154
0.0244395
-0.154844
0.366977
0.419231
0.44323
0.388806
0.338692
-0.442252
0.215026
-0.366308
-0.323178
-0.133803
-0.236452
0.410592
0.362173
0.369292
0.383544
0.403212
0.36679
0.345426
0.342965
0.378711
0.383731
0.177585
-0.0428497
-0.0879043
-0.124643
0.343073
0.218172
0.273978
0.190844
0.193677
0.196555
0.195088
0.178169
0.185278
0.181193
0.186414
0.189388
0.198787
0.19924
0.194456
0.19691
-0.370966
-0.374006
-0.332751
-0.442852
-0.435907
-0.482044
-0.375109
-0.241078
-0.275946
-0.0871243
0.0257892
-0.270534
-0.382855
-0.349956
-0.322955
-0.139979
-0.119451
-0.212037
-0.132425
-0.12262
-0.144177
-0.0427905
-0.0419216
-0.478011
-0.438403
-0.414435
-0.458939
-0.298369
-0.199915
-0.190071
-0.485077
-0.589421
-0.407728
-0.33656
-0.335692
-0.376645
-0.39532
-0.308532
-0.102408
-0.11925
-0.181551
-0.403493
-0.311143
-0.357755
0.188487
0.189952
0.190023
0.20117
0.212644
0.227782
0.194028
0.171237
0.16294
0.166043
0.141361
0.150909
0.146144
0.159006
0.178313
0.184966
0.184718
0.186751
0.171443
0.172615
0.160741
0.163824
0.141599
0.124776
0.113939
-0.0502909
-0.0309367
-0.047343
-0.0631083
-0.00980527
-0.0272209
-0.311158
-0.207558
-0.265159
-0.228733
-0.344466
-0.0487178
-0.0666723
-0.392034
-0.316282
-0.507353
-0.536228
-0.607166
0.56565
0.672524
0.49518
0.281048
0.284641
0.509445
0.606765
0.244912
0.414804
0.445958
0.216731
0.488518
0.199502
0.19895
0.196498
0.196009
0.197559
-0.340465
-0.241364
-0.222336
-0.174709
-0.0588313
0.0568233
-0.0362421
-0.162627
-0.0223164
-0.0113278
0.305733
0.322319
0.266642
0.291886
0.291116
0.117903
0.193049
0.248146
0.203106
0.246939
0.268941
0.229683
0.259428
0.207613
0.165674
0.164572
0.111355
0.131764
0.109686
0.0918202
0.189414
0.168405
0.178011
0.170027
0.189698
0.217462
0.212815
0.238589
0.250662
0.174973
0.137434
0.146217
0.173168
0.135687
0.148434
0.162829
-0.119026
-0.217785
-0.1304
-0.424076
-0.334826
-0.350335
-0.396225
-0.35741
-0.0704442
-0.773442
-0.741947
-1.37983
0.151084
0.633838
0.367686
0.340602
0.401012
0.377912
0.38182
0.409759
0.416251
0.333337
0.353366
0.35515
0.305427
0.332266
0.357911
0.35572
0.186588
0.069397
0.0608254
0.0224222
-0.0986278
-0.0679675
0.133609
0.0564223
-0.0151532
-0.010429
0.153089
0.0448384
0.10935
0.14706
0.0813181
0.0383317
0.234505
0.302357
0.293002
0.267808
0.182758
0.194196
0.220949
0.25736
0.283631
0.318802
0.186349
0.19181
0.193065
0.190652
0.188173
0.19092
0.190838
0.193367
0.194338
0.197292
0.196173
-0.405193
-0.391433
-0.360587
-0.384976
-0.319875
-0.323439
-0.281144
-0.293743
-0.323686
-0.311781
-0.341472
-0.355008
-0.361343
-0.350525
-0.199157
-0.191972
-0.222746
-0.252093
-0.0661867
0.0630619
0.124299
0.0117518
-0.093598
-0.0749718
-0.0415994
-0.321084
-0.331729
-0.368879
-0.274563
-0.262699
-0.495398
-0.459486
-0.463394
-0.594738
-0.511368
-0.369937
-0.195038
-0.23693
-0.287887
-0.28317
-0.225128
0.173083
0.167141
0.168892
0.163447
0.162406
0.175384
0.17936
0.18104
0.18557
0.18706
0.179169
0.183278
0.186552
-0.241739
-0.112461
-0.16217
-0.216531
-0.145178
-0.0996428
-0.130898
-0.215186
-0.28092
-0.272276
-0.320872
-0.441858
-0.385596
0.137051
0.126831
0.145842
0.362171
0.21722
0.132876
0.220485
0.324515
-0.0719205
0.129439
-0.0402657
0.539445
0.42705
0.569007
0.201662
-0.102712
0.0480789
0.103322
-0.095964
-0.0243196
0.000149317
-0.110185
-0.0801796
-0.051763
0.0499498
-0.0735224
-0.103199
-0.349485
-0.166414
-0.0347541
-0.0570391
0.0766414
0.14119
-0.0887009
-0.165151
-0.206499
0.296014
0.316912
0.335606
0.305047
0.328617
0.252101
0.242703
0.261551
0.271556
0.265296
-1.10879
-0.818216
-1.7588
-1.06555
-0.620027
0.185147
0.138447
0.43208
0.318409
0.396015
0.377825
0.333732
0.297515
0.307135
0.343434
0.0458606
0.153852
0.128225
0.135864
0.0401172
-0.0274537
0.271126
0.26456
0.301902
0.326469
0.292792
0.326989
0.184337
0.183884
0.183208
0.179998
0.178224
0.180463
-0.240297
-0.277046
-0.236027
-0.249535
-0.269534
-0.28958
-0.381973
-0.360749
-0.2818
-0.272564
-0.282598
-0.339982
-0.182826
-0.238327
-0.305508
-0.279721
-0.334481
-0.399322
-0.418195
-0.320062
-0.233437
-0.239702
0.0636493
0.315085
0.141257
0.311455
0.149821
0.207394
0.145783
0.143586
0.177563
0.0400144
0.11425
-0.128385
-0.630073
-0.537008
0.443579
0.464101
0.251669
0.058218
-0.168508
0.027208
0.21618
0.154781
0.195291
0.262844
0.256835
-0.340434
-0.266378
-0.0295209
0.197564
-0.111302
-0.118243
-0.123
0.0408987
-0.0298071
)
;

boundaryField
{
    wall-4
    {
        type            zeroGradient;
    }
    velocity-inlet-5
    {
        type            zeroGradient;
    }
    velocity-inlet-6
    {
        type            zeroGradient;
    }
    pressure-outlet-7
    {
        type            fixedValue;
        value           uniform 0;
    }
    wall-8
    {
        type            zeroGradient;
    }
    frontAndBackPlanes
    {
        type            empty;
    }
}


// ************************************************************************* //
