/*--------------------------------*- C++ -*----------------------------------*\
  =========                 |
  \\      /  F ield         | OpenFOAM: The Open Source CFD Toolbox
   \\    /   O peration     | Website:  https://openfoam.org
    \\  /    A nd           | Version:  9
     \\/     M anipulation  |
\*---------------------------------------------------------------------------*/
FoamFile
{
    format      ascii;
    class       surfaceScalarField;
    location    "25";
    object      phi;
}
// * * * * * * * * * * * * * * * * * * * * * * * * * * * * * * * * * * * * * //

dimensions      [0 3 -1 0 0 0 0];

internalField   nonuniform List<scalar> 
1300
(
3.75095
5.62643
-5.73399
3.75095
-5.65383
5.62643
-4.49752
4.49752
-1.14889
1.14889
1.87647
1.87448
-2.9468
2.9468
-2.29267
2.29267
-2.57028
2.57028
-5.24648
5.24648
-5.06883
5.06883
4.67834
-4.67834
-4.35305
4.35305
-1.57442
1.57442
-3.92935
3.92935
3.17024
-3.17024
-3.93327
3.93327
-0.350277
0.350277
-0.553543
4.3045
3.19741
3.19741
-2.22954
2.22954
-4.85886
4.85886
6.21824
-6.21824
8.6277
-8.6277
-2.89371
-3.39026
1.38098
-8.65646
-4.27284
-4.27284
-8.4404
8.4404
-2.81397
2.81246
2.94209
-2.94209
-1.77873
1.77873
-4.42516
-0.0723617
-4.42516
4.50566
-0.00813823
4.50566
-1.28298
0.134086
-1.28298
3.98243
-3.98243
0.975669
0.173222
0.975669
3.06439
-3.06439
-1.87715
3.75362
1.87381
-1.87179
6.17628
-1.87917
3.75365
-5.87197
5.87197
-3.18995
0.243151
-3.18995
2.71966
0.227141
2.71966
-6.387
6.387
-2.2512
-0.0414642
-2.2512
2.53381
-0.241148
2.53381
2.84798
-2.84798
-2.65655
0.0862686
-2.65655
2.4963
0.0739721
2.4963
0.353552
5.27288
-5.97998
8.79245
-5.27288
0.0264021
5.20846
0.0380149
5.20846
-5.10619
0.0373672
-5.10619
5.01043
0.0583962
5.01043
4.77342
-0.0950773
4.77342
-4.79086
0.112517
-4.79086
-3.17391
-3.84089
-4.35247
-0.000588038
-4.35247
-1.58706
0.012643
-1.58706
1.53563
0.0387901
1.53563
-3.52003
3.52003
-4.30267
0.373325
-4.30267
3.12487
0.0453738
3.12487
1.8685
1.88245
5.61946
-5.61946
2.44921
-3.57457
-0.358694
-3.57457
-4.25365
-4.37405
4.25365
-0.320387
-0.620644
0.270367
-0.620644
3.15918
0.0382357
3.15918
2.40201
0.0942943
-2.40201
0.172468
3.26679
-3.26679
1.60767
0.62187
1.60767
-5.56786
5.56786
4.95198
0.0584472
-4.95198
0.0931272
6.15737
0.0608636
6.15737
-6.1996
-0.0186336
-6.1996
3.06787
-6.45813
-3.61182
4.32432
0.0287362
-4.32432
0.0514728
2.91219
0.0299031
2.91219
-2.92354
2.92354
-2.98235
0.0402632
-2.98235
-2.18832
0.409595
-2.18832
1.4682
0.310524
1.4682
-4.29351
-0.131653
-4.29351
-4.44059
0.137916
4.44059
0.0650765
1.00459
-1.00459
-1.42549
0.142516
-1.42549
-4.12489
-0.168616
4.12489
-0.142468
-3.87291
-0.109511
-3.87291
-3.02298
0.0406259
3.02298
0.0414139
3.11239
0.0467823
-3.11239
0.0479992
-1.87083
3.75328
-1.88012
3.75393
-5.49746
-0.374518
-5.49746
6.17844
-0.306464
6.17844
3.55737
0.371974
-3.55737
0.367423
2.54816
0.171494
2.54816
-6.5337
0.146699
-6.5337
5.96844
0.418563
5.96844
2.39023
0.157934
-2.39023
0.139026
2.80275
-0.26894
2.80275
2.86328
-0.0152991
2.86328
-2.85534
0.00735732
-2.85534
2.80448
-2.80448
2.73502
0.0694576
-2.73502
0.0784724
-11.1328
11.1142
-0.035139
-11.0977
5.17332
5.17332
4.2056
0.567823
4.2056
-5.00338
0.212518
-5.00338
3.02434
-6.63616
3.76078
-6.93469
3.77369
-12.4301
3.31279
-7.15367
4.87404
-4.87404
4.48555
0.38849
-4.48555
0.13308
-1.60565
0.0185859
-1.60565
-2.90485
-0.615178
-2.90485
4.1817
-0.661671
4.1817
-3.02993
3.02993
-3.07841
0.0484779
3.07841
0.0464653
3.20751
-0.404755
-3.20751
-0.367063
0.797665
0.178004
-0.797665
0.177021
3.48504
-0.218252
3.48504
-3.06391
-0.202883
-3.06391
-1.61139
0.00573802
1.61139
-0.00371437
-5.81624
0.248371
-5.81624
-11.1907
0.0930159
-11.1527
-6.10659
-6.10659
2.33381
11.1263
-2.88307
0.0277287
2.88307
0.0291184
2.97782
0.0521121
-2.97782
0.0542715
-2.86626
0.0617862
2.86626
0.0572829
-2.5712
0.382882
-2.5712
-1.04755
1.04755
-1.24021
0.192657
1.24021
0.227996
1.24347
-0.238882
1.24347
1.50262
0.0330041
-1.50262
0.0771326
-3.77328
-0.0996333
-3.77328
6.42148
-0.243044
6.42148
-2.934
-0.129903
2.934
-0.0707197
-0.03329
11.1474
-5.14003
0.0338377
5.14003
-11.2083
11.2422
-3.24915
0.67795
3.24915
0.956446
5.29166
0.276202
-5.29166
0.288283
5.39749
0.570946
-5.39749
0.523454
-2.40888
-0.495969
-2.40888
-4.91433
-0.583129
4.91433
-0.73263
-11.4753
-0.203782
11.6791
-11.4169
6.02002
0.137357
-6.02002
11.3795
-0.951584
-0.0530007
0.951584
0.0959655
1.5537
-0.31023
1.5537
3.67251
-0.187469
-3.67251
-0.100771
-6.56066
0.0269584
6.56066
-0.139173
-1.9636
-0.445278
1.9636
-0.409905
-4.26667
4.30491
1.90961
-2.77335
-3.68478
-7.1474
1.85185
1.90143
4.30106
-7.84369
-4.58645
-7.79222
7.26942
-6.98113
-9.29005
9.19497
7.55227
-7.66178
-5.78465
5.83111
6.48196
-6.44055
1.87902
1.8746
7.94449
-7.70134
-15.6378
15.2633
5.91867
-5.96013
16.0947
-15.948
-17.9112
18.4821
-5.7478
5.83406
-6.6758
6.68316
-6.8641
6.79338
-2.57661
-4.35808
11.0297
-11.0303
9.42361
-9.7823
-8.50688
8.88021
3.38265
0.922256
3.42944
-1.88237
3.76138
-1.87128
3.78089
3.84341
-6.42002
2.79275
-6.47753
5.39101
4.0326
-5.07062
-2.07678
-5.91874
5.94864
-5.82168
5.87896
8.89755
-8.96992
-1.88517
3.75977
-1.86876
3.77019
-3.42535
-2.3593
3.37998
0.92109
6.52619
4.50347
-6.55493
-1.23729
-7.76944
7.58197
-8.05179
7.84891
-0.44741
5.82148
-5.37407
4.41145
-1.55477
7.37624
5.71465
5.92717
5.86698
-5.59078
1.11415
-6.48822
-6.39509
-2.54483
2.68735
2.52128
-2.34806
5.92637
1.62591
5.7839
-5.53731
-2.12447
-5.63694
3.82137
2.00974
3.86985
4.07578
2.40618
4.1164
3.03124
-3.035
0.00376026
-3.05675
6.08799
0.72477
-5.41605
-4.49496
4.92438
3.02011
5.15152
-5.50148
-2.19986
-5.13405
-9.52016
-6.11762
-10.1033
10.0979
5.16536
9.79144
-11.9368
11.7976
3.77163
2.14704
3.53048
-4.04248
-1.91766
-3.90345
13.0534
-3.50468
-9.54868
-10.6237
-7.28747
10.2051
5.88956
10.63
7.85208
11.1535
4.73605
8.31731
-10.6256
3.33815
-3.87413
-1.87367
-3.79566
3.72599
2.10807
3.79996
-4.20112
-2.47468
-4.17339
-4.23904
-2.62506
4.25434
2.42882
-4.31935
-3.73244
4.44925
2.34413
3.70858
-8.29503
3.4451
-7.80318
-8.20478
-2.82547
-8.0717
5.00024
1.56149
-6.56173
-1.41977
9.97408
-5.94148
7.8973
-5.04814
-4.73416
-5.4152
-6.80547
-1.70141
-6.66756
-8.84162
8.34565
-9.15853
8.49686
12.737
-5.71686
-7.02012
-3.96828
-2.47226
3.92029
-0.490849
-3.71222
3.71598
0.0491615
3.83005
4.7523
4.26146
-3.886
-1.93568
-3.83173
3.83343
2.04553
3.89522
6.7347
2.16285
6.72656
-6.40744
-2.56248
-6.53909
9.10581
-8.69621
2.95922
-2.95348
5.24626
2.60265
-5.02801
-2.74143
6.0996
-3.05511
-3.04449
-12.2129
10.5744
1.63852
-4.83669
-0.425242
-0.0749644
-5.50648
-3.78357
5.39397
0.533201
11.1076
7.32404
-5.51286
5.76123
6.16619
6.22464
-0.170451
5.85764
-5.17969
5.35662
-2.46669
-2.88993
5.27924
-5.44786
-1.25985
-5.27142
4.01158
0.336041
1.78329
-1.51293
-2.03577
-0.509064
-1.95864
1.50103
1.02024
1.67904
0.993432
1.69392
-2.92307
0.520054
2.40301
-1.92963
-1.828
-3.66827
-1.02636
4.69462
5.52917
2.0528
-5.4284
-0.208545
2.74082
-2.70203
-0.799394
-2.86887
2.10124
-2.90064
-3.53293
-1.90806
5.44098
-3.37035
-0.461374
3.31824
0.55161
-3.82476
-2.09398
3.78449
0.331909
-3.12421
6.18876
-3.06455
-5.05989
2.5295
3.55849
4.53924
-4.79013
2.44592
2.34421
-1.23164
4.02717
1.12435
4.19866
-6.76136
4.56149
5.72257
3.15764
-6.09455
0.960495
-5.80086
8.46965
-7.30498
-1.16467
4.12949
4.34017
7.18857
5.5484
-5.73699
12.9256
-1.1341
-6.17088
6.93496
-3.77733
4.77394
-8.55126
-10.3223
4.15146
-9.16297
11.0221
-1.8591
-3.60597
-8.33081
12.7689
-1.21758
-11.5514
8.57386
-4.19322
-4.57373
8.76696
-7.6979
6.49139
-1.32622
-5.16517
-10.211
-5.73701
10.184
1.61358
-10.942
14.2802
-2.62474
3.43046
0.100023
3.16152
3.27254
-5.92257
2.65004
4.42537
-5.75159
1.64191
-7.56448
-6.77993
11.2705
-4.49061
-9.6054
-9.90134
0.295937
1.80852
12.4717
-9.6606
6.43106
3.22954
3.31012
0.585101
-3.37958
-0.41608
0.32023
4.5425
-4.86273
4.12019
4.21449
3.41602
1.12648
3.83512
2.11352
-3.86424
-0.309151
-4.12984
1.50478
-1.70102
-3.65549
5.16027
-4.08956
0.434069
-2.73229
-3.54927
6.28156
-4.60596
3.04052
3.14824
5.08605
-4.92854
1.37927
-2.4289
-2.49965
2.71029
-4.41131
1.9615
3.19877
4.30563
0.573182
6.22839
5.04215
-7.78988
-0.0132936
9.54562
-8.30833
3.17843
7.97505
-9.60949
-0.291847
-8.36355
-0.025775
-5.91571
-6.58751
5.06928
-6.77069
-3.48199
6.14863
0.57793
-6.21371
-0.45385
-5.99337
-2.84824
-6.43865
-3.06549
-6.09304
-8.80248
-1.63743
-7.16505
6.70822
-6.64885
-3.45444
7.38148
1.11538
-7.38617
7.33317
-7.45919
7.14896
0.094493
3.62149
4.35595
1.88369
-2.38985
4.27354
-5.06597
7.22883
-8.46622
3.40025
3.95075
-6.51323
-4.51547
5.04503
4.06078
5.35555
8.98511
-10.549
1.56393
-10.8745
12.1699
-1.29537
-16.6647
5.79023
-7.6796
2.69707
0.262152
2.71566
0.675146
2.41254
-3.08769
-2.27834
-2.28205
-2.29896
-3.36108
5.66005
1.13124
-3.35403
2.22279
-3.46636
4.5976
-0.0694093
-3.28462
5.24361
-2.83107
5.50576
-3.53577
1.96999
3.26853
5.58358
-2.31505
4.2935
-1.69085
1.80902
-4.12407
-1.55207
-3.01034
5.11841
-3.27123
3.70529
-0.255681
3.96098
-4.04233
0.987226
-0.626316
3.58817
3.76064
4.24449
-3.11801
2.92407
-4.61493
-1.2
-4.04174
-0.842969
-0.322637
-3.76301
4.08565
6.07586
-6.3985
-5.28724
9.606
-4.31876
7.74293
-5.42276
-2.32016
-4.28933
-4.40688
3.90644
1.9512
9.69412
0.209663
-5.63243
-4.97003
-4.01359
3.23097
2.12565
-2.00323
3.64175
2.07819
-0.294899
0.569682
1.10936
1.86945
-1.29977
0.226549
1.6429
-1.28638
2.01431
0.726507
-2.04732
0.0886799
-1.38791
3.48916
1.0151
-2.03535
0.735578
1.00495
-3.47164
4.76517
-2.46762
-2.29755
5.77012
1.14852
-3.61615
4.1229
-3.78686
2.31092
-3.33728
-1.30522
-5.09208
-3.46618
-2.47585
4.69864
-3.18419
5.23699
1.16572
-5.02845
6.19416
-3.55374
1.64568
-3.04012
3.76663
-1.04386
-1.99626
2.75381
2.68717
-2.91547
0.046599
-0.161656
2.29504
-2.4567
-0.605598
-2.53523
-4.57307
4.90498
-2.10665
4.55257
2.16688
-1.9138
6.46637
1.8115
-3.7253
-3.24839
-3.70976
-1.38109
3.15815
-0.0976248
-3.80582
-5.26279
3.64789
0.550771
-7.00386
7.69735
-0.693492
-3.98374
-0.577748
4.70723
-5.76884
0.0172549
-4.12694
3.57041
4.69477
5.24554
-11.417
-0.134381
-6.25162
1.20406
-7.45567
5.54422
-3.61481
7.76627
-10.4261
6.9717
-9.31076
6.6016
-0.854078
6.72012
-4.07008
2.82856
-8.56557
-6.95199
4.89939
-2.75235
4.99941
-3.38986
8.38927
-6.0146
5.44843
2.94085
-1.88561
-3.5296
-4.67559
2.78999
0.772833
3.93435
4.9701
-2.85658
4.66094
2.22505
-4.65394
-2.18626
-6.50448
1.85054
-3.35624
-1.91037
3.7609
3.17568
3.76078
1.26125
-3.3447
8.80105
-8.50512
-4.31044
-2.27707
5.49103
-2.70105
5.15884
-7.4359
-0.756871
4.89426
-0.862168
-4.03209
0.822604
-4.30459
1.65646
-5.96105
5.11423
-5.56808
2.19024
-9.86984
-5.19593
-5.09996
-2.23467
-5.22452
-7.65999
5.42532
-1.86976
5.4634
-8.67801
7.81584
-3.49184
8.91717
-5.40354
-1.03511
5.81345
1.33551
10.2527
0.117685
-4.63316
-1.86629
3.99036
-2.12408
1.36469
-3.64533
0.345037
2.41223
3.3579
-6.4238
-0.0894257
-4.72258
-3.92342
7.9842
5.68258
11.7584
1.20939
9.19446
-1.21026
10.4039
4.14529
4.37329
-3.02155
4.58549
1.06409
4.46434
-0.850812
2.8208
1.86484
1.87749
0.824542
2.29809
1.46255
3.28532
0.197633
-2.08442
4.65105
-8.66463
-0.981379
-8.09681
1.09816
5.73635
-4.63819
3.18974
-1.06409
1.06567
0.0756679
-1.6839
1.60823
-2.81426
-1.9788
-0.3359
-1.61859
2.35416
1.87057
-2.01826
-0.795998
0.318077
-3.78425
3.0192
-2.97261
-0.285436
5.90873
-2.71252
0.255821
-1.06683
-2.27941
-2.78848
2.6998
6.17399
0.292381
3.10944
5.19736
3.10338
0.246797
3.87313
-5.73223
-3.69135
-5.86661
-0.322389
4.38484
3.48481
8.98686
6.42566
3.72461
-3.71129
-12.2164
6.54825
-1.96276
5.25288
-1.22079
-4.74026
4.97128
2.25755
-5.54921
-0.0188694
-4.75913
-6.72189
-0.553442
8.36929
-9.69924
8.66413
5.81588
1.34917
-4.40111
-0.698851
4.20845
0.164839
10.5687
-1.12289
-6.87175
7.99464
-4.61346
3.63208
0.865402
2.77635
2.47364
1.40954
-5.4622
-10.1004
-1.92469
-1.54695
-4.22224
0.472382
-2.34295
6.27525
-2.64317
3.95509
5.35147
6.41714
-2.18034
-4.21816
6.4991
-2.54401
3.87313
)
;

boundaryField
{
    wall-4
    {
        type            calculated;
        value           uniform 0;
    }
    velocity-inlet-5
    {
        type            calculated;
        value           uniform -3.75095;
    }
    velocity-inlet-6
    {
        type            calculated;
        value           uniform -5.62643;
    }
    pressure-outlet-7
    {
        type            calculated;
        value           nonuniform List<scalar> 8(5.73399 5.65383 6.28397 7.27547 7.0148 6.67969 6.78512 7.08648);
    }
    wall-8
    {
        type            calculated;
        value           uniform 0;
    }
    frontAndBackPlanes
    {
        type            empty;
        value           nonuniform List<scalar> 0();
    }
}


// ************************************************************************* //
