/*--------------------------------*- C++ -*----------------------------------*\
  =========                 |
  \\      /  F ield         | OpenFOAM: The Open Source CFD Toolbox
   \\    /   O peration     | Website:  https://openfoam.org
    \\  /    A nd           | Version:  9
     \\/     M anipulation  |
\*---------------------------------------------------------------------------*/
FoamFile
{
    format      ascii;
    class       volVectorField;
    location    "25";
    object      U;
}
// * * * * * * * * * * * * * * * * * * * * * * * * * * * * * * * * * * * * * //

dimensions      [0 1 -1 0 0 0 0];

internalField   nonuniform List<vector> 
918
(
(0.985164 -0.000507442 0)
(0.00500704 2.96625 0)
(-0.0156739 1.52751 0)
(0.979703 0.0021506 0)
(-0.00251973 1.50661 2.85853e-20)
(-0.00703765 2.94879 -1.8457e-18)
(0.846422 1.1871 7.3169e-19)
(0.383897 0.173963 -8.95239e-21)
(0.999907 -0.000289439 0)
(0.0488391 0.850831 0)
(-0.0341523 0.647718 0)
(0.73534 -0.00997861 0)
(0.0111151 2.93038 0)
(0.00175045 2.79499 0)
(-0.0175842 3.16382 1.08259e-18)
(0.0285317 1.31532 1.41255e-19)
(0.487218 0.0737034 5.59302e-19)
(0.191449 1.21732 6.34871e-19)
(0.962939 0.00500511 0)
(-0.0205798 1.12632 0)
(0.11158 0.220734 -4.58168e-19)
(1.00202 -0.00498468 0)
(1.00021 -0.0097981 0)
(0.975711 -0.00645299 0)
(0.636953 -0.0421127 0)
(0.0168852 2.6353 0)
(-0.0151029 2.91016 6.35401e-19)
(-0.0332423 1.52456 0)
(-0.0444833 1.67482 0)
(-0.0236317 1.52054 0)
(-0.0118845 1.94011 0)
(0.0181508 1.53528 -2.25986e-20)
(0.0153581 1.3654 0)
(-0.0206178 2.98759 -6.44584e-23)
(-0.0166983 3.0053 1.43458e-18)
(0.00210172 3.0002 0)
(0.869982 -0.00952913 0)
(0.400538 0.938646 -3.30247e-20)
(0.822058 1.20658 -1.02614e-18)
(0.970718 1.03965 9.6198e-19)
(0.690609 1.30341 -1.69737e-19)
(0.689777 1.29344 9.49276e-19)
(0.423823 0.267974 8.73449e-21)
(0.415897 0.158667 0)
(1.15821 0.559842 0)
(0.385335 0.274045 4.05775e-20)
(0.335739 0.173309 -4.2112e-20)
(0.919587 -0.00749713 0)
(1.00028 0.000154097 0)
(0.99991 0.000347512 0)
(1.00363 -0.00779635 0)
(1.00096 -0.000970392 0)
(1.00017 1.63993e-05 0)
(0.0818825 1.77856 -1.97934e-19)
(0.0352673 0.986827 0)
(0.102439 0.93327 0)
(0.027032 0.930263 0)
(0.0394348 0.779353 0)
(-0.0728733 1.89206 0)
(-0.00460234 0.757404 0)
(0.0060101 0.623172 0)
(-0.0342714 0.790132 0)
(-0.0388494 0.733569 0)
(0.830517 -0.012424 0)
(0.85308 0.021762 0)
(0.765648 0.00233116 0)
(0.833499 0.0241241 0)
(0.717532 -0.0173893 0)
(0.014695 3.0004 6.75208e-19)
(0.0115095 3.00795 0)
(0.00612423 3.00281 0)
(0.0135375 2.99734 7.51967e-24)
(0.00798791 2.95847 -1.00353e-18)
(0.0144931 2.98208 0)
(0.0108289 2.9036 0)
(0.0246272 2.93064 1.33898e-24)
(0.00435824 2.82524 0)
(0.0311193 2.91595 0)
(-0.00575859 2.74434 0)
(0.311417 3.56434 0)
(-0.132278 3.64647 0)
(0.141223 3.25482 -1.0075e-18)
(-0.0117188 2.98766 0)
(-0.0840109 1.8704 0)
(0.0708726 1.48879 -1.39363e-19)
(0.00936404 1.28022 1.96285e-19)
(0.557214 0.156533 -1.92695e-19)
(0.490134 0.0427635 -1.86429e-19)
(0.536486 0.179445 -5.80792e-19)
(0.474723 0.0948134 -3.91088e-19)
(0.219026 0.907414 0)
(0.27062 1.36032 -6.62327e-19)
(0.389953 1.3114 1.08801e-18)
(0.987664 0.00859168 0)
(0.942172 0.00594195 0)
(1.0003 0.000579698 0)
(1.00286 0.00930623 0)
(1.003 0.00843856 -1.08143e-18)
(0.991927 0.00970045 8.16537e-19)
(-0.0477828 1.23364 0)
(-0.0437982 1.0374 0)
(-0.0552857 1.51159 0)
(-0.0389035 1.34667 0)
(-0.0129698 1.22692 0)
(0.165606 0.229493 1.41276e-19)
(0.214658 0.206085 0)
(0.993515 -0.0083769 0)
(0.954358 -0.00644476 0)
(0.798681 0.0286897 0)
(0.76263 0.0393016 0)
(0.691164 -0.0324656 0)
(0.97044 -0.00368374 0)
(0.700218 0.0568386 0)
(0.541152 -0.0200198 7.43089e-19)
(-0.0363044 2.86419 3.20675e-19)
(0.0425092 2.90849 0)
(0.0557366 2.88416 0)
(-0.00538321 2.69808 0)
(-0.0129534 2.98536 5.82499e-19)
(-0.0181179 2.89544 0)
(-0.01533 2.98812 -1.84601e-18)
(-0.0133749 2.92525 6.38053e-19)
(-0.0723454 1.74574 0)
(-0.071967 1.78055 0)
(0.0516956 1.50242 3.19712e-21)
(0.0336789 1.49638 0)
(0.00926034 1.34168 0)
(0.937285 -0.00741465 0)
(0.855357 -0.0092256 0)
(0.864686 0.00759763 0)
(0.948678 -0.00776748 0)
(0.883287 -0.00864258 0)
(0.514107 1.13396 3.03396e-20)
(0.565255 1.18733 0)
(0.361669 0.879539 4.21464e-21)
(0.30433 0.740473 0)
(0.930658 1.07847 -2.78435e-19)
(1.04422 0.878229 5.70071e-19)
(0.384074 1.39997 0)
(0.544682 1.37074 0)
(0.547456 1.3311 0)
(0.101347 0.164554 -1.3193e-19)
(0.467088 0.253533 0)
(0.451418 0.149056 1.12425e-19)
(1.01425 0.932272 0)
(1.08219 0.778149 0)
(1.10728 0.720409 -5.00065e-19)
(1.13838 0.61906 0)
(1.18918 0.403849 5.77167e-20)
(0.957278 -0.00866117 0)
(0.962197 -0.0100861 0)
(0.901249 -0.00811607 0)
(0.984134 -0.00915838 0)
(0.974548 -0.00942675 0)
(0.936989 -0.00627038 0)
(1.00017 0.0023378 0)
(1.00088 0.00140902 0)
(0.999912 0.000853774 0)
(0.0337557 2.03358 1.33425e-19)
(0.122382 1.71306 0)
(0.0242611 2.13932 9.1342e-20)
(0.0423262 1.85351 -1.34023e-20)
(0.13716 1.2075 -5.25991e-19)
(0.046476 1.07637 0)
(0.0960455 1.07646 0)
(0.00428342 0.862848 0)
(-0.0100705 0.720163 0)
(-0.0564698 2.12503 3.10689e-21)
(-0.0348594 1.94437 0)
(-0.0904791 2.02019 2.02269e-19)
(-0.0973379 1.7582 -4.08358e-19)
(0.0117948 0.828873 0)
(0.0198759 0.784445 0)
(0.00240177 0.666395 0)
(-0.0508787 0.868326 0)
(-0.0442186 0.812434 0)
(0.926211 0.0097522 0)
(0.840669 -0.00828363 0)
(0.919477 -0.000254116 0)
(0.836371 -0.0118413 0)
(0.813747 0.00551593 0)
(0.904099 0.0171892 0)
(0.882071 0.0201474 0)
(0.789258 0.00341832 0)
(0.00572397 3.06475 -5.91359e-21)
(0.0165534 3.05802 0)
(0.0146978 2.96912 0)
(0.00852149 2.87628 0)
(0.930373 3.98478 0)
(1.24629 3.31598 1.01482e-18)
(0.0710504 3.07972 0)
(-0.0269956 2.90916 0)
(-0.109444 1.76872 0)
(-0.115474 1.84844 0)
(-0.0902145 1.80885 0)
(-0.0364086 1.94267 -1.85653e-21)
(-0.0972401 1.90171 0)
(-0.0614143 1.88966 0)
(-0.0439337 1.42146 1.0263e-21)
(0.00648187 1.57077 -2.43092e-19)
(0.0554256 1.50096 -2.00694e-19)
(-0.0231141 1.2978 0)
(0.586667 0.124441 2.82247e-19)
(0.505612 0.0162761 -2.75648e-19)
(0.25938 1.53749 0)
(0.261548 0.679712 -2.07616e-19)
(0.176025 1.62809 -6.96272e-19)
(0.227228 1.15828 6.98044e-19)
(0.90277 0.00664807 0)
(0.967649 0.0109037 0)
(0.974772 0.0108108 0)
(0.923722 0.00670467 0)
(-0.0657588 0.975727 0)
(-0.0549248 1.1072 0)
(-0.0591525 0.930659 0)
(0.33164 0.266247 3.70865e-19)
(0.27496 0.244125 -4.49046e-19)
(0.283576 0.18842 0)
(1.09745 0.086536 -4.10154e-21)
(1.08158 0.040344 0)
(1.00938 0.0408763 0)
(0.906354 0.00327101 0)
(0.609528 0.0956957 0)
(0.640401 0.0694102 -1.19644e-18)
(0.521233 0.0014064 4.57173e-19)
(0.00947891 2.98152 4.08627e-19)
(-0.0326725 2.86693 4.7636e-20)
(0.00375765 3.05016 -1.27921e-20)
(0.0200677 3.04351 4.60565e-19)
(-0.0150252 2.99656 2.12316e-20)
(-0.0129843 2.94947 -8.59924e-23)
(-0.017265 3.01198 -4.03334e-19)
(0.014806 3.02399 2.91455e-19)
(0.00730408 3.03671 -4.54832e-19)
(0.929795 -0.00117101 0)
(0.937136 -0.0035404 0)
(0.843521 -0.00766817 0)
(0.957007 0.0113866 0)
(0.943667 0.0124945 0)
(0.88277 0.00638672 0)
(0.919742 0.0154084 0)
(0.927752 0.0144129 0)
(0.840356 0.00646125 0)
(0.721 1.41654 3.30159e-19)
(0.755749 1.5269 0)
(0.214034 0.354717 2.50311e-20)
(0.178808 0.62144 2.1256e-19)
(0.260123 0.702533 -1.20314e-19)
(0.262291 0.567277 2.24288e-19)
(0.305595 0.723896 7.50772e-19)
(0.113135 0.195034 2.15048e-19)
(0.518239 0.202308 4.19659e-19)
(0.49881 0.230269 1.06029e-19)
(0.46991 0.125355 2.12021e-19)
(1.17773 0.460681 3.00127e-19)
(1.19233 0.25614 3.12121e-19)
(0.0113579 2.15045 -9.9161e-21)
(0.048257 1.92541 0)
(0.96127 0.0316272 0)
(0.930275 0.0179019 0)
(0.862933 -0.0065698 0)
(0.0110615 3.07452 0)
(0.019805 2.94404 7.86907e-19)
(0.0165104 2.9564 0)
(0.00618547 2.85078 -7.80589e-19)
(0.00612465 3.09106 1.86073e-19)
(0.00736406 3.08269 0)
(0.789526 1.8314 -2.40155e-19)
(1.25385 2.51312 6.6195e-19)
(0.772133 1.97204 -1.4957e-18)
(0.0208049 2.9829 -2.97452e-19)
(0.0369135 3.00511 0)
(-0.0326089 2.88094 0)
(-0.112033 1.85492 -1.59483e-20)
(-0.0455275 1.70107 4.8389e-19)
(-0.0689558 1.58604 -1.52139e-20)
(0.275255 1.34612 6.77136e-19)
(0.211074 0.455889 -4.66901e-19)
(0.0625585 1.95955 4.48971e-19)
(0.1369 1.84938 -5.67467e-19)
(0.178573 1.45175 8.63862e-20)
(0.00209152 3.1186 -1.09352e-18)
(0.0168193 3.11784 1.17065e-18)
(-0.00877994 2.98125 5.02987e-19)
(-0.00304327 2.97772 -4.43734e-19)
(-0.0212686 2.88197 -5.12277e-19)
(0.00873938 3.09966 -1.36168e-18)
(0.0024642 3.10623 1.3246e-18)
(0.245211 0.63825 0)
(0.20193 0.628101 -4.03243e-19)
(0.106316 0.211156 1.83135e-19)
(0.328248 0.844939 6.45884e-19)
(0.173638 0.235105 -9.88655e-19)
(1.18402 0.173263 -5.89833e-20)
(1.19191 0.309204 0)
(1.1727 0.121029 1.22245e-19)
(-0.0415505 2.17354 2.54044e-21)
(-0.00553795 2.17932 0)
(0.0187293 1.96472 0)
(0.33729 1.24167 -2.45835e-19)
(0.353423 1.05801 -5.22705e-19)
(0.185769 0.329034 8.99027e-19)
(1.00583 -0.0109385 0)
(1.00763 -0.0076653 1.97134e-19)
(-0.0945995 1.69706 0)
(-0.102412 1.68739 0)
(1.00223 0.00354019 1.84287e-21)
(1.00364 0.00937203 4.05998e-19)
(-0.0301691 1.96281 2.37971e-21)
(-0.015029 1.98351 0)
(0.0383728 3.18166 1.10245e-19)
(0.399744 3.49906 0)
(1.12461 0.643866 6.71366e-20)
(1.01301 0.0130703 -2.04576e-21)
(1.02104 -0.0106217 0)
(1.00173 0.000105338 9.86229e-23)
(0.106655 1.35923 0)
(0.137192 2.57528 0)
(-0.0170407 1.04895 0)
(-0.0293005 2.65765 -2.49351e-19)
(-0.207454 2.62077 -2.43923e-19)
(1.00765 0.0266378 2.6782e-21)
(1.05578 -0.00414653 0)
(1.0794 0.0239568 0)
(-0.13328 1.84636 0)
(-0.0598506 2.17057 0)
(-0.207371 1.46414 0)
(0.279051 1.46724 -4.38609e-19)
(1.01123 -0.00968519 0)
(1.00937 -0.015016 0)
(1.00252 0.000654551 2.51659e-19)
(1.00548 -0.00492996 -2.961e-19)
(1.00121 -0.00103645 0)
(-0.177027 1.79235 0)
(-0.13267 1.70187 0)
(-0.137868 1.76333 0)
(-0.185463 1.48247 0)
(-0.137729 1.59706 0)
(-0.135451 1.55403 0)
(1.03453 -0.00724927 0)
(1.02068 0.0151265 -1.08487e-21)
(0.781857 1.25758 5.21574e-19)
(1.00218 0.00036412 -2.49468e-19)
(1.00411 0.0052693 2.95938e-19)
(1.00117 0.00206227 0)
(1.01292 0.010274 2.4469e-19)
(1.00796 0.00817362 -3.03891e-19)
(1.00874 0.0145295 0)
(-0.0453575 2.15744 0)
(-0.0290064 2.05616 -7.11435e-20)
(-0.0159856 2.07231 6.00173e-20)
(1.19639 0.259829 -7.93901e-20)
(1.13419 0.0890513 0)
(0.0491222 3.07717 -5.06583e-19)
(0.0674062 2.85182 -4.0413e-20)
(0.145812 3.19542 8.12464e-19)
(0.140427 3.22484 9.4631e-22)
(0.138195 3.23919 0)
(0.0215119 3.13814 1.09707e-19)
(0.0794658 3.16149 4.93337e-19)
(0.0720959 3.18835 -2.12018e-19)
(0.0244393 3.12915 0)
(0.658755 0.323933 0)
(0.578887 0.372622 0)
(1.09604 0.673708 -2.5625e-19)
(1.0943 0.808091 3.95367e-19)
(1.15456 0.563627 0)
(1.18536 0.50979 0)
(1.01616 0.0131917 -4.52569e-19)
(1.01499 0.0140676 5.64971e-19)
(1.02504 -0.0105309 0)
(1.02306 -0.0123614 0)
(1.0067 0.00239097 0)
(1.01061 0.00361315 0)
(1.00442 0.00174106 0)
(1.00986 0.00626105 0)
(1.00787 0.00588752 0)
(1.00444 0.00441842 0)
(0.0954469 1.35854 0)
(0.092621 1.31079 0)
(0.117102 1.38463 0)
(0.142188 1.40491 0)
(0.143523 2.5967 0)
(0.187375 2.65495 -1.98497e-19)
(0.102082 2.65261 0)
(0.0764852 2.65778 -2.27186e-20)
(0.0331922 2.67428 2.23529e-19)
(-0.0345505 1.01745 0)
(-0.091928 0.956567 0)
(0.0862179 1.07126 0)
(0.0543453 1.00621 0)
(0.0417539 2.17527 4.06507e-19)
(-0.185316 2.65314 -3.29447e-19)
(-0.0892474 2.70555 -3.91976e-19)
(-0.144314 2.6837 0)
(-0.216988 2.63652 6.29688e-19)
(-0.219833 2.57944 4.01847e-19)
(0.073957 2.22982 -2.76166e-19)
(-0.163308 2.58913 4.65398e-19)
(-0.0853551 2.55989 4.73665e-19)
(1.01602 0.0342135 4.49255e-19)
(1.00866 0.0209413 -5.5297e-19)
(1.00806 0.0361799 -4.59461e-19)
(0.990121 0.0156434 5.95069e-19)
(1.05635 0.000510566 0)
(1.04381 -0.0136812 0)
(1.07802 0.0294237 0)
(1.06192 0.00599845 0)
(1.05833 -0.001869 0)
(1.1183 0.079933 0)
(1.09066 0.0460159 0)
(1.09232 0.0389081 0)
(-0.0977557 1.96194 8.21385e-22)
(-0.160172 1.91444 0)
(-0.113607 1.91677 0)
(-0.11228 2.27838 -7.56264e-20)
(-0.100266 2.30086 5.44928e-21)
(-0.285379 1.85872 -3.38574e-20)
(-0.20755 1.79549 3.43137e-20)
(-0.255527 1.62263 0)
(-0.216624 1.67053 0)
(-0.184612 1.68991 0)
(-0.242104 1.39171 0)
(-0.145464 1.25985 0)
(0.372035 1.47875 8.35059e-19)
(0.404239 1.49215 3.30703e-19)
(0.591412 2.43675 -1.5398e-19)
(0.408759 2.53068 4.20721e-19)
(0.354859 2.08549 -4.90083e-20)
(1.021 -0.00860987 0)
(1.01546 -0.0100037 0)
(1.01477 -0.0156411 0)
(1.00784 -0.00143871 0)
(1.00489 -0.00121802 0)
(1.00771 -0.00486893 0)
(1.0092 -0.00371135 0)
(1.01405 -0.00455578 0)
(1.02151 0.0156458 4.30381e-19)
(1.01784 0.0156939 -5.54843e-19)
(1.02225 0.0176461 -4.30539e-19)
(1.01936 0.0165826 5.39013e-19)
(0.75216 1.30839 0)
(0.687106 1.36246 6.13717e-19)
(0.860104 1.1999 3.60011e-19)
(0.906033 1.15605 -4.79014e-19)
(1.15666 2.61799 -5.49853e-19)
(0.833414 0.10042 2.91047e-19)
(1.13486 0.102828 0)
(1.17823 0.183863 6.81676e-20)
(1.16338 0.157935 3.01488e-21)
(0.992465 0.125999 0)
(0.142343 2.96418 1.40103e-19)
(0.120722 2.86974 -6.61014e-19)
(0.0319627 2.36348 4.72189e-19)
(0.0971724 0.0560432 -1.98014e-19)
(0.344403 3.42765 -4.39513e-19)
(0.197822 3.31866 0)
(0.239869 3.36213 5.72384e-19)
(0.251598 3.0375 -7.72158e-19)
(0.346213 3.19722 0)
(0.00661627 3.12087 2.57757e-20)
(0.0166353 3.12979 -3.29939e-19)
(0.0149681 3.12576 4.85613e-19)
(0.0371059 3.14015 0)
(0.0358064 3.1512 0)
(1.21979 2.61904 0)
(0.544121 0.844059 -2.40889e-19)
(1.02508 0.983869 -2.0511e-19)
(0.963366 1.05103 0)
(0.807212 0.950634 5.5098e-20)
(1.0477 0.865429 3.00061e-20)
(0.389669 0.426844 -5.28e-19)
(0.699394 0.33786 -2.39493e-20)
(0.685537 0.263225 2.28024e-19)
(0.592409 0.403819 1.76368e-20)
(0.521485 0.380228 -7.2128e-19)
(0.669375 0.357552 0)
(0.691515 0.431824 3.74131e-19)
(0.695315 0.43065 0)
(0.628069 0.390909 0)
(0.614732 0.323983 0)
(0.777175 0.604169 1.31152e-19)
(1.19408 0.277802 5.08539e-20)
(1.19002 0.413358 0)
(1.20247 0.36193 0)
(0.770866 0.203317 3.34196e-19)
(0.823779 0.541901 -1.8581e-19)
(0.732126 0.512183 3.0233e-19)
(0.91751 0.418399 -2.82127e-19)
(1.01983 0.0144802 2.98444e-19)
(1.01796 0.0140393 -3.04549e-19)
(1.01594 0.0154299 0)
(1.03534 -0.00657914 0)
(1.02934 -0.00895186 -2.73459e-19)
(1.02706 -0.0130632 2.7059e-19)
(1.02526 0.0093792 0)
(1.02402 0.0128364 0)
(1.01142 0.0038963 0)
(1.01434 0.00861965 0)
(1.01521 0.00333786 0)
(1.01414 0.00257793 0)
(0.0815661 1.33575 0)
(0.089072 1.22659 0)
(0.138597 1.34803 3.38271e-19)
(0.262 1.46403 2.50672e-19)
(0.163035 1.43577 5.33314e-19)
(0.190193 1.44299 -8.70928e-19)
(0.177588 1.37324 0)
(0.129413 1.60277 2.81026e-19)
(0.0892827 1.56387 0)
(0.354365 2.04228 7.12128e-20)
(0.352503 2.36684 2.29364e-19)
(0.173314 1.45042 -2.45359e-19)
(0.267165 1.36037 1.90166e-19)
(0.197378 1.35586 -1.52515e-19)
(0.279715 1.30213 3.17013e-19)
(0.252021 1.58276 0)
(0.252047 1.62324 -2.09486e-19)
(0.0501446 2.27184 1.03389e-19)
(0.0461762 2.6681 0)
(0.0580854 2.39019 -1.77269e-19)
(0.0344195 2.41006 0)
(0.0711323 2.66115 2.38778e-20)
(0.0532521 2.69329 0)
(0.0827421 1.47265 4.90937e-19)
(0.210798 1.63403 0)
(0.196569 1.36587 0)
(0.126111 1.31789 -5.43712e-19)
(-0.0360496 2.67846 -3.98585e-20)
(0.0429135 2.68656 -2.97551e-19)
(-0.0102712 2.72257 -2.02412e-21)
(-0.240456 2.20661 -3.31569e-19)
(0.00121205 2.0166 -1.98494e-19)
(-0.114592 1.01936 0)
(-0.0849835 0.983466 0)
(0.132963 1.69587 -5.02739e-19)
(0.182728 1.48962 -5.23715e-19)
(0.163341 1.66019 6.54533e-19)
(0.105097 1.68175 0)
(-0.250967 2.13377 2.94366e-19)
(-0.206705 2.3035 -1.2578e-19)
(-0.239076 2.34377 4.47338e-20)
(-0.270108 2.13389 4.02349e-19)
(-0.25688 2.49412 1.06186e-19)
(-0.25006 2.5208 -4.65329e-19)
(1.02121 0.0212105 -2.92579e-19)
(1.01808 0.0271747 2.95053e-19)
(1.01443 0.0190387 0)
(1.0149 0.0521821 4.23537e-19)
(0.996064 0.0422711 -4.98687e-19)
(0.962737 0.024367 5.77918e-19)
(1.01383 0.0862726 -5.4762e-20)
(1.04142 -0.00683199 0)
(1.04719 -0.0052999 2.43994e-19)
(1.03716 -0.0117551 -2.43852e-19)
(1.06438 0.0365493 -1.33752e-20)
(1.05696 0.0153966 1.19541e-19)
(1.06214 0.0480856 0)
(1.05786 0.039855 -4.47348e-20)
(1.0388 0.0331831 0)
(1.03367 0.0303314 0)
(1.02704 0.0124781 0)
(1.02465 0.0150926 0)
(1.04547 0.0256907 9.3082e-20)
(1.0414 0.0181084 -2.12307e-19)
(1.05355 0.0212269 -9.38136e-20)
(1.05196 0.0229446 -1.08962e-19)
(1.06836 0.0570748 1.93729e-19)
(1.08129 0.0507975 0)
(1.08844 0.0950512 0)
(-0.248182 2.10671 7.57448e-20)
(-0.197636 1.94981 3.24136e-21)
(-0.205517 1.979 0)
(-0.141992 2.10578 -7.56846e-20)
(-0.0982865 2.00161 -4.05685e-21)
(-0.121306 2.04771 1.14083e-20)
(-0.20144 2.56372 -3.65682e-19)
(-0.21605 2.43464 1.93369e-20)
(-0.261354 2.47907 -9.9264e-20)
(-0.163461 2.44805 1.99137e-19)
(-0.172812 2.45947 -2.27226e-19)
(-0.361723 1.74754 -7.03459e-21)
(-0.316775 1.88123 -9.76402e-20)
(0.365178 1.40684 -4.11419e-19)
(0.362581 1.35198 -3.93468e-19)
(0.637183 1.41096 -5.93544e-19)
(0.507179 1.47495 -3.18829e-19)
(0.55544 1.45038 0)
(0.588278 2.40969 1.23213e-19)
(0.654975 2.39914 2.23884e-19)
(0.413601 2.50645 7.97449e-20)
(0.407363 2.55127 -1.63714e-19)
(0.515723 2.5088 2.66964e-19)
(0.545996 2.44967 0)
(0.48996 2.49688 -3.51725e-19)
(0.249353 2.58207 5.78416e-19)
(0.356441 2.55554 -8.00993e-20)
(0.286522 2.63992 -8.85302e-19)
(0.927123 2.38144 2.27714e-19)
(0.826086 2.37692 0)
(1.0105 0.000100715 9.93324e-21)
(1.01482 -0.0056284 -8.08319e-21)
(1.0177 -0.00379185 -1.46278e-19)
(1.01478 -0.000752778 1.46635e-19)
(1.0121 0.000914044 0)
(0.623561 1.28032 0)
(0.63541 1.15755 0)
(0.73505 1.06986 0)
(0.627482 1.12718 0)
(1.18478 2.63469 5.7385e-20)
(1.07335 2.37212 0)
(0.844515 2.2254 -1.75345e-21)
(0.82617 2.47934 0)
(0.920993 2.56517 2.32971e-20)
(0.957482 2.51847 -1.55499e-20)
(0.841909 0.147392 0)
(0.811595 0.138748 8.38983e-20)
(0.927031 0.123673 4.299e-19)
(0.862036 0.116979 -1.71993e-19)
(0.845327 0.0643298 -5.17157e-19)
(1.04627 0.218155 -2.43782e-19)
(0.962221 0.272978 -1.56961e-20)
(0.90514 0.271891 3.91754e-19)
(0.979596 0.199545 2.88971e-19)
(0.939353 0.160071 -5.4103e-19)
(0.912594 0.169048 7.01124e-20)
(0.940416 0.232393 -1.35874e-19)
(0.916801 0.192087 0)
(0.976697 0.158002 2.59259e-19)
(1.02359 0.166214 0)
(1.01663 0.192146 0)
(1.0816 0.1108 8.16279e-20)
(1.04823 0.158998 -1.30669e-20)
(1.04069 0.221409 -4.58241e-20)
(1.076 0.193008 0)
(1.02764 0.0350417 2.21421e-19)
(1.04723 0.0479291 2.63217e-19)
(1.04137 0.0340229 -2.20753e-19)
(1.0472 0.0538466 -1.77263e-19)
(1.02447 0.057747 -2.98008e-19)
(0.977889 0.127989 0)
(0.996164 0.0805124 0)
(0.969801 0.0428928 -2.09404e-19)
(0.930071 0.0594609 8.71244e-20)
(1.0346 0.0865333 2.49018e-19)
(1.05266 0.111785 -2.50875e-19)
(1.05804 0.139084 2.29858e-19)
(1.02329 0.126864 0)
(1.06223 0.0997883 0)
(1.05049 0.0807936 -1.04452e-19)
(1.04516 0.0832223 -1.99297e-19)
(0.579924 1.0867 -9.37437e-20)
(0.618143 1.43529 1.95971e-19)
(1.15907 2.75567 1.01031e-19)
(1.22635 3.09404 -7.05282e-20)
(1.24991 2.73449 5.61928e-19)
(1.28219 2.71827 -3.39789e-19)
(1.20958 2.35626 -8.66091e-21)
(1.21265 2.99818 1.93941e-19)
(1.23083 2.9634 -2.14348e-19)
(1.21853 3.24776 -2.68175e-19)
(1.38061 2.98012 3.71265e-19)
(1.37331 2.89763 0)
(0.537758 0.853017 -1.34631e-20)
(0.154376 1.275 3.76438e-19)
(0.526024 0.492777 3.47195e-19)
(0.365162 0.259142 3.78682e-19)
(0.540041 0.404341 4.05197e-19)
(0.549643 0.487687 -6.28071e-19)
(0.551487 0.489665 5.15785e-19)
(0.507355 0.430356 -2.0897e-19)
(0.44497 0.367421 4.80152e-19)
(0.774969 0.254544 -1.86727e-19)
(0.735573 0.288752 0)
(0.727953 0.22553 1.09004e-20)
(0.717603 0.519102 1.91645e-19)
(0.684201 0.488428 -7.07745e-19)
(0.609441 0.481002 1.75433e-20)
(0.621033 0.47164 0)
(0.671152 0.721476 1.50965e-19)
(0.805536 0.756154 6.04101e-20)
(0.7314 0.832432 -7.82969e-20)
(0.84709 0.792719 -1.73789e-20)
(0.877542 0.834334 1.40525e-20)
(0.886422 0.835021 -1.43888e-20)
(0.819056 0.636741 -2.2464e-19)
(0.896356 0.691995 1.61597e-20)
(0.949387 0.702513 0)
(0.939706 0.678219 -1.4666e-20)
(0.988799 0.313191 6.20861e-20)
(1.10574 0.286386 2.19612e-21)
(1.0304 0.253281 9.96011e-20)
(0.96986 0.345399 -1.42944e-19)
(1.01622 0.408596 0)
(1.06908 0.398705 0)
(0.892446 0.353104 5.08024e-21)
(0.836245 0.285022 0)
(0.853151 0.27712 2.01963e-19)
(0.88835 0.279119 -6.00456e-21)
(0.909342 0.421961 7.7178e-19)
(0.868669 0.485956 1.95603e-19)
(0.870567 0.450514 -2.52407e-19)
(0.8012 0.437805 2.70852e-19)
(0.785657 0.439225 1.84855e-19)
(0.752974 0.423605 -1.81374e-19)
(1.02717 -0.000632511 2.33749e-19)
(1.01996 -0.00010895 0)
(1.01842 0.000975325 1.56314e-19)
(1.02205 -0.00184181 -3.51783e-19)
(1.02215 0.00395884 1.70722e-19)
(1.02036 0.0107532 -3.58423e-19)
(1.02137 0.0102905 0)
(1.02103 0.0105746 -7.57192e-20)
(1.01582 0.00744332 1.89815e-19)
(1.01665 0.0100781 -9.51994e-20)
(1.01761 0.00922838 7.02097e-20)
(0.0926097 1.1443 0)
(0.196461 1.26073 0)
(0.0887501 1.23428 0)
(0.0755569 1.08954 0)
(0.089513 1.38576 -6.98652e-19)
(0.0887598 1.36021 2.21428e-19)
(0.100805 1.48621 1.59209e-19)
(0.0786999 1.37668 -1.82673e-19)
(0.160091 1.50334 4.60818e-19)
(0.145284 1.47583 -3.54549e-19)
(0.108309 1.36878 -2.08969e-20)
(0.148308 1.37918 4.6448e-19)
(0.166794 1.32094 6.9962e-20)
(0.184374 1.34096 6.30472e-20)
(0.0957286 2.37605 1.96075e-19)
(0.09532 2.43113 0)
(0.16954 2.07216 -5.09526e-20)
(0.0732209 1.72073 -1.20186e-19)
(0.227994 2.0625 2.99784e-20)
(0.217109 2.4533 0)
(0.270205 2.40615 -1.1298e-19)
(0.305887 2.40642 8.06226e-20)
(0.243771 2.00881 9.38801e-20)
(0.156589 2.18561 -1.20384e-22)
(0.141309 2.3124 0)
(0.0913715 1.94383 4.8297e-19)
(-0.0154936 2.46835 5.75561e-19)
(0.0509083 2.27714 0)
(0.017628 2.46389 -2.37171e-20)
(0.0064898 2.3207 -2.2299e-19)
(-0.0273011 1.30389 -8.70125e-20)
(-0.123593 1.24172 1.39594e-18)
(-0.149932 1.31685 -3.41782e-19)
(-0.0533468 1.41973 -5.29389e-19)
(0.0718576 1.49883 0)
(-0.226511 1.20956 0)
(-0.231796 1.21405 -2.39419e-19)
(-0.292606 1.25797 7.69036e-20)
(-0.23403 1.21418 0)
(-0.16827 1.08837 -2.05114e-19)
(-0.142476 1.1106 3.76901e-19)
(1.0414 0.00700707 0)
(1.04456 0.00338232 -2.28648e-20)
(1.04162 0.0156412 -1.6896e-19)
(1.04986 0.01128 0)
(1.0498 0.00989844 0)
(1.03576 0.00745655 -6.26867e-21)
(1.03166 0.00910777 2.78186e-19)
(1.03163 0.0129681 3.36072e-19)
(1.0265 0.0186062 0)
(1.02459 0.0196521 0)
(1.03679 0.0203421 1.69911e-19)
(1.02886 0.0250302 0)
(1.02706 0.0235768 0)
(-0.394321 2.14582 0)
(-0.369608 1.92034 -3.17273e-20)
(-0.387615 2.07004 -7.04143e-20)
(-0.315804 1.40171 0)
(-0.430973 1.83824 -1.33426e-19)
(-0.383731 1.69005 3.2486e-20)
(-0.36003 1.48814 0)
(0.385402 1.69431 0)
(0.362591 1.28047 6.46506e-19)
(0.302208 1.3365 0)
(0.411758 1.27379 -8.4107e-19)
(0.45897 1.4418 0)
(0.437826 1.38842 3.94097e-19)
(1.02839 2.70516 -4.18114e-21)
(0.951781 2.41648 -2.8765e-19)
(0.891182 2.1729 3.27553e-19)
(0.838402 2.37079 1.19354e-19)
(0.844223 2.52014 0)
(0.911101 2.51406 0)
(0.906798 2.37517 0)
(0.89473 2.35111 -4.52593e-19)
(0.690121 2.49578 -1.11412e-20)
(0.80024 2.48782 -1.29583e-20)
(0.811229 2.46022 9.92271e-21)
(0.68812 2.37906 0)
(0.791121 2.37808 0)
(0.751859 2.38754 -2.27108e-19)
(0.769018 2.50678 0)
(0.587819 1.08883 0)
(0.487586 0.943247 -2.50905e-21)
(0.542198 0.970835 -1.49256e-21)
(0.51633 1.06649 0)
(0.518798 1.02338 6.47396e-21)
(0.753811 0.85283 1.30708e-20)
(0.762202 0.996962 0)
(0.73711 0.953906 -6.28551e-20)
(0.61654 1.0203 0)
(0.626594 0.935955 0)
(1.1633 2.77614 5.55236e-20)
(1.14164 2.84033 1.23219e-19)
(0.934645 2.3672 -2.82456e-19)
(0.90118 2.34228 3.53419e-20)
(1.1266 2.74844 0)
(1.07809 2.71903 -4.23175e-20)
(1.08401 2.49615 -7.8199e-20)
(0.980665 2.23291 -2.954e-20)
(0.495242 1.37083 0)
(0.504254 1.07576 8.26499e-20)
(0.542359 1.15011 0)
(0.859078 0.218075 0)
(0.819795 0.170735 0)
(0.776572 0.160506 0)
(0.850046 0.223999 -3.17637e-19)
(0.79418 0.222871 1.96322e-19)
(0.938629 0.0505521 -1.78876e-19)
(0.952836 0.0992919 0)
(0.925345 0.104541 8.01693e-20)
(0.886413 0.0813904 3.28489e-19)
(0.872621 0.0460977 -2.01607e-19)
(1.16818 3.37292 -9.80888e-19)
(1.2145 3.29236 0)
(1.16757 3.39954 -1.92897e-18)
(0.65404 3.55948 1.65654e-18)
(0.882216 3.12459 3.72683e-19)
(0.516483 0.881177 2.37703e-19)
(0.440216 0.875268 0)
(0.357843 0.526344 -8.51268e-20)
(0.458127 0.690015 3.90819e-19)
(0.532474 0.492489 -1.12021e-19)
(0.513099 0.5267 1.31544e-19)
(0.655356 0.53383 2.67816e-19)
(0.683118 0.556248 0)
(0.643415 0.615997 0)
(0.595299 0.553858 0)
(0.947731 0.584304 -5.34336e-20)
(0.872158 0.53164 -1.89064e-19)
(0.89888 0.565434 8.82997e-20)
(0.926818 0.501772 -1.38633e-19)
(1.03063 0.465241 0)
(1.0427 0.554546 -5.41405e-21)
(0.826688 0.389483 -4.07751e-19)
(0.831786 0.372601 -4.7027e-19)
(0.782119 0.388662 3.19973e-19)
(0.775363 0.354404 -3.62546e-19)
(0.831428 0.306024 -2.67746e-19)
(0.785584 0.307048 3.29388e-19)
(1.02616 0.00557351 -1.81116e-19)
(1.02594 0.00591742 3.71308e-19)
(1.02983 -0.000955376 2.21266e-19)
(1.03312 0.000984337 -2.70172e-19)
(1.03338 0.00633886 0)
(1.02994 0.00685224 -4.34996e-19)
(0.0641456 1.67609 -6.24532e-20)
(0.0837183 1.60212 0)
(0.0646362 1.70451 -5.13765e-19)
(0.067897 1.68119 4.72119e-19)
(0.0882607 1.50701 -2.89951e-19)
(0.120472 1.51033 0)
(-0.377585 2.12807 0)
(-0.347518 1.68716 1.06107e-19)
(-0.44293 1.65843 -9.6526e-20)
(-0.415636 1.84656 -4.15695e-20)
(-0.383778 2.17266 1.54481e-19)
(-0.378799 2.19258 -9.38446e-20)
(0.490099 1.38085 4.20536e-19)
(0.482161 1.38627 -4.51754e-19)
(0.430652 1.27222 4.21142e-19)
(0.42183 1.29444 -2.59272e-20)
(0.612034 1.27785 0)
(0.533747 1.37555 5.36702e-19)
(0.551317 1.38853 -5.22223e-19)
(0.43953 1.25846 -4.0698e-19)
(0.491272 1.21353 0)
(0.547556 1.18005 0)
(0.655225 2.45288 1.63692e-20)
(0.667315 2.47617 5.28642e-19)
(0.716638 2.49351 -3.63894e-19)
(0.624103 2.47598 -1.19965e-19)
(0.559871 2.57084 9.97657e-20)
(0.51339 2.54327 -3.00227e-19)
(0.964853 2.37659 -1.76129e-19)
(1.00818 2.39823 0)
(0.90617 2.14997 -2.45975e-19)
(1.04641 2.69956 0)
(1.04816 2.68667 0)
(0.626438 2.28874 2.34334e-19)
(1.04825 3.17345 4.78671e-19)
(0.919312 3.04207 -4.22851e-19)
(0.29227 0.953647 0)
(0.344052 0.823744 -1.59307e-19)
(0.499529 0.779218 -7.73351e-20)
(0.404539 2.03572 0)
(0.471729 2.79002 -2.59415e-19)
(0.432909 2.55488 0)
(0.682634 0.66729 -3.13174e-19)
(0.75302 0.663924 3.98285e-19)
(0.775089 0.615813 -3.88929e-19)
(0.671201 0.641623 -4.65075e-20)
(0.717632 0.593585 -1.90111e-19)
(1.00856 2.77974 -3.63907e-19)
(1.04164 2.83492 2.84342e-19)
(0.651935 2.18265 6.35887e-20)
(0.609447 1.73674 -7.55687e-20)
(0.704635 1.92575 1.08412e-19)
(0.992853 2.46264 -6.83795e-20)
(0.995469 2.45991 -1.60463e-19)
(0.675511 1.87174 -4.94207e-21)
(0.461476 1.35322 -7.7544e-20)
)
;

boundaryField
{
    wall-4
    {
        type            noSlip;
    }
    velocity-inlet-5
    {
        type            fixedValue;
        value           uniform (1 0 0);
    }
    velocity-inlet-6
    {
        type            fixedValue;
        value           uniform (0 3 0);
    }
    pressure-outlet-7
    {
        type            zeroGradient;
    }
    wall-8
    {
        type            noSlip;
    }
    frontAndBackPlanes
    {
        type            empty;
    }
}


// ************************************************************************* //
