/*--------------------------------*- C++ -*----------------------------------*\
  =========                 |
  \\      /  F ield         | OpenFOAM: The Open Source CFD Toolbox
   \\    /   O peration     | Website:  https://openfoam.org
    \\  /    A nd           | Version:  9
     \\/     M anipulation  |
\*---------------------------------------------------------------------------*/
FoamFile
{
    format      ascii;
    class       volScalarField;
    location    "45";
    object      p;
}
// * * * * * * * * * * * * * * * * * * * * * * * * * * * * * * * * * * * * * //

dimensions      [0 2 -2 0 0 0 0];

internalField   nonuniform List<scalar> 
2200
(
0.779273
0.757772
0.741863
0.726191
0.711574
0.699045
0.688676
0.680561
0.674843
0.671858
0.672297
0.676079
0.682386
0.690925
0.701591
0.714343
0.729118
0.745007
0.761031
0.782534
0.71171
0.70845
0.705523
0.701401
0.695936
0.689457
0.68283
0.676859
0.672334
0.669903
0.670356
0.673622
0.678762
0.685189
0.692147
0.69888
0.704525
0.708642
0.711518
0.714865
0.671797
0.672015
0.674073
0.675415
0.675799
0.674937
0.672948
0.670254
0.667684
0.666161
0.666671
0.669076
0.672325
0.675524
0.677849
0.678855
0.678575
0.67753
0.67583
0.675586
0.649343
0.650793
0.653383
0.655824
0.658254
0.660259
0.661397
0.661605
0.661206
0.66088
0.661462
0.662788
0.663956
0.664318
0.663613
0.661932
0.659767
0.657553
0.654951
0.653541
0.635019
0.636992
0.639803
0.642631
0.645483
0.6483
0.650739
0.652574
0.653769
0.654533
0.655205
0.655616
0.655321
0.654176
0.652279
0.649883
0.647315
0.644594
0.64181
0.639881
0.627695
0.629294
0.631494
0.634019
0.636677
0.639331
0.641903
0.644299
0.646278
0.647734
0.648528
0.648488
0.647605
0.646041
0.644102
0.641919
0.639567
0.637211
0.635107
0.633532
0.624323
0.625345
0.626611
0.62847
0.630598
0.632742
0.634903
0.637153
0.639317
0.641094
0.642047
0.641983
0.641151
0.639892
0.63847
0.636884
0.635162
0.633568
0.632444
0.631426
0.621741
0.622409
0.623036
0.624328
0.62593
0.627597
0.629316
0.631186
0.633177
0.635049
0.636196
0.63641
0.636016
0.635349
0.634519
0.633535
0.632447
0.631501
0.631043
0.630366
0.618603
0.619053
0.619445
0.620424
0.621661
0.623015
0.624477
0.626095
0.627879
0.629748
0.631149
0.631834
0.631993
0.63185
0.631491
0.630954
0.630324
0.629753
0.629548
0.629086
0.61461
0.614905
0.615265
0.616135
0.617244
0.6185
0.619902
0.621451
0.623166
0.625066
0.626779
0.627948
0.628608
0.628882
0.62887
0.628655
0.628288
0.627913
0.627761
0.62744
0.610013
0.610213
0.610579
0.611406
0.612498
0.6138
0.615299
0.61698
0.61885
0.620945
0.623051
0.624705
0.625754
0.626316
0.626497
0.62648
0.626291
0.62604
0.625902
0.625673
0.605008
0.605154
0.605528
0.606335
0.607466
0.608879
0.610572
0.612536
0.614765
0.617295
0.61988
0.62196
0.623312
0.624084
0.624463
0.624544
0.624485
0.624367
0.624265
0.624088
0.599567
0.599675
0.60005
0.600873
0.602104
0.603705
0.60565
0.607948
0.610649
0.61376
0.616922
0.619433
0.621101
0.622132
0.622729
0.623017
0.623136
0.623143
0.623077
0.622924
0.593737
0.593798
0.594179
0.595032
0.59637
0.598137
0.600338
0.603013
0.606222
0.60999
0.613873
0.617
0.619148
0.620553
0.621461
0.622009
0.622315
0.622439
0.622413
0.622278
0.587493
0.587528
0.587939
0.58883
0.590273
0.59221
0.594673
0.597751
0.601593
0.606187
0.610934
0.614779
0.617532
0.619433
0.620739
0.621606
0.622147
0.622411
0.622435
0.62231
0.580725
0.580683
0.5811
0.582077
0.58374
0.585915
0.588691
0.592248
0.596778
0.602312
0.608135
0.612918
0.616374
0.61892
0.620753
0.622001
0.622803
0.623205
0.623279
0.623153
0.573082
0.57306
0.573494
0.574609
0.576487
0.578991
0.582218
0.586352
0.591625
0.598207
0.605278
0.611342
0.615875
0.619173
0.621554
0.623209
0.62427
0.624825
0.624958
0.624828
0.564501
0.564518
0.564923
0.566097
0.56832
0.571267
0.575099
0.580019
0.586314
0.594224
0.602907
0.610433
0.616098
0.620248
0.623265
0.625362
0.626732
0.627448
0.62763
0.627493
0.554589
0.554557
0.555103
0.556543
0.559079
0.562578
0.567274
0.573372
0.581162
0.590867
0.6014
0.610447
0.617276
0.62227
0.625939
0.628571
0.630291
0.631172
0.631407
0.631264
0.542786
0.542703
0.543366
0.545215
0.548369
0.552697
0.558513
0.566117
0.575867
0.587872
0.600575
0.611305
0.619327
0.625404
0.629909
0.63308
0.635155
0.636203
0.636491
0.636335
0.528868
0.528738
0.529481
0.531687
0.535566
0.540955
0.548184
0.557593
0.569588
0.584245
0.599614
0.612532
0.6223
0.629625
0.635009
0.638906
0.641436
0.642682
0.643029
0.642844
0.511903
0.511803
0.512769
0.515426
0.520162
0.526869
0.535896
0.547576
0.562309
0.580112
0.598704
0.614281
0.626033
0.634867
0.641441
0.646171
0.649229
0.6507
0.651101
0.650877
0.490778
0.490613
0.491889
0.495341
0.50145
0.51015
0.521772
0.53663
0.554932
0.576513
0.59865
0.61707
0.630961
0.641408
0.649223
0.65496
0.658612
0.660296
0.660729
0.660446
0.463222
0.463228
0.465279
0.470151
0.478557
0.490398
0.505859
0.525018
0.547842
0.573949
0.600024
0.621407
0.637409
0.649488
0.658636
0.665266
0.669425
0.671285
0.671718
0.671378
0.426344
0.426585
0.43011
0.437897
0.450297
0.467084
0.487818
0.512392
0.540586
0.571867
0.60231
0.62689
0.645228
0.659071
0.669502
0.677039
0.681635
0.683591
0.683981
0.683575
0.376905
0.377321
0.384302
0.397289
0.416053
0.439902
0.467586
0.498753
0.533141
0.570196
0.605385
0.63335
0.654091
0.669792
0.681673
0.690132
0.69503
0.696898
0.697101
0.696715
0.311226
0.314042
0.329178
0.350433
0.378027
0.410614
0.446299
0.484858
0.526141
0.569557
0.610084
0.642094
0.666037
0.684229
0.697972
0.707851
0.713316
0.715129
0.715151
0.71497
0.236287
0.245854
0.271062
0.302072
0.339711
0.381314
0.425162
0.471471
0.520107
0.570481
0.617185
0.654045
0.681522
0.702581
0.718755
0.730165
0.736174
0.737721
0.737671
0.737712
0.169206
0.184088
0.215666
0.255506
0.302659
0.353145
0.405036
0.459147
0.515158
0.572407
0.624675
0.665954
0.696866
0.720488
0.738403
0.751073
0.757651
0.759527
0.759879
0.759881
0.118119
0.131427
0.168348
0.21433
0.268809
0.326743
0.386023
0.447351
0.510165
0.573719
0.631679
0.67713
0.711078
0.737004
0.756663
0.77073
0.777738
0.780117
0.780386
0.780459
0.0759774
0.0885676
0.129149
0.179016
0.238885
0.302708
0.368369
0.436156
0.505369
0.575284
0.63869
0.6877
0.724227
0.752063
0.772987
0.78779
0.795441
0.798167
0.798493
0.798596
0.0395877
0.0524089
0.0957816
0.148544
0.212672
0.281206
0.35227
0.425738
0.500646
0.576099
0.643839
0.696662
0.735615
0.764869
0.786971
0.802251
0.810266
0.813336
0.813761
0.813868
0.00781909
0.0208107
0.0662117
0.121544
0.189308
0.261825
0.337485
0.415786
0.495586
0.576016
0.64877
0.704685
0.745236
0.775877
0.798369
0.814104
0.822637
0.825898
0.826483
0.826563
-0.0207509
-0.00765724
0.0393801
0.0971312
0.168075
0.243978
0.323529
0.406009
0.490455
0.575898
0.652761
0.711014
0.753587
0.784927
0.807928
0.824081
0.832804
0.83635
0.837023
0.837086
-0.0468869
-0.0337863
0.0144804
0.074612
0.148311
0.227158
0.310147
0.396414
0.48506
0.57464
0.654939
0.716555
0.760453
0.792761
0.816273
0.832399
0.841641
0.845257
0.846044
0.846043
-0.0714007
-0.0580211
-0.00883181
0.0534692
0.129563
0.211044
0.297105
0.386697
0.478913
0.572534
0.657225
0.721412
0.766685
0.799844
0.823767
0.840044
0.849109
0.852926
0.85362
0.853465
-0.0945027
-0.0808726
-0.030885
0.0333315
0.11152
0.19536
0.28409
0.376582
0.472158
0.569796
0.658187
0.724996
0.772532
0.806455
0.830644
0.846824
0.855837
0.859497
0.860273
0.860125
-0.116317
-0.102638
-0.0519282
0.0139296
0.0939403
0.179888
0.270993
0.366152
0.464916
0.566103
0.658367
0.72885
0.778204
0.812806
0.837162
0.853205
0.861995
0.865607
0.866296
0.866215
-0.137186
-0.123411
-0.0721108
-0.00488526
0.0766789
0.164532
0.257826
0.35544
0.457057
0.561666
0.658037
0.731862
0.78335
0.819363
0.843716
0.859443
0.868064
0.871401
0.872066
0.87196
-0.157553
-0.143328
-0.0915734
-0.0231841
0.0597176
0.14927
0.244536
0.344357
0.448561
0.556503
0.656812
0.734142
0.788575
0.82596
0.850703
0.86604
0.873986
0.877037
0.877502
0.877407
-0.177554
-0.162578
-0.110421
-0.0410104
0.0430332
0.134068
0.231076
0.332882
0.439475
0.550528
0.654695
0.735835
0.793527
0.833096
0.858459
0.873097
0.880191
0.882359
0.882664
0.882535
-0.197103
-0.181349
-0.128764
-0.0584009
0.0266339
0.118939
0.217459
0.321082
0.429948
0.543818
0.651489
0.73679
0.798269
0.840686
0.867349
0.88129
0.88671
0.887421
0.887336
0.887223
-0.216067
-0.199704
-0.146634
-0.075368
0.0105306
0.103925
0.203772
0.309053
0.419973
0.536259
0.647045
0.736702
0.802413
0.848678
0.877761
0.891389
0.894611
0.892145
0.891534
0.89235
-0.234401
-0.2176
-0.164018
-0.0918987
-0.00522501
0.0891102
0.1901
0.296811
0.409464
0.527842
0.64151
0.735281
0.805684
0.856717
0.88978
0.904561
0.905605
0.899019
0.893759
0.892161
-0.252084
-0.234939
-0.180842
-0.107946
-0.0205825
0.0745533
0.17649
0.284368
0.398463
0.518698
0.634943
0.732244
0.80756
0.864482
0.90316
0.92169
0.924536
0.9122
0.910548
0.914834
-0.269114
-0.251636
-0.197041
-0.123455
-0.0354853
0.060311
0.162993
0.271798
0.387107
0.508964
0.62721
0.727491
0.807717
0.870806
0.916899
0.94249
0.950068
0.92182
0.880335
0.843335
-0.285436
-0.26769
-0.212632
-0.138482
-0.0500371
0.0462476
0.14946
0.258952
0.375229
0.498373
0.6181
0.720804
0.804993
0.874614
0.929712
0.966007
0.988291
0.973827
0.990641
1.04736
-0.301002
-0.283145
-0.227712
-0.153171
-0.0644168
0.0321469
0.135645
0.245537
0.362396
0.486307
0.607059
0.711232
0.798316
0.873003
0.933236
0.973683
0.989448
0.971458
0.931969
0.945503
-0.315792
-0.297985
-0.242237
-0.167465
-0.0785449
0.0181186
0.121697
0.231706
0.34871
0.472874
0.594229
0.698799
0.786104
0.861656
0.921968
0.961121
0.95281
0.901604
0.83879
0.82688
-0.329795
-0.312202
-0.256218
-0.181373
-0.0924169
0.00417737
0.107639
0.217482
0.33423
0.458175
0.57933
0.682876
0.76794
0.838583
0.892784
0.904596
0.871654
0.796793
0.723204
0.70266
-0.343051
-0.325795
-0.269665
-0.194912
-0.106055
-0.00969415
0.0934634
0.20288
0.319016
0.442163
0.562187
0.663691
0.742957
0.801707
0.831278
0.820387
0.76555
0.665147
0.578536
0.557408
-0.356016
-0.339169
-0.282982
-0.20846
-0.119819
-0.0238145
0.078889
0.187673
0.302901
0.424716
0.542676
0.640358
0.71227
0.755382
0.750954
0.717463
0.609204
0.487973
0.381369
0.355159
-0.369589
-0.353124
-0.296861
-0.222636
-0.134289
-0.0386825
0.0634923
0.17152
0.285601
0.405535
0.520553
0.613059
0.677737
0.696788
0.663412
0.577649
0.422955
0.271316
0.142996
0.116165
-0.384294
-0.368061
-0.311638
-0.237693
-0.149649
-0.0544296
0.0471823
0.154358
0.267082
0.384693
0.495793
0.58236
0.636013
0.627782
0.575147
0.427115
0.227999
0.0159956
-0.163601
-0.21128
-0.40024
-0.384081
-0.327354
-0.253636
-0.165883
-0.0710345
0.0299835
0.136216
0.247389
0.362219
0.468307
0.5494
0.588105
0.548765
0.461854
0.274463
0.0431995
-0.245617
-0.56727
-0.71404
-0.417504
-0.401263
-0.34415
-0.270576
-0.18304
-0.0885515
0.011833
0.117022
0.226473
0.338255
0.438616
0.513553
0.535394
0.465039
0.329165
0.123298
-0.111477
-0.456223
-1.0448
-1.61773
-0.436164
-0.41972
-0.362071
-0.288547
-0.201144
-0.106982
-0.00724023
0.0968612
0.204524
0.313121
0.407603
0.474759
0.478838
0.391151
0.200612
-0.0340989
-0.238026
-0.474434
-1.03392
-2.55889
-0.456242
-0.439494
-0.38125
-0.307702
-0.220352
-0.126517
-0.0274679
0.0754563
0.181197
0.286458
0.375173
0.432904
0.417178
0.333026
0.106831
-0.132683
-0.281733
-0.320311
-0.312412
-0.70252
-0.477674
-0.460809
-0.401821
-0.328305
-0.241068
-0.147663
-0.0494737
0.0520523
0.155571
0.256928
0.340219
0.38791
0.35648
0.284642
0.05701
-0.147349
-0.259254
-0.267746
-0.21496
-0.255707
-0.500261
-0.483481
-0.423817
-0.350457
-0.263367
-0.170527
-0.0733914
0.0264875
0.127414
0.224344
0.302904
0.340786
0.302799
0.232261
0.0246553
-0.138219
-0.220806
-0.228308
-0.276047
-0.280913
-0.524028
-0.507328
-0.447091
-0.374105
-0.287235
-0.195138
-0.0992702
-0.00128586
0.0967212
0.189143
0.263081
0.291725
0.256061
0.17258
-0.00299479
-0.128471
-0.199518
-0.174264
-0.195525
-0.197128
-0.548749
-0.531875
-0.471604
-0.399207
-0.31252
-0.221398
-0.127005
-0.0311392
0.0636494
0.151547
0.220831
0.239238
0.214935
0.105046
-0.0376727
-0.123227
-0.164864
-0.209254
-0.185012
-0.193208
-0.574144
-0.556864
-0.497157
-0.425507
-0.338994
-0.249159
-0.156429
-0.0628662
0.0283395
0.111955
0.177251
0.185707
0.172724
0.0441442
-0.0745666
-0.140059
-0.121494
-0.180764
-0.16038
-0.165171
-0.599351
-0.581834
-0.52363
-0.452684
-0.366325
-0.278149
-0.187212
-0.0960992
-0.00895785
0.0707498
0.133172
0.134223
0.121961
-0.00807837
-0.102676
-0.155965
-0.141222
-0.159731
-0.164139
-0.16295
-0.623925
-0.606562
-0.550167
-0.479947
-0.394174
-0.307998
-0.218958
-0.130441
-0.0477038
0.0282755
0.0892352
0.0860228
0.0654682
-0.0521449
-0.118054
-0.1506
-0.183874
-0.159867
-0.166551
-0.161841
-0.646911
-0.630256
-0.575758
-0.506514
-0.422161
-0.338129
-0.251091
-0.165272
-0.0869706
-0.0151226
0.0450401
0.0410829
0.0107433
-0.0892568
-0.135019
-0.126258
-0.19294
-0.147886
-0.160862
-0.15408
-0.667602
-0.652055
-0.599405
-0.531413
-0.449797
-0.367722
-0.282901
-0.199971
-0.125765
-0.0588808
0.000394088
-0.0022115
-0.0387277
-0.109291
-0.149187
-0.114073
-0.163256
-0.137728
-0.142632
-0.140348
-0.684489
-0.670538
-0.620367
-0.55416
-0.475951
-0.395795
-0.313542
-0.233629
-0.162971
-0.102071
-0.0438367
-0.0453721
-0.079369
-0.113505
-0.142623
-0.129386
-0.138047
-0.138492
-0.136306
-0.135495
-0.696689
-0.684787
-0.637625
-0.573829
-0.499141
-0.421339
-0.341958
-0.265267
-0.19768
-0.143381
-0.0870183
-0.087815
-0.123708
-0.117667
-0.114263
-0.125998
-0.120822
-0.143348
-0.139978
-0.142954
-0.702847
-0.693296
-0.650112
-0.589218
-0.517884
-0.443193
-0.367051
-0.293634
-0.228806
-0.180665
-0.126055
-0.128668
-0.180804
-0.152528
-0.0662717
-0.0800685
-0.0888541
-0.126996
-0.142713
-0.149136
-0.702748
-0.695297
-0.656212
-0.598832
-0.531201
-0.460007
-0.387345
-0.317188
-0.255267
-0.211062
-0.159811
-0.164465
-0.243047
-0.26956
-0.219747
-0.264503
-0.277071
-0.278329
-0.276122
-0.27253
-0.695451
-0.688193
-0.654183
-0.60136
-0.537878
-0.470649
-0.401568
-0.334253
-0.274366
-0.232035
-0.186787
-0.196004
-0.318713
-0.518001
-0.759435
-0.884632
-0.907794
-0.858176
-0.793178
-0.738609
-0.676439
-0.66845
-0.641615
-0.595439
-0.537222
-0.474161
-0.408606
-0.343232
-0.283352
-0.239981
-0.199399
-0.199246
-0.351461
-0.637878
-1.00369
-1.15945
-1.17017
-1.09821
-1.02356
-0.962684
-0.637821
-0.630396
-0.617319
-0.581221
-0.528987
-0.470258
-0.407994
-0.343026
-0.279605
-0.229821
-0.186824
-0.150001
-0.193986
-0.287106
-0.431531
-0.452292
-0.381834
-0.313299
-0.213659
-0.161974
-0.593343
-0.589843
-0.587319
-0.559534
-0.514962
-0.460465
-0.399829
-0.333684
-0.26333
-0.197358
-0.137575
-0.0285787
0.116667
0.359985
0.571351
0.769299
0.931829
1.03123
1.07941
1.11563
-0.56653
-0.567302
-0.559726
-0.539195
-0.500146
-0.447629
-0.386171
-0.317466
-0.237795
-0.147702
-0.0535454
0.104426
0.357223
0.745818
1.12653
1.43719
1.64649
1.76754
1.82334
1.84143
-0.534481
-0.535692
-0.529524
-0.520661
-0.486781
-0.435495
-0.371172
-0.29846
-0.212215
-0.107688
0.00578702
0.147627
0.417044
0.766896
1.11161
1.40446
1.61703
1.74354
1.80155
1.81897
-0.505999
-0.50485
-0.504268
-0.500863
-0.474447
-0.425618
-0.359223
-0.281927
-0.192918
-0.0854378
0.0294979
0.131982
0.366969
0.667539
0.953873
1.20072
1.39578
1.5146
1.56854
1.58375
-0.492261
-0.489631
-0.491012
-0.485809
-0.466177
-0.41762
-0.349327
-0.269864
-0.182321
-0.0817788
0.0265088
0.0963079
0.280416
0.530242
0.759164
0.954421
1.11389
1.2125
1.2563
1.26759
-0.489461
-0.487612
-0.4899
-0.488851
-0.469285
-0.412909
-0.341388
-0.261573
-0.178146
-0.0903955
0.0111004
0.0637628
0.196711
0.397223
0.578499
0.727377
0.847106
0.923774
0.957704
0.966473
-0.487634
-0.487987
-0.492595
-0.495241
-0.472045
-0.40651
-0.332481
-0.253529
-0.174735
-0.100996
-0.00639396
0.039594
0.12775
0.28338
0.42556
0.536477
0.622663
0.679195
0.703437
0.70804
-0.459093
-0.461189
-0.467892
-0.468682
-0.442968
-0.380798
-0.312593
-0.239258
-0.166965
-0.106132
-0.0209525
0.0228813
0.0783909
0.195001
0.302551
0.383157
0.444557
0.485569
0.502097
0.507608
-0.379522
-0.382732
-0.388545
-0.389027
-0.368167
-0.323831
-0.27211
-0.213146
-0.150905
-0.102196
-0.0305652
0.00977215
0.0451595
0.133479
0.211844
0.269209
0.313465
0.345164
0.356515
0.35972
-0.267245
-0.270054
-0.272864
-0.273618
-0.262581
-0.239647
-0.209748
-0.171909
-0.12603
-0.0895515
-0.034585
0.000120912
0.023564
0.0917307
0.147769
0.187208
0.219225
0.239787
0.249336
0.252256
-0.156774
-0.158319
-0.160357
-0.162669
-0.160576
-0.153744
-0.141935
-0.123125
-0.096049
-0.0711784
-0.033602
-0.00684042
0.0105045
0.0636626
0.101952
0.128546
0.149003
0.160975
0.166247
0.167386
-0.0694508
-0.0704263
-0.072205
-0.0760878
-0.08025
-0.0833765
-0.0833352
-0.0778243
-0.065622
-0.0516607
-0.0291035
-0.0102681
0.00233364
0.0417319
0.0674392
0.0847302
0.0963291
0.101656
0.102675
0.102192
-0.0106053
-0.0113614
-0.0130595
-0.0180818
-0.0261428
-0.0345034
-0.0404938
-0.0425178
-0.0396364
-0.0345756
-0.0223296
-0.0101697
-0.00010611
0.0234581
0.0395834
0.0500007
0.0556971
0.0568852
0.0559043
0.054716
0.0222784
0.0217038
0.0201713
0.0149597
0.00577771
-0.00443298
-0.0132219
-0.0190917
-0.0210281
-0.0215422
-0.015308
-0.00854311
-0.00133756
0.0109251
0.0192351
0.0240096
0.0257846
0.0250736
0.0233915
0.0219647
0.0374754
0.0370108
0.0356812
0.0309907
0.0224374
0.0123262
0.00276503
-0.00496582
-0.00921237
-0.0122064
-0.00940991
-0.00626962
-0.00336991
0.00227368
0.0057689
0.00705513
0.00678147
0.00515204
0.00309001
0.00158063
0.0418446
0.0415112
0.0404739
0.0367582
0.029751
0.0210047
0.0120316
0.00375915
-0.00141781
-0.00562249
-0.0047334
-0.00457002
-0.00511997
-0.0026809
-0.00218477
-0.00245233
-0.00390467
-0.00621425
-0.00826483
-0.0096569
0.0402578
0.0400119
0.039209
0.0364728
0.0312745
0.0245929
0.0172191
0.00969615
0.00441537
-0.000765482
-0.00120125
-0.00242455
-0.00464751
-0.00375515
-0.00445113
-0.00565714
-0.00785839
-0.0101608
-0.0118999
-0.013191
0.0361749
0.0359892
0.0353978
0.0334724
0.0297603
0.024949
0.0192861
0.0130939
0.0083908
0.00279716
0.00128776
-2.1963e-05
-0.00194723
-0.00135032
-0.00249519
-0.00464454
-0.00664588
-0.00850588
-0.00987184
-0.0110127
0.0314074
0.0312638
0.0308208
0.0294653
0.0268748
0.0233805
0.0191427
0.0143087
0.0104912
0.00532009
0.00373578
0.00257706
0.00113148
0.00144111
0.000554136
-0.00120665
-0.00314367
-0.004688
-0.00549268
-0.00641501
0.0269171
0.0268059
0.0265092
0.0255366
0.023655
0.0210518
0.0178128
0.0140026
0.0112407
0.00710322
0.00577663
0.00502659
0.00440825
0.00423632
0.00352379
0.00238556
0.00153843
0.00129051
0.00113606
0.000194434
0.0228538
0.022783
0.0225635
0.0219353
0.0206298
0.0186632
0.0162655
0.0132587
0.0111372
0.00787931
0.00727998
0.00648535
0.00587895
0.00637598
0.0065528
0.00638961
0.00644749
0.00650634
0.00662547
0.0058103
0.0189994
0.0189498
0.0187976
0.0183956
0.0174834
0.0160758
0.0143387
0.0120618
0.0105867
0.00805722
0.00779192
0.00763685
0.00670737
0.00709891
0.00788134
0.00903889
0.00956106
0.00970114
0.0100457
0.00936861
0.0153445
0.015298
0.0151831
0.0149537
0.0143329
0.0134363
0.0122079
0.0104685
0.00947525
0.00742168
0.00713402
0.00677623
0.00684035
0.00815427
0.00896013
0.0105307
0.0117787
0.0123494
0.0128026
0.0121523
0.0118295
0.0117807
0.0116867
0.0115667
0.0112053
0.0106782
0.00989703
0.00867024
0.0079274
0.00621657
0.00627172
0.00463644
0.00445537
0.00706758
0.00939257
0.0115277
0.0137856
0.0151295
0.0155651
0.0147424
0.00874557
0.00866482
0.00857658
0.00849477
0.00824809
0.00798623
0.00742177
0.00651106
0.0061731
0.0048511
0.0046525
0.0029671
0.00191589
0.00425979
0.00840172
0.0121061
0.014861
0.0161359
0.0164747
0.0157404
0.00603916
0.00597025
0.00590587
0.00585504
0.0057183
0.00554785
0.00523321
0.00463453
0.00444606
0.00319499
0.00308777
0.000993893
2.48666e-05
0.00281712
0.00627289
0.00984893
0.0130855
0.0147361
0.0150558
0.0142219
0.00364346
0.00356305
0.00351372
0.00342567
0.00329712
0.0031832
0.00310811
0.00279849
0.00296432
0.00163263
0.00214289
3.09725e-05
-0.000749536
0.00108267
0.00332619
0.00584654
0.00850187
0.0104093
0.0111767
0.0102914
0.00161313
0.00155648
0.00150506
0.00137779
0.00123635
0.00126374
0.00148016
0.00123901
0.00154696
0.000773177
0.00112644
0.000938217
0.0012261
0.000696072
0.000592027
-0.000239251
-0.00080565
-0.001048
-0.000252395
-0.000442449
-1.07621
-0.232176
0.0378922
0.315457
0.498815
0.65664
0.785519
0.916701
1.0598
1.14058
-0.0921805
0.316359
0.334327
0.523571
0.649283
0.761996
0.859193
0.945561
0.973313
0.930884
0.287652
0.502651
0.539206
0.676248
0.763363
0.844196
0.91078
0.960686
0.962997
0.976814
0.519
0.663169
0.698732
0.801664
0.858749
0.917352
0.962487
0.995015
1.00419
1.0278
0.698426
0.800795
0.830592
0.899186
0.943614
0.98522
1.01756
1.04194
1.05183
1.08335
0.842703
0.912061
0.942473
0.985859
1.02213
1.0525
1.07697
1.09776
1.11201
1.14024
0.962482
1.01335
1.03901
1.06722
1.09509
1.11901
1.1391
1.1584
1.17335
1.1998
1.06664
1.10379
1.12498
1.14579
1.16674
1.18624
1.20371
1.22183
1.23671
1.26035
1.1609
1.19012
1.20654
1.22191
1.23813
1.25425
1.26981
1.28671
1.3003
1.32261
1.24941
1.26992
1.28484
1.29806
1.31166
1.32543
1.33891
1.35348
1.36503
1.38467
1.33503
1.35085
1.36468
1.37649
1.38837
1.39998
1.4111
1.42279
1.43046
1.44727
1.42032
1.43289
1.44658
1.45828
1.46888
1.47865
1.48747
1.49574
1.4993
1.51056
1.50904
1.51984
1.5333
1.54281
1.55036
1.55764
1.56483
1.57134
1.57241
1.57979
1.60738
1.61195
1.62015
1.62492
1.62832
1.63281
1.6388
1.6465
1.65037
1.66025
1.72063
1.70753
1.70025
1.69453
1.69181
1.69317
1.69955
1.71192
1.72672
1.75638
1.84262
1.7866
1.75558
1.73839
1.73018
1.73014
1.73894
1.75852
1.7904
1.85964
)
;

boundaryField
{
    wall-4
    {
        type            zeroGradient;
    }
    pressure-outlet-7
    {
        type            fixedValue;
        value           uniform 0;
    }
    velocity-inlet-6
    {
        type            zeroGradient;
    }
    velocity-inlet-5
    {
        type            zeroGradient;
    }
    frontAndBackPlanes
    {
        type            empty;
    }
}


// ************************************************************************* //
