/*--------------------------------*- C++ -*----------------------------------*\
  =========                 |
  \\      /  F ield         | OpenFOAM: The Open Source CFD Toolbox
   \\    /   O peration     | Website:  https://openfoam.org
    \\  /    A nd           | Version:  9
     \\/     M anipulation  |
\*---------------------------------------------------------------------------*/
FoamFile
{
    format      ascii;
    class       surfaceScalarField;
    location    "45";
    object      phi;
}
// * * * * * * * * * * * * * * * * * * * * * * * * * * * * * * * * * * * * * //

dimensions      [0 3 -1 0 0 0 0];

internalField   nonuniform List<scalar> 
4262
(
0.107137
0.470851
0.0955712
0.705152
0.0693833
0.858491
0.0473635
1.02078
0.0309924
1.21489
0.0198076
1.4494
0.012437
1.73323
0.00728191
2.07619
0.0033765
2.48915
-0.000189975
2.98586
-0.0037707
2.98587
-0.00769528
2.48917
-0.0128382
2.07618
-0.0200962
1.73312
-0.0310952
1.44922
-0.0472198
1.21464
-0.0690233
1.02057
-0.0952702
0.85855
-0.107085
0.7054
0.470904
0.112893
0.357957
0.135316
0.68273
0.12043
0.873377
0.0979037
1.04331
0.0746794
1.23811
0.05296
1.47112
0.0345162
1.75168
0.0202275
2.09048
0.00885959
2.50052
-0.0013626
2.99608
-0.0115462
2.99606
-0.0226793
2.5003
-0.0366778
2.09018
-0.0547652
1.75121
-0.0764154
1.47087
-0.1
1.23823
-0.123016
1.04358
-0.136787
0.872322
-0.113491
0.682104
0.357412
0.0920901
0.265867
0.125062
0.649758
0.12123
0.877209
0.104966
1.05957
0.0863151
1.25676
0.0672199
1.49022
0.0483705
1.77053
0.0304063
2.10844
0.0139682
2.51695
-0.00186672
3.01192
-0.0175466
3.01174
-0.0336869
2.51644
-0.0512347
2.10773
-0.0698548
1.76983
-0.088401
1.48942
-0.105834
1.25566
-0.120251
1.058
-0.125328
0.877399
-0.0923642
0.64914
0.265048
0.0640098
0.201857
0.104878
0.60889
0.106692
0.875395
0.0953359
1.07093
0.08141
1.27069
0.0666376
1.50499
0.0505234
1.78664
0.0334128
2.12555
0.0157018
2.53467
-0.00303641
3.03065
-0.0214776
3.03018
-0.0385651
2.53353
-0.0549908
2.12415
-0.0702739
1.78511
-0.084173
1.50331
-0.0978687
1.26935
-0.109596
1.06973
-0.106731
0.874534
-0.0647665
0.607176
0.200281
0.0375335
0.164324
0.0808797
0.565544
0.0912482
0.865026
0.0841351
1.07804
0.0715857
1.28324
0.0597502
1.51683
0.0467394
1.79965
0.0318509
2.14044
0.0150894
2.55143
-0.00390128
3.04964
-0.0226389
3.04892
-0.0387563
2.54965
-0.0528043
2.1382
-0.0650867
1.79739
-0.0764869
1.51471
-0.0884711
1.28134
-0.0948057
1.07606
-0.0830604
0.862789
-0.0383269
0.562442
0.161955
0.019522
0.144802
0.0573571
0.527709
0.0727826
0.849601
0.0707209
1.0801
0.0620544
1.29191
0.0513235
1.52756
0.0401331
1.81084
0.0274974
2.15308
0.0123826
2.56654
-0.00530469
3.06733
-0.0225343
3.06614
-0.0367404
2.56385
-0.0483602
2.14982
-0.0584723
1.80751
-0.0681804
1.52442
-0.0758018
1.28896
-0.0767065
1.07697
-0.0597646
0.845847
-0.0203141
0.522992
0.141641
0.0106684
0.134134
0.0425122
0.495865
0.0588048
0.833308
0.0592055
1.0797
0.0530925
1.29802
0.0437922
1.53686
0.033544
1.82109
0.0222678
2.16436
0.00923845
2.57957
-0.0065404
3.08311
-0.0220196
3.08162
-0.0341059
2.57594
-0.0440031
2.15972
-0.0527991
1.8163
-0.0608602
1.53248
-0.065592
1.29369
-0.0637662
1.07514
-0.0455645
0.827645
-0.0116029
0.48903
0.130038
0.00661944
0.127514
0.0330786
0.469406
0.0493729
0.817014
0.0509348
1.07814
0.0459534
1.303
0.0376829
1.54513
0.028186
1.83059
0.01743
2.17511
0.00539935
2.5916
-0.00843262
3.09694
-0.0216561
3.09485
-0.0323108
2.58659
-0.0415578
2.16896
-0.0493246
1.82407
-0.0559146
1.53907
-0.0592197
1.297
-0.0557817
1.0717
-0.0369035
0.808767
-0.00778634
0.459913
0.122251
0.00476823
0.122746
0.0268023
0.447372
0.042815
0.801001
0.0450223
1.07593
0.0404414
1.30758
0.0328961
1.55267
0.0240013
1.83948
0.0137587
2.18535
0.00232325
2.60304
-0.0103617
3.10963
-0.0222727
3.10676
-0.0321862
2.59651
-0.0403963
2.17717
-0.0473274
1.831
-0.0530008
1.54475
-0.0555676
1.29956
-0.0508062
1.06694
-0.0314734
0.789434
-0.00621042
0.43465
0.116041
0.00386023
0.118886
0.0220244
0.429207
0.0374668
0.785559
0.0404516
1.07295
0.0362265
1.31181
0.0289345
1.55997
0.0202291
1.84819
0.0103008
2.19528
-0.000805337
2.61414
-0.0129344
3.12176
-0.0242653
3.11809
-0.0333676
2.60561
-0.0408951
2.1847
-0.0470215
1.83713
-0.0517645
1.54949
-0.0532085
1.30101
-0.0470678
1.0608
-0.0275919
0.769958
-0.00556613
0.412624
0.110475
0.003081
0.115805
0.0176177
0.414671
0.031675
0.771501
0.0349286
1.0697
0.0312229
1.31551
0.0245544
1.56663
0.01639
1.85635
0.0066917
2.20498
-0.0044184
2.62525
-0.0163406
3.13368
-0.0270525
3.1288
-0.0354931
2.61405
-0.0421829
2.19139
-0.0475081
1.84245
-0.051257
1.55324
-0.0516149
1.30137
-0.0441376
1.05332
-0.0246454
0.750466
-0.00523719
0.393216
0.105238
0.00240876
0.113396
0.0140532
0.403026
0.0269194
0.758635
0.0302884
1.06633
0.0265695
1.31923
0.019888
1.57332
0.0117963
1.86444
0.00248451
2.21429
-0.00794159
2.63568
-0.0194676
3.14521
-0.0299877
3.13932
-0.0379394
2.622
-0.0436274
2.19708
-0.047845
1.84667
-0.0506573
1.55605
-0.0500983
1.30081
-0.0415239
1.04475
-0.0223108
0.731253
-0.0049932
0.375898
0.100244
0.00172994
0.111666
0.0105558
0.3942
0.0215092
0.747682
0.0244327
1.0634
0.0207306
1.32293
0.0141049
1.57994
0.00602996
1.87252
-0.00315191
2.22347
-0.0136531
2.64618
-0.0249563
3.15651
-0.0343132
3.14868
-0.0407029
2.62839
-0.0453702
2.20175
-0.0489395
1.85024
-0.0508142
1.55793
-0.049484
1.29948
-0.0399044
1.03517
-0.0207427
0.712091
-0.00484339
0.359999
0.0954009
0.000918854
0.110747
0.00724109
0.387878
0.0165265
0.738396
0.0188675
1.06106
0.0146271
1.32717
0.00762005
1.58695
-0.000520349
1.88066
-0.00960654
2.23256
-0.0192634
2.65584
-0.029442
3.16669
-0.0380634
3.1573
-0.0437355
2.63406
-0.0473774
2.20539
-0.0502863
1.85315
-0.0515318
1.55917
-0.0495148
1.29746
-0.0387726
1.02443
-0.0196143
0.692933
-0.00475994
0.345145
0.090641
0.000125443
0.110622
0.00401412
0.383989
0.0108136
0.731597
0.0122636
1.05961
0.00789517
1.33154
0.000654416
1.59419
-0.00791039
1.88922
-0.017082
2.24173
-0.027113
2.66587
-0.0375928
3.17717
-0.0452876
3.16499
-0.0493518
2.63813
-0.0519226
2.20796
-0.0536882
1.85491
-0.053642
1.55913
-0.0501531
1.29397
-0.0382166
1.01249
-0.0189179
0.673634
-0.00471255
0.330939
0.0859284
-0.000789277
0.111411
0.000489525
0.382711
0.00541757
0.726669
0.00604572
1.05898
0.00103716
1.33655
-0.00685178
1.60208
-0.0159937
1.89837
-0.0258585
2.2516
-0.0357217
2.67573
-0.044717
3.18616
-0.0512696
3.17155
-0.0548525
2.64171
-0.0565952
2.2097
-0.0575406
1.85586
-0.0567219
1.55831
-0.0518482
1.2891
-0.0382822
0.998924
-0.0186543
0.654006
-0.00475367
0.317039
0.0811748
-0.00165335
0.113064
-0.0026858
0.383743
-0.00100888
0.724992
-0.00220266
1.06018
-0.00778286
1.34213
-0.0159464
1.61024
-0.0256191
1.90804
-0.0360465
2.26202
-0.0466396
2.68633
-0.0560534
3.19558
-0.0618643
3.17736
-0.0641209
2.64397
-0.0644944
2.21007
-0.0634586
1.85482
-0.0607508
1.5556
-0.0541738
1.28252
-0.0392678
0.984018
-0.0191029
0.633841
-0.00501634
0.302952
0.0761584
-0.00298467
0.116049
-0.00639727
0.387156
-0.00812282
0.726717
-0.0108614
1.06292
-0.0174655
1.34873
-0.0266835
1.61946
-0.0370998
1.91846
-0.0482644
2.27319
-0.0589777
2.69704
-0.0673099
3.20391
-0.0713524
3.1814
-0.0723133
2.64493
-0.0712134
2.20897
-0.0697088
1.85332
-0.0661415
1.55203
-0.0575595
1.27394
-0.0408045
0.967263
-0.0197869
0.612824
-0.00528763
0.288453
0.0708708
-0.00439708
0.120446
-0.0108868
0.393645
-0.0161129
0.731944
-0.0220704
1.06887
-0.0298801
1.35654
-0.0398499
1.62943
-0.0511685
1.92977
-0.0630814
2.2851
-0.074549
2.70851
-0.0836797
3.21304
-0.087701
3.18542
-0.0873486
2.64458
-0.0842482
2.20587
-0.0794518
1.84852
-0.0730425
1.54562
-0.0623444
1.26324
-0.0434843
0.948403
-0.0211176
0.590457
-0.00575167
0.273087
0.0651191
-0.00580075
0.126247
-0.0158545
0.403699
-0.0251032
0.741192
-0.03337
1.07714
-0.0433213
1.36649
-0.0557378
1.64185
-0.0688239
1.94286
-0.0819174
2.2982
-0.0934858
2.72007
-0.10097
3.22052
-0.101584
3.18604
-0.0981215
2.64111
-0.0933078
2.20106
-0.0883639
1.84358
-0.081159
1.53842
-0.0679484
1.25003
-0.0464538
0.926908
-0.022539
0.566542
-0.00618269
0.256731
0.0589364
-0.00826302
0.13451
-0.0233812
0.418817
-0.0385272
0.756338
-0.05066
1.08927
-0.0622019
1.37804
-0.0759313
1.65558
-0.0907563
1.95768
-0.105267
2.31271
-0.117271
2.73208
-0.124186
3.22744
-0.123972
3.18582
-0.119327
2.63647
-0.112209
2.19394
-0.102943
1.83431
-0.091607
1.52708
-0.0751329
1.23355
-0.0506898
0.902465
-0.0247182
0.540571
-0.00678974
0.238802
0.0521467
-0.0107779
0.145288
-0.0308089
0.438848
-0.0516199
0.777149
-0.0681954
1.10585
-0.0832561
1.3931
-0.100271
1.67259
-0.117247
1.97466
-0.132913
2.32837
-0.144853
2.74402
-0.149941
3.23253
-0.14597
3.18185
-0.136667
2.62716
-0.126011
2.18329
-0.115914
1.82422
-0.103586
1.51475
-0.0839236
1.21389
-0.0559543
0.874496
-0.0273403
0.511957
-0.00739375
0.218856
0.0447529
-0.0154567
0.160744
-0.0428061
0.466198
-0.0701898
0.804533
-0.0919073
1.12757
-0.110476
1.41167
-0.130339
1.69245
-0.149886
1.99421
-0.167312
2.3458
-0.179708
2.75641
-0.183499
3.23632
-0.177149
3.1755
-0.165929
2.61595
-0.153203
2.17056
-0.138068
1.80908
-0.120083
1.49677
-0.0957185
1.18953
-0.0633036
0.842081
-0.0308714
0.479524
-0.00812654
0.196111
0.0366264
-0.0196123
0.180357
-0.0557187
0.502304
-0.0924702
0.841284
-0.121059
1.15616
-0.145114
1.43572
-0.169667
1.71701
-0.191606
2.01615
-0.209247
2.36344
-0.219825
2.76699
-0.2201
3.23659
-0.209598
3.165
-0.19364
2.59999
-0.1759
2.15282
-0.158875
1.79206
-0.138966
1.47686
-0.109935
1.1605
-0.071949
0.804095
-0.0345748
0.44215
-0.0087688
0.170305
0.0278576
-0.0327048
0.213061
-0.081811
0.55141
-0.12834
0.887813
-0.163769
1.19158
-0.193746
1.4657
-0.221655
1.74492
-0.244729
2.03922
-0.261992
2.3807
-0.270558
2.77556
-0.266251
3.23228
-0.249744
3.14849
-0.22959
2.57983
-0.209655
2.13288
-0.187995
1.77039
-0.161203
1.45007
-0.125633
1.12493
-0.0813865
0.759849
-0.038419
0.399183
-0.00921959
0.141106
0.018638
-0.0473706
0.260432
-0.120815
0.624855
-0.182892
0.94989
-0.226209
1.2349
-0.261531
1.50102
-0.290605
1.77399
-0.311794
2.06041
-0.324845
2.39375
-0.326533
2.77725
-0.314659
3.22041
-0.292555
3.12639
-0.267493
2.55477
-0.241262
2.10665
-0.215233
1.74437
-0.185027
1.41986
-0.142798
1.0827
-0.0901835
0.707235
-0.0403354
0.349335
-0.00908644
0.109857
0.00955158
-0.0339245
0.294357
-0.0965898
0.68752
-0.153549
1.00685
-0.199951
1.2813
-0.24223
1.5433
-0.278955
1.81071
-0.312811
2.09427
-0.342366
2.42331
-0.363707
2.79859
-0.371234
3.22794
-0.358669
3.11382
-0.335475
2.53158
-0.308845
2.08002
-0.274973
1.71049
-0.22947
1.37436
-0.169043
1.02227
-0.0983706
0.636563
-0.0390089
0.289973
-0.00859624
0.0794439
0.00095534
-0.0125529
0.306909
-0.0470859
0.722053
-0.0883406
1.0481
-0.127041
1.32
-0.164851
1.58111
-0.198115
1.84398
-0.228729
2.12488
-0.253928
2.44851
-0.269218
2.81388
-0.267493
3.22621
-0.249886
3.09622
-0.223674
2.50536
-0.191041
2.04739
-0.156666
1.67612
-0.119317
1.33701
-0.0761631
0.979115
-0.0350505
0.59545
-0.0104938
0.265416
-0.00205602
0.0710061
-0.00110068
0.000509766
0.3064
-0.0236866
0.746249
-0.0528868
1.0773
-0.0828255
1.34994
-0.113728
1.61201
-0.143879
1.87413
-0.171241
2.15224
-0.193233
2.4705
-0.205979
2.82662
-0.205129
3.22536
-0.18585
3.07694
-0.155413
2.47493
-0.12363
2.01561
-0.0896637
1.64215
-0.0520552
1.2994
-0.0162221
0.943281
0.00555591
0.573672
0.00769418
0.263278
0.00244484
0.0762555
0.00134416
0.00101493
0.305385
-0.012343
0.759607
-0.0340219
1.09898
-0.0587641
1.37468
-0.0843873
1.63763
-0.10945
1.89919
-0.132748
2.17554
-0.151188
2.48894
-0.160379
2.83581
-0.154832
3.21982
-0.133961
3.05607
-0.1078
2.44877
-0.0768383
1.98465
-0.0420028
1.60732
-0.012522
1.26992
0.00914312
0.921616
0.0185651
0.56425
0.0138212
0.268022
0.00444242
0.0856342
0.00578658
0.00408933
0.301295
-0.00504207
0.768739
-0.0233653
1.11731
-0.0443196
1.39564
-0.0661488
1.65946
-0.0877836
1.92083
-0.108017
2.19578
-0.124241
2.50516
-0.133412
2.84499
-0.129965
3.21637
-0.111723
3.03783
-0.0846918
2.42174
-0.0543061
1.95426
-0.0260275
1.57904
0.00280857
1.24109
0.0226006
0.901824
0.0257537
0.561097
0.0165401
0.277235
0.00512136
0.097053
0.0109079
0.00525288
0.296043
-0.000789332
0.774781
-0.0170992
1.13362
-0.0360004
1.41454
-0.0554969
1.67896
-0.0746036
1.93993
-0.0926759
2.21385
-0.10755
2.52004
-0.115415
2.85285
-0.110874
3.21183
-0.0947933
3.02174
-0.0739885
2.40093
-0.0468489
1.92712
-0.0164121
1.5486
0.00715893
1.21751
0.0225774
0.886406
0.0246142
0.55906
0.0152275
0.286622
0.0047476
0.107533
0.0156555
0.00384692
0.292196
-0.00060996
0.779238
-0.0142019
1.14721
-0.0312996
1.43164
-0.0490355
1.6967
-0.0667674
1.95766
-0.0837029
2.23078
-0.0977464
2.53408
-0.105796
2.8609
-0.104938
3.21097
-0.091593
3.0084
-0.0674049
2.37674
-0.0424117
1.90213
-0.0192743
1.52546
0.00456177
1.19368
0.0189584
0.872009
0.0198
0.558219
0.0122265
0.294196
0.00375315
0.116006
0.0194087
0.00265003
0.289546
-0.000976334
0.782864
-0.013419
1.15965
-0.0290712
1.44729
-0.0458421
1.71347
-0.0624208
1.97424
-0.0783288
2.24669
-0.092016
2.54777
-0.100796
2.86968
-0.100267
3.21044
-0.086221
2.99435
-0.0673991
2.35792
-0.0455102
1.88024
-0.02042
1.50037
-0.000625692
1.17388
0.0108751
0.860508
0.0135891
0.555505
0.0079983
0.299786
0.00247005
0.121535
0.0218787
0.000165423
0.28938
-0.00346237
0.786492
-0.0143805
1.17057
-0.0283694
1.46128
-0.0440316
1.72913
-0.059975
1.99019
-0.0757522
2.26247
-0.0900611
2.56208
-0.100185
2.8798
-0.100733
3.21099
-0.090492
2.98411
-0.0722342
2.33966
-0.0499434
1.85795
-0.0293343
1.47976
-0.0100628
1.15461
0.002634
0.847812
0.00481506
0.553324
0.00344199
0.301159
0.00129911
0.123677
0.0231778
-0.000497364
0.289878
-0.00519616
0.791191
-0.0154055
1.18078
-0.0285749
1.47445
-0.0436039
1.74416
-0.0590499
2.00563
-0.0746631
2.27808
-0.0890089
2.57642
-0.0992339
2.89003
-0.101625
3.21338
-0.093092
2.97558
-0.0763271
2.3229
-0.0568673
1.83849
-0.0353038
1.4582
-0.0191211
1.13843
-0.00830639
0.836997
-0.00217892
0.547196
-0.00155459
0.300535
-0.00033126
0.122454
0.0228466
-0.00203995
0.291918
-0.00738203
0.796533
-0.0169575
1.19035
-0.0292201
1.48671
-0.0434524
1.75839
-0.0585584
2.02074
-0.0742278
2.29375
-0.0893478
2.59154
-0.101946
2.90263
-0.107656
3.21909
-0.0991881
2.96711
-0.0831723
2.30688
-0.0626796
1.818
-0.0450164
1.44054
-0.0274568
1.12087
-0.0147874
0.824327
-0.00844357
0.540852
-0.00381109
0.295903
-0.000966751
0.11961
0.0218798
-0.00347906
0.295397
-0.0088465
0.8019
-0.0181106
1.19962
-0.0299754
1.49858
-0.0437274
1.77214
-0.0584528
2.03546
-0.0741698
2.30947
-0.0898903
2.60726
-0.102933
2.91567
-0.109048
3.22521
-0.103645
2.96171
-0.0887373
2.29197
-0.0716912
1.80095
-0.0513645
1.42021
-0.0352148
1.10472
-0.0225626
0.811675
-0.0128051
0.531095
-0.00654063
0.289638
-0.00174515
0.114814
0.0201347
-0.00418257
0.299579
-0.0102264
0.807944
-0.0193306
1.20872
-0.0306355
1.50988
-0.0437758
1.78528
-0.0582364
2.04992
-0.074122
2.32535
-0.0904951
2.62364
-0.105575
2.93075
-0.11591
3.23554
-0.112726
2.95852
-0.0982625
2.27751
-0.0771484
1.77984
-0.0588371
1.4019
-0.0409638
1.08685
-0.0268099
0.797521
-0.0169186
0.521204
-0.00747094
0.280191
-0.00197053
0.109314
0.0181642
-0.00433736
0.303917
-0.0108729
0.81448
-0.0199577
1.21781
-0.0310293
1.52095
-0.0438843
1.79814
-0.0580773
2.06412
-0.0739744
2.34125
-0.0908691
2.64053
-0.106894
2.94677
-0.117853
3.2465
-0.116923
2.95759
-0.104984
2.26557
-0.0874291
1.76228
-0.064517
1.37899
-0.046398
1.06873
-0.0313976
0.782521
-0.0180201
0.507826
-0.00829652
0.270467
-0.00196722
0.102985
0.0161969
-0.00440882
0.308325
-0.0114677
0.821538
-0.0205019
1.22684
-0.0311844
1.53164
-0.0435873
1.81054
-0.057542
2.07807
-0.0735122
2.35722
-0.0909439
2.65796
-0.108619
2.96445
-0.123195
3.26108
-0.126084
2.96048
-0.114931
2.25442
-0.0927796
1.74013
-0.0712499
1.35746
-0.0491396
1.04662
-0.0318413
0.765223
-0.0190138
0.494999
-0.00759804
0.259051
-0.00160662
0.0969931
0.0145903
-0.00446005
0.312785
-0.0116349
0.828713
-0.0204971
1.2357
-0.0309797
1.54212
-0.0431663
1.82273
-0.0568815
2.09179
-0.0727972
2.37314
-0.0906431
2.67581
-0.10919
2.983
-0.124757
3.27664
-0.129956
2.96568
-0.120811
2.24527
-0.103822
1.72314
-0.0771215
1.33076
-0.0520754
1.02157
-0.0307476
0.743895
-0.0142169
0.478468
-0.00511902
0.249953
-0.000555056
0.0924292
0.0140353
-0.00453465
0.31732
-0.0118127
0.835991
-0.0204694
1.24436
-0.0305752
1.55222
-0.0423335
1.83448
-0.0558015
2.10526
-0.0717241
2.38906
-0.0899329
2.69402
-0.109656
3.00272
-0.128044
3.29503
-0.137193
2.97483
-0.130989
2.23907
-0.110106
1.70226
-0.0842945
1.30495
-0.0525146
0.989792
-0.0254451
0.716825
-0.00727275
0.460296
0.000345523
0.242335
-0.00183393
0.0946086
0.0122013
-0.004526
0.321846
-0.0116712
0.843137
-0.0200285
1.25272
-0.0298607
1.56206
-0.0413682
1.84599
-0.054596
2.11848
-0.0703903
2.40485
-0.0887671
2.71239
-0.109047
3.023
-0.128664
3.31465
-0.139843
2.98601
-0.136857
2.23608
-0.122527
1.68793
-0.0921759
1.27459
-0.0552128
0.952829
-0.0157352
0.677348
0.0188298
0.42573
0.0334121
0.227753
0.0244651
0.103556
0.0366664
-0.00444179
0.326288
-0.0115189
0.850214
-0.0196279
1.26083
-0.0290511
1.57148
-0.0400977
1.85704
-0.05302
2.13141
-0.0686714
2.4205
-0.0871563
2.73088
-0.10824
3.04408
-0.130107
3.33651
-0.144193
3.0001
-0.146472
2.23836
-0.130038
1.67149
-0.101998
1.24655
-0.0567764
0.907608
-0.00895428
0.629526
0.0372617
0.379514
0.0442594
0.220755
0.0193573
0.128458
0.0560237
-0.00426439
0.330552
-0.0111271
0.857076
-0.0189009
1.2686
-0.0279863
1.58056
-0.0387612
1.86781
-0.0513857
2.14403
-0.0667938
2.43591
-0.0852662
2.74935
-0.106682
3.0655
-0.129491
3.35932
-0.146019
3.01662
-0.151268
2.24361
-0.144289
1.66451
-0.115613
1.21788
-0.0696211
0.861616
0.00391671
0.555988
0.104675
0.278756
0.186826
0.138603
0.18032
0.134965
0.236343
-0.00413351
0.334686
-0.0109535
0.863896
-0.0186953
1.27634
-0.0277185
1.58959
-0.0385636
1.87866
-0.051592
2.15706
-0.0678874
2.45221
-0.0879214
2.76939
-0.112069
3.08965
-0.13959
3.38684
-0.162156
3.03919
-0.173977
2.25543
-0.167765
1.6583
-0.144298
1.19441
-0.093356
0.810674
-0.0394753
0.502107
-0.0809715
0.320253
-0.359396
0.417028
-0.938815
0.714383
0.898891
-1.60136
-0.00394787
0.338634
-0.0105518
0.8705
-0.0180477
1.28384
-0.0269255
1.59847
-0.0377241
1.88946
-0.0508681
2.1702
-0.0675417
2.46888
-0.0884575
2.7903
-0.114251
3.11544
-0.144884
3.41748
-0.172799
3.0671
-0.18973
2.27237
-0.201373
1.66994
-0.190449
1.18349
-0.169831
0.790055
-0.257009
0.589285
-0.692831
0.756075
-1.43538
1.15958
-2.04466
1.32367
1.21755
-2.36332
-0.00374547
0.342379
-0.0101358
0.876891
-0.0174394
1.29114
-0.0260871
1.60711
-0.0366708
1.90004
-0.0498495
2.18338
-0.0668842
2.48592
-0.0886285
2.81205
-0.11629
3.1431
-0.150845
3.45203
-0.184421
3.10068
-0.21191
2.29985
-0.225557
1.68359
-0.222284
1.18021
-0.309305
0.877077
-0.753194
1.03317
-1.53608
1.53896
-2.10593
1.72943
-2.34628
1.56401
1.33225
-2.46098
-0.00355483
0.345934
-0.00958709
0.882923
-0.0165601
1.29812
-0.0249978
1.61555
-0.035471
1.91051
-0.0487003
2.19661
-0.0659967
2.50321
-0.088495
2.83454
-0.117795
3.1724
-0.155747
3.48998
-0.19626
3.14119
-0.228854
2.33245
-0.261155
1.71589
-0.345773
1.26483
-0.690944
1.22225
-1.43192
1.77415
-2.02374
2.13078
-2.26427
1.96997
-2.37797
1.67771
1.39705
-2.44277
-0.00329261
0.349227
-0.00898652
0.888617
-0.0156853
1.30481
-0.0238344
1.6237
-0.0341012
1.92078
-0.0472784
2.20979
-0.0647935
2.52073
-0.0879712
2.85772
-0.118972
3.2034
-0.160614
3.53163
-0.207295
3.18787
-0.253813
2.37897
-0.30091
1.76299
-0.481693
1.44561
-1.09074
1.83129
-1.78303
2.46645
-2.10635
2.45409
-2.25543
2.11905
-2.33778
1.76006
1.46282
-2.40355
-0.00322399
0.352451
-0.00879307
0.894186
-0.0154059
1.31143
-0.023605
1.6319
-0.0341656
1.93134
-0.0476634
2.22329
-0.0656729
2.53874
-0.0897788
2.88183
-0.122447
3.23607
-0.16764
3.57682
-0.221949
3.24218
-0.271146
2.42816
-0.363168
1.85501
-0.750578
1.83302
-1.48634
2.56706
-1.96215
2.94225
-2.16247
2.65441
-2.26897
2.22555
-2.34602
1.83711
1.52659
-2.40979
-0.00331681
0.355767
-0.00916637
0.900035
-0.0161967
1.31846
-0.0248006
1.6405
-0.0357858
1.94233
-0.0498842
2.23738
-0.0687672
2.55762
-0.0941059
2.90717
-0.128788
3.27075
-0.177786
3.62582
-0.235303
3.2997
-0.301059
2.49392
-0.491571
2.04552
-1.04483
2.38629
-1.67484
3.19707
-1.95281
3.22023
-2.10021
2.80181
-2.21428
2.33962
-2.30786
1.93069
1.58846
-2.36973
-0.00336703
0.359134
-0.00949193
0.90616
-0.0168483
1.32581
-0.0259398
1.64959
-0.0375208
1.95391
-0.0523363
2.2522
-0.0721093
2.57739
-0.0987288
2.93379
-0.135251
3.30728
-0.187772
3.67834
-0.252213
3.36414
-0.340593
2.5823
-0.621654
2.32658
-1.26116
3.02579
-1.75185
3.68776
-1.95939
3.42777
-2.10003
2.94245
-2.22407
2.46366
-2.33503
2.04165
1.64718
-2.39375
-0.00335232
0.362487
-0.00978173
0.91259
-0.0176967
1.33373
-0.0272932
1.65919
-0.0393281
1.96594
-0.0547826
2.26765
-0.0754826
2.59809
-0.103357
2.96166
-0.141823
3.34574
-0.197062
3.73358
-0.265188
3.43227
-0.391565
2.70868
-0.775587
2.71061
-1.40699
3.65719
-1.76254
4.0433
-1.93617
3.6014
-2.03866
3.04494
-2.12776
2.55276
-2.19566
2.10955
1.64021
-2.18869
-0.00327991
0.365767
-0.00996021
0.91927
-0.0182098
1.34198
-0.028358
1.66934
-0.0411112
1.9787
-0.0573646
2.28391
-0.0789963
2.61972
-0.108164
2.99083
-0.148368
3.38595
-0.205946
3.79115
-0.286119
3.51244
-0.45654
2.8791
-0.905352
3.15942
-1.46071
4.21255
-1.72376
4.30635
-1.87669
3.75434
-1.97045
3.13869
-1.9727
2.55502
-1.90492
2.04177
1.60706
-1.87177
-0.00307387
0.36884
-0.0100027
0.926199
-0.0188496
1.35083
-0.0294623
1.67995
-0.0425342
1.99177
-0.0591532
2.30053
-0.081205
2.64178
-0.110729
3.02035
-0.15137
3.42659
-0.207774
3.84756
-0.293466
3.59813
-0.4985
3.08413
-0.984788
3.64571
-1.42724
4.65501
-1.59442
4.47353
-1.66247
3.82239
-1.66755
3.14377
-1.52061
2.40808
-1.02091
1.54206
0.586148
-0.00263546
0.371476
-0.00982512
0.933389
-0.0189698
1.35997
-0.0302768
1.69126
-0.0444923
2.00598
-0.0625246
2.31856
-0.0864449
2.6657
-0.118667
3.05257
-0.163117
3.47104
-0.226573
3.91102
-0.331273
3.70283
-0.584901
3.33776
-1.12029
4.1811
-1.48079
5.01551
-1.58104
4.57377
-1.57929
3.82063
-1.47676
3.04125
-1.23761
2.16893
-0.635613
0.940066
-0.0494651
-0.00211999
0.373596
-0.00928789
0.940556
-0.0191017
1.36978
-0.0311454
1.7033
-0.0461085
2.02095
-0.0653244
2.33778
-0.0910667
2.69144
-0.125902
3.08741
-0.174784
3.51992
-0.243947
3.98018
-0.365715
3.8246
-0.678479
3.65052
-1.23641
4.73903
-1.5005
5.2796
-1.56015
4.63343
-1.53933
3.79981
-1.33734
2.83926
-0.787442
1.61904
-0.110878
0.263502
-0.160343
-0.00159943
0.375195
-0.00846968
0.947427
-0.0182596
1.37957
-0.0309128
1.71596
-0.0469846
2.03702
-0.0676062
2.3584
-0.0952483
2.71908
-0.132875
3.12503
-0.185133
3.57218
-0.263003
4.05805
-0.412459
3.97405
-0.781989
4.02005
-1.31616
5.2732
-1.49475
5.45818
-1.52613
4.66481
-1.43873
3.71241
-1.10611
2.50664
-0.317388
0.830317
0.0261845
-0.0800701
-0.134159
-0.000607276
0.375803
-0.00673579
0.953555
-0.0171046
1.38994
-0.030491
1.72934
-0.0471095
2.05364
-0.0687803
2.38007
-0.098095
2.7484
-0.138007
3.16495
-0.193296
3.62747
-0.279362
4.14412
-0.452327
4.14702
-0.885152
4.45288
-1.35876
5.7468
-1.47737
5.5768
-1.48088
4.66832
-1.26131
3.49284
-0.694309
1.93963
-0.0637039
0.199711
0.0313456
-0.17512
-0.102813
0.000650043
0.375153
-0.00431057
0.958516
-0.0143497
1.39998
-0.0281896
1.74318
-0.0456415
2.07109
-0.0685793
2.40301
-0.0995534
2.77937
-0.141737
3.20713
-0.199756
3.68549
-0.294906
4.23927
-0.497231
4.34934
-0.979107
4.93475
-1.35638
6.12408
-1.42158
5.642
-1.37852
4.62526
-1.0893
3.20362
-0.32995
1.18029
0.00260371
-0.132843
0.0142607
-0.186777
-0.0885523
0.00309714
0.372055
0.000174982
0.961438
-0.0106926
1.41085
-0.0251453
1.75763
-0.0426553
2.0886
-0.0663888
2.42674
-0.0984927
2.81147
-0.142214
3.25085
-0.202984
3.74626
-0.305898
4.34218
-0.529424
4.57287
-1.03644
5.44177
-1.31596
6.40361
-1.35775
5.68378
-1.22338
4.49089
-0.783708
2.76395
-0.0772144
0.473792
0.0463265
-0.256384
0.0258809
-0.166331
-0.0626714
0.00505785
0.366998
0.00362905
0.962867
-0.00534733
1.41983
-0.0189561
1.77124
-0.0368358
2.10648
-0.0613944
2.4513
-0.0944665
2.84455
-0.139587
3.29597
-0.202311
3.80898
-0.312505
4.45237
-0.567661
4.82803
-1.05881
5.93292
-1.25213
6.59693
-1.26458
5.69623
-1.05033
4.27664
-0.467995
2.18161
-0.00997185
0.0157689
0.00163428
-0.26799
0.0104047
-0.175101
-0.0522666
0.0083633
0.358634
0.00963542
0.961595
0.00234717
1.42711
-0.0107627
1.78435
-0.0285014
2.12422
-0.0530888
2.47589
-0.0861728
2.87763
-0.131198
3.341
-0.195387
3.87317
-0.311793
4.56878
-0.583433
5.09967
-1.03282
6.38231
-1.15685
6.72095
-1.14495
5.68434
-0.892054
4.02374
-0.271233
1.56079
-0.0644941
-0.19097
-0.0353463
-0.297138
-0.0112961
-0.199152
-0.0635627
0.0119648
0.34667
0.0173323
0.956227
0.0130701
1.43138
0.00251044
1.79491
-0.0157622
2.14249
-0.039654
2.49978
-0.0721155
2.91009
-0.116909
3.38579
-0.180955
3.93721
-0.29976
4.68759
-0.580089
5.37999
-0.966058
6.76828
-1.03751
6.79241
-0.972485
5.61931
-0.69595
3.74721
-0.103657
0.968495
-0.0276658
-0.266961
-0.0253357
-0.299468
-0.00975141
-0.214736
-0.0733141
0.0179639
0.328706
0.0291448
0.945046
0.0275945
1.43293
0.0175433
1.80496
0.00104892
2.15898
-0.0206011
2.52143
-0.0512156
2.94071
-0.0936856
3.42826
-0.15543
3.99896
-0.273741
4.8059
-0.537663
5.64392
-0.849849
7.08046
-0.885331
6.82789
-0.790476
5.52445
-0.46223
3.41896
0.0293536
0.476912
0.0455591
-0.283166
0.0283322
-0.282241
0.00907246
-0.195476
-0.0642416
0.0244048
0.304301
0.0430186
0.926432
0.0469138
1.42903
0.0402683
1.81161
0.027745
2.17151
0.00763875
2.54153
-0.0206121
2.96896
-0.0598405
3.46749
-0.11774
4.05686
-0.227828
4.91599
-0.457343
5.87343
-0.684981
7.3081
-0.728639
6.87155
-0.617909
5.41372
-0.287583
3.08863
0.0160517
0.173277
0.0272736
-0.294388
0.033679
-0.288646
0.01845
-0.180247
-0.0457916
0.0339241
0.270377
0.0629303
0.897426
0.0732431
1.41872
0.0707164
1.81414
0.061574
2.18065
0.0445641
2.55854
0.0203709
2.99315
-0.013923
3.50178
-0.0635273
4.10646
-0.155111
5.00757
-0.331562
6.04988
-0.482284
7.45882
-0.530707
6.91997
-0.450503
5.33352
-0.138592
2.77672
-0.0221288
0.0568137
-0.0119452
-0.304572
0.0235079
-0.324099
0.0410141
-0.197753
-0.00477752
0.043503
0.226874
0.085603
0.855326
0.10594
1.39838
0.110452
1.80962
0.106487
2.18461
0.0943264
2.5707
0.0767035
3.01077
0.0504414
3.52804
0.00638826
4.15051
-0.0528581
5.06682
-0.170259
6.16728
-0.250033
7.5386
-0.274599
6.94454
-0.289666
5.34859
-0.169499
2.65656
-0.281527
0.168842
-0.24605
-0.340049
-0.1212
-0.448949
0.00953138
-0.328485
0.00475387
0.0551824
0.171691
0.115281
0.795228
0.14978
1.36388
0.16211
1.79729
0.164033
2.18269
0.157203
2.57753
0.146974
3.021
0.131488
3.54353
0.109897
4.17211
0.0783108
5.0984
0.0637582
6.18184
0.0452467
7.55711
-0.0230854
7.01287
-0.186855
5.51236
-0.406027
2.87573
-0.693012
0.455827
-0.676533
-0.356528
-0.484445
-0.641038
-0.222543
-0.590386
-0.21779
0.0586868
0.113005
0.144937
0.708977
0.199273
1.30955
0.225316
1.77125
0.236804
2.1712
0.23802
2.57632
0.236904
3.02212
0.233756
3.54668
0.232081
4.17378
0.236734
5.09375
0.33263
6.08594
0.435097
7.45464
0.413908
7.03406
0.30519
5.62108
-0.0925067
3.27342
-0.595305
0.958625
-0.796689
-0.155144
-0.64715
-0.790577
-0.359398
-0.878137
-0.577188
0.0510346
0.06197
0.174906
0.585106
0.262777
1.22168
0.305031
1.729
0.326417
2.14982
0.337597
2.56514
0.345434
3.01428
0.358682
3.53343
0.38485
4.14761
0.437335
5.04126
0.66717
5.85611
0.994756
7.12705
1.26621
6.76261
1.45345
5.43383
1.09536
3.63152
0.441596
1.61239
-0.0490799
0.335531
-0.285137
-0.554519
-0.236515
-0.92676
-0.813702
0.0364482
0.0255218
0.206514
0.41504
0.325692
1.1025
0.397707
1.65698
0.435554
2.11197
0.459141
2.54155
0.475351
2.99807
0.501805
3.50698
0.553712
4.09571
0.6701
4.92488
1.02761
5.49859
1.65757
6.49709
2.05509
6.36509
2.32219
5.16673
2.18421
3.7695
1.61293
2.18367
1.08613
0.862334
0.487972
0.0436347
0.152469
-0.591257
-0.661234
0.0313705
-0.00584867
0.227699
0.218712
0.412011
0.918185
0.511957
1.55704
0.563951
2.05998
0.601475
2.50403
0.628735
2.97081
0.667255
3.46846
0.744687
4.01827
0.900182
4.76938
1.31962
5.07915
2.08578
5.73094
2.48465
5.96622
2.68785
4.96353
2.61842
3.83893
2.13521
2.66688
1.5336
1.46395
0.993638
0.583592
0.428703
-0.0263214
-0.23253
0.0283558
-0.0342044
0.18039
0.0666778
0.46367
0.634904
0.635261
1.38545
0.71603
1.97921
0.76266
2.4574
0.801372
2.9321
0.840622
3.42921
0.913319
3.94558
1.05686
4.62584
1.36271
4.7733
2.08733
5.00631
2.4435
5.61005
2.58415
4.82288
2.51301
3.91006
2.17515
3.00474
1.60092
2.03818
1.00929
1.17523
0.415977
0.56699
0.183447
0.0110958
-0.0453002
0.0950791
-0.0173056
0.403797
0.326187
0.634677
1.15457
0.746199
1.86769
0.779437
2.42416
0.789751
2.92179
0.77915
3.43981
0.773478
3.95125
0.809579
4.58974
0.894429
4.68845
1.2178
4.68294
1.43966
5.38819
1.43959
4.82295
1.36246
3.98719
1.18868
3.17852
0.883502
2.34335
0.550064
1.50866
0.231883
0.885171
0.41533
-0.00278256
-0.0425176
0.037235
-0.0573231
0.240353
0.123068
0.475435
0.919484
0.591025
1.7521
0.632107
2.38308
0.649347
2.90454
0.6459
3.44325
0.633934
3.96322
0.635326
4.58835
0.67408
4.6497
0.863857
4.49317
1.07747
5.17458
1.07484
4.82558
1.00504
4.05699
0.875344
3.30822
0.664052
2.55465
0.405606
1.76711
0.160984
1.12979
0.576315
0.0114703
-0.053988
0.0497174
-0.0955702
0.147183
0.0256025
0.341259
0.725408
0.447879
1.64548
0.488237
2.34272
0.502123
2.89066
0.506049
3.43933
0.498857
3.97041
0.492104
4.5951
0.502444
4.63936
0.618713
4.3769
0.773012
5.02028
0.774601
4.824
0.706837
4.12476
0.602643
3.41241
0.453629
2.70366
0.268317
1.95242
0.0968618
1.30125
0.673176
0.0328445
-0.0868325
0.0814285
-0.144154
0.11967
-0.0126391
0.220365
0.624713
0.300595
1.56525
0.342109
2.3012
0.35956
2.87321
0.371231
3.42766
0.37401
3.96763
0.372076
4.59704
0.36688
4.64456
0.428353
4.31542
0.53699
4.91164
0.535523
4.82546
0.473287
4.18699
0.393079
3.49262
0.289252
2.80749
0.162345
2.07933
0.0458186
1.41777
0.718995
0.0404004
-0.127233
0.0797876
-0.183541
0.0624338
0.00471477
0.0741837
0.612963
0.129108
1.51032
0.17689
2.25342
0.210463
2.83963
0.237667
3.40045
0.259833
3.94546
0.269006
4.58786
0.261075
4.65249
0.286454
4.29004
0.353745
4.84435
0.349382
4.82983
0.299651
4.23672
0.234202
3.55807
0.155953
2.88574
0.0676873
2.16759
-0.0021072
1.48757
0.716888
0.028898
-0.156131