/*--------------------------------*- C++ -*----------------------------------*\
  =========                 |
  \\      /  F ield         | OpenFOAM: The Open Source CFD Toolbox
   \\    /   O peration     | Website:  https://openfoam.org
    \\  /    A nd           | Version:  9
     \\/     M anipulation  |
\*---------------------------------------------------------------------------*/
FoamFile
{
    format      ascii;
    class       volScalarField;
    location    "19";
    object      p;
}
// * * * * * * * * * * * * * * * * * * * * * * * * * * * * * * * * * * * * * //

dimensions      [0 2 -2 0 0 0 0];

internalField   nonuniform List<scalar> 
2200
(
0.403018
0.381533
0.365644
0.350004
0.335447
0.32298
0.312666
0.304559
0.298819
0.295838
0.296127
0.299637
0.305758
0.31414
0.324648
0.337257
0.351906
0.367607
0.383531
0.405034
0.335403
0.332152
0.329258
0.325187
0.319767
0.313349
0.306808
0.300906
0.296408
0.293931
0.294223
0.297261
0.302156
0.308359
0.315112
0.321674
0.327205
0.331351
0.334286
0.337553
0.295432
0.295677
0.297769
0.299139
0.299578
0.298794
0.296854
0.294261
0.291787
0.29019
0.290529
0.292706
0.295629
0.298544
0.300716
0.301661
0.301329
0.300085
0.298095
0.297866
0.272777
0.274261
0.276943
0.27949
0.282062
0.28419
0.285375
0.285618
0.28519
0.284747
0.285135
0.286247
0.28718
0.287312
0.286403
0.28448
0.282053
0.279592
0.27695
0.275492
0.258436
0.260369
0.263319
0.26634
0.269331
0.272265
0.274836
0.276801
0.277965
0.278563
0.279031
0.279227
0.278658
0.277134
0.274885
0.272182
0.269357
0.266422
0.263528
0.261611
0.251537
0.253094
0.255345
0.257941
0.260658
0.263365
0.265983
0.268487
0.270568
0.271991
0.272525
0.272044
0.270699
0.268742
0.266507
0.264081
0.261569
0.259115
0.25694
0.255386
0.248509
0.249525
0.250867
0.252854
0.255104
0.257301
0.259379
0.261478
0.263548
0.265246
0.265879
0.26533
0.264163
0.262725
0.261116
0.25926
0.257255
0.255436
0.254177
0.253163
0.246131
0.246728
0.247587
0.249365
0.251422
0.253411
0.255238
0.256967
0.258645
0.260106
0.260924
0.260892
0.260313
0.25939
0.25813
0.256546
0.254775
0.253185
0.252413
0.251819
0.243945
0.244207
0.244881
0.246553
0.248486
0.250463
0.252367
0.254128
0.255697
0.257046
0.258063
0.258451
0.258191
0.25744
0.256247
0.254804
0.253217
0.251784
0.251211
0.250963
0.242229
0.242266
0.242755
0.243968
0.245431
0.24708
0.248896
0.25079
0.25261
0.254203
0.255445
0.256
0.255798
0.255145
0.254282
0.253269
0.252233
0.25131
0.250943
0.250878
0.240087
0.240057
0.240373
0.241039
0.241921
0.243048
0.244443
0.246144
0.248076
0.250044
0.251645
0.252525
0.252736
0.252508
0.25218
0.251773
0.251403
0.251074
0.250926
0.250925
0.237061
0.237004
0.237259
0.237692
0.238371
0.239263
0.240363
0.241829
0.243633
0.245759
0.247767
0.249205
0.250129
0.250549
0.250629
0.2507
0.250711
0.250677
0.250647
0.250651
0.233624
0.23358
0.233832
0.23427
0.235015
0.235975
0.2372
0.238803
0.240736
0.24308
0.24548
0.247377
0.248708
0.249579
0.250104
0.250391
0.250456
0.250468
0.250463
0.250467
0.229788
0.229777
0.23
0.230492
0.231303
0.232404
0.233892
0.235792
0.238161
0.241039
0.244021
0.246401
0.248044
0.249196
0.249989
0.250431
0.250645
0.250752
0.25079
0.250791
0.22528
0.225278
0.225463
0.225946
0.226737
0.227868
0.22952
0.23171
0.234579
0.23818
0.242013
0.245128
0.24734
0.248884
0.249973
0.250672
0.251111
0.251372
0.251479
0.25147
0.219788
0.219766
0.220007
0.220527
0.221389
0.222644
0.224457
0.226979
0.230403
0.23482
0.239664
0.243721
0.246679
0.24876
0.250246
0.25125
0.251919
0.252326
0.252502
0.252488
0.21338
0.213344
0.213639
0.214244
0.215276
0.216841
0.219072
0.222172
0.226367
0.231798
0.237807
0.242935
0.2467
0.249393
0.251289
0.252566
0.253398
0.253882
0.25409
0.254069
0.205744
0.205715
0.206097
0.206939
0.208284
0.210261
0.213081
0.216996
0.222267
0.229059
0.236517
0.24287
0.247521
0.250843
0.25314
0.254692
0.255708
0.256304
0.256565
0.256541
0.196816
0.196774
0.197233
0.198267
0.19996
0.202466
0.206033
0.210976
0.217622
0.226141
0.235413
0.243241
0.24897
0.253057
0.255902
0.257848
0.259113
0.259842
0.26015
0.26011
0.185901
0.185874
0.186505
0.187846
0.190005
0.193175
0.197707
0.203997
0.212394
0.223064
0.234556
0.244185
0.251225
0.256243
0.259729
0.262106
0.263671
0.264589
0.264978
0.26493
0.172765
0.172702
0.173484
0.175177
0.177962
0.182099
0.18796
0.196011
0.206651
0.219975
0.234113
0.245867
0.254444
0.260557
0.264839
0.267777
0.269702
0.270821
0.271278
0.271207
0.156111
0.15614
0.157271
0.159554
0.163271
0.168756
0.176448
0.186894
0.200425
0.217001
0.234289
0.248533
0.258912
0.266323
0.271506
0.275064
0.27741
0.278768
0.27933
0.279247
0.135135
0.135102
0.136647
0.139871
0.145028
0.15255
0.162897
0.176567
0.193749
0.214246
0.235186
0.252261
0.264668
0.27356
0.279851
0.284213
0.287122
0.288821
0.289486
0.289341
0.107512
0.107821
0.110295
0.11498
0.122395
0.133065
0.147111
0.164983
0.186674
0.211787
0.236884
0.257138
0.271851
0.282458
0.290051
0.295393
0.298955
0.300994
0.301816
0.301647
0.070564
0.071133
0.0752438
0.0830809
0.0945203
0.10987
0.12905
0.152355
0.179479
0.209899
0.239622
0.263338
0.280561
0.293082
0.302146
0.308649
0.313155
0.315837
0.316868
0.316546
0.0211621
0.0217548
0.0295402
0.042899
0.0609236
0.0830521
0.109117
0.139086
0.172531
0.208872
0.243515
0.270849
0.290726
0.305333
0.316143
0.324095
0.329683
0.332926
0.333966
0.333541
-0.0459588
-0.0424202
-0.0257482
-0.00318499
0.0236357
0.0541145
0.0880865
0.125483
0.165986
0.208969
0.249222
0.280954
0.304352
0.321881
0.33516
0.345317
0.352957
0.357532
0.358874
0.358666
-0.124504
-0.112106
-0.083535
-0.0508655
-0.0143645
0.0248137
0.0669286
0.112106
0.160034
0.210098
0.256718
0.293625
0.321139
0.342269
0.358853
0.371934
0.382361
0.389283
0.392646
0.393144
-0.190477
-0.173732
-0.137709
-0.09674
-0.0513845
-0.0037107
0.0465755
0.099505
0.154634
0.211477
0.263987
0.305483
0.336598
0.360609
0.379609
0.394695
0.406316
0.414652
0.418157
0.418421
-0.239513
-0.224734
-0.183706
-0.137224
-0.0850559
-0.0302183
0.0273894
0.0873661
0.14917
0.212393
0.270348
0.315904
0.349853
0.37577
0.395993
0.411883
0.424093
0.432328
0.435847
0.436283
-0.2798
-0.265714
-0.221814
-0.172014
-0.114682
-0.0541404
0.00956279
0.0756609
0.143591
0.212797
0.275747
0.324623
0.360429
0.387348
0.407877
0.42381
0.436139
0.444505
0.448331
0.448758
-0.314478
-0.300158
-0.254176
-0.202012
-0.140614
-0.0755924
-0.00690175
0.0644817
0.137897
0.21231
0.279364
0.330693
0.367856
0.395449
0.416419
0.432608
0.444891
0.453706
0.457592
0.458026
-0.344862
-0.33052
-0.282568
-0.228134
-0.163481
-0.0949775
-0.0221933
0.0536986
0.131818
0.210756
0.281578
0.335521
0.374055
0.402476
0.423757
0.439979
0.452401
0.460985
0.464895
0.465095
-0.372238
-0.357983
-0.308212
-0.25138
-0.184002
-0.11276
-0.0366131
0.0430992
0.12532
0.208505
0.283185
0.339551
0.379459
0.408597
0.430468
0.44692
0.459218
0.467821
0.471451
0.471611
-0.397282
-0.383201
-0.332037
-0.272847
-0.202986
-0.129392
-0.0504047
0.0325838
0.118496
0.205661
0.284035
0.343078
0.384869
0.415
0.437122
0.453577
0.465755
0.474126
0.4779
0.47817
-0.420884
-0.40639
-0.354553
-0.293365
-0.221189
-0.145342
-0.0637842
0.022098
0.111317
0.202289
0.284518
0.346794
0.390241
0.421136
0.443739
0.460391
0.47262
0.480898
0.484595
0.484883
-0.443067
-0.428387
-0.37603
-0.313315
-0.239074
-0.160997
-0.0769836
0.011556
0.103852
0.198574
0.284796
0.349833
0.395038
0.427211
0.450436
0.46737
0.479678
0.487698
0.491541
0.491829
-0.464013
-0.449411
-0.396641
-0.332699
-0.256789
-0.176612
-0.0902495
0.000806875
0.0960037
0.194122
0.283942
0.35214
0.400146
0.433708
0.457555
0.474714
0.487099
0.495208
0.498801
0.499027
-0.484235
-0.469476
-0.416399
-0.35147
-0.274298
-0.192303
-0.103792
-0.0103928
0.0874059
0.188555
0.282004
0.354004
0.404566
0.440051
0.464951
0.482587
0.494982
0.502719
0.506244
0.506439
-0.504198
-0.48886
-0.435439
-0.369597
-0.291465
-0.208014
-0.117696
-0.0222417
0.0778958
0.182024
0.279329
0.355042
0.408848
0.4467
0.47289
0.490909
0.503272
0.510913
0.514116
0.514142
-0.523852
-0.507696
-0.453913
-0.387142
-0.3082
-0.223621
-0.131855
-0.0346295
0.0676988
0.17467
0.275506
0.355013
0.412709
0.453586
0.481664
0.500277
0.512302
0.51911
0.522053
0.521945
-0.543021
-0.526148
-0.471922
-0.404194
-0.324476
-0.238975
-0.146029
-0.0472949
0.0569722
0.166302
0.270156
0.35382
0.415614
0.460164
0.49098
0.510771
0.522322
0.528241
0.530199
0.529836
-0.561543
-0.544173
-0.489494
-0.420823
-0.340317
-0.253979
-0.160037
-0.0600688
0.045788
0.15713
0.263978
0.351771
0.417641
0.466482
0.501005
0.523242
0.534531
0.53749
0.537135
0.53712
-0.579402
-0.561688
-0.506555
-0.437029
-0.355762
-0.26863
-0.173817
-0.0728603
0.0342754
0.147383
0.256663
0.347706
0.418076
0.471834
0.511341
0.537481
0.550118
0.550216
0.545134
0.542522
-0.596571
-0.578586
-0.523034
-0.452765
-0.370816
-0.282962
-0.187403
-0.0856465
0.0224859
0.136918
0.247865
0.341689
0.416331
0.475634
0.521365
0.553839
0.572058
0.56785
0.560637
0.565486
-0.613061
-0.594804
-0.538845
-0.467959
-0.385451
-0.296993
-0.200824
-0.0984374
0.0104631
0.12588
0.238351
0.334722
0.412995
0.477146
0.52918
0.569992
0.599006
0.589234
0.545017
0.496229
-0.628809
-0.610348
-0.554015
-0.482653
-0.399747
-0.31086
-0.214257
-0.111429
-0.00198226
0.114168
0.227576
0.324971
0.405646
0.474788
0.533647
0.584616
0.628856
0.651311
0.675185
0.725641
-0.643782
-0.625288
-0.568636
-0.49696
-0.413841
-0.324747
-0.227949
-0.124939
-0.0153335
0.101009
0.214699
0.312804
0.395017
0.46679
0.52795
0.578887
0.614747
0.62936
0.609514
0.615515
-0.657944
-0.639594
-0.582677
-0.510825
-0.427624
-0.338507
-0.241721
-0.138805
-0.0293996
0.0867184
0.200227
0.297694
0.378705
0.449191
0.508015
0.552127
0.55974
0.525078
0.472892
0.465924
-0.671342
-0.653275
-0.596152
-0.524256
-0.441081
-0.352104
-0.255522
-0.152956
-0.0441112
0.0711689
0.183513
0.279012
0.35663
0.420866
0.472458
0.490321
0.461743
0.394749
0.324719
0.316196
-0.684012
-0.66632
-0.609085
-0.537286
-0.454236
-0.365549
-0.269343
-0.167373
-0.0594321
0.0544809
0.164895
0.25802
0.329291
0.380356
0.407399
0.39786
0.351549
0.251267
0.164146
0.148711
-0.696403
-0.679138
-0.621864
-0.550282
-0.467448
-0.37915
-0.283446
-0.182245
-0.0754963
0.0365551
0.144475
0.232955
0.297021
0.332417
0.325106
0.288305
0.183474
0.0600246
-0.0486456
-0.0709025
-0.709371
-0.69247
-0.635158
-0.56385
-0.481278
-0.393381
-0.298243
-0.197954
-0.0926522
0.0170341
0.12134
0.204693
0.261631
0.274117
0.231793
0.142876
-0.0191458
-0.175201
-0.304615
-0.329319
-0.723398
-0.706751
-0.649262
-0.578205
-0.495905
-0.408372
-0.313836
-0.214541
-0.110809
-0.00378955
0.0963345
0.174541
0.219312
0.204782
0.136597
-0.019729
-0.233787
-0.457491
-0.643835
-0.690416
-0.738528
-0.722005
-0.664218
-0.593351
-0.511287
-0.424084
-0.330166
-0.231921
-0.129929
-0.0260013
0.0688289
0.141115
0.172766
0.122529
0.0192367
-0.188696
-0.44396
-0.757533
-1.09869
-1.23961
-0.754831
-0.738372
-0.680107
-0.609348
-0.527456
-0.440555
-0.347274
-0.250169
-0.149995
-0.0492413
0.0395992
0.105149
0.12078
0.0338904
-0.12311
-0.360274
-0.627582
-1.01012
-1.63838
-2.23165
-0.772257
-0.755831
-0.696982
-0.626238
-0.5444
-0.457746
-0.365068
-0.269077
-0.170788
-0.0734234
0.00929098
0.0675115
0.0642328
-0.0481368
-0.264607
-0.541634
-0.784581
-1.06733
-1.69806
-3.3581
-0.790867
-0.774414
-0.714893
-0.644115
-0.562242
-0.475806
-0.383735
-0.288964
-0.192748
-0.0987708
-0.0219459
0.0263447
0.00377538
-0.118354
-0.377953
-0.668811
-0.85815
-0.935018
-0.971831
-1.3982
-0.81061
-0.794093
-0.734015
-0.663245
-0.581315
-0.495153
-0.403798
-0.310367
-0.216439
-0.126239
-0.0549167
-0.0161696
-0.0592106
-0.171866
-0.438231
-0.70089
-0.854445
-0.886369
-0.84372
-0.893697
-0.831447
-0.814752
-0.75433
-0.683664
-0.601645
-0.515844
-0.425285
-0.333339
-0.242108
-0.156543
-0.0903947
-0.0619906
-0.119541
-0.227256
-0.487293
-0.702711
-0.816634
-0.844264
-0.881825
-0.899173
-0.853211
-0.836138
-0.775768
-0.70539
-0.623163
-0.537827
-0.448207
-0.357937
-0.269639
-0.188888
-0.12678
-0.107374
-0.174653
-0.290876
-0.526718
-0.704481
-0.800451
-0.775191
-0.802413
-0.803269
-0.875551
-0.858207
-0.798282
-0.728285
-0.645661
-0.560953
-0.472343
-0.383649
-0.298231
-0.222368
-0.16498
-0.154188
-0.222736
-0.360081
-0.572461
-0.718121
-0.792241
-0.800499
-0.802608
-0.810728
-0.898032
-0.880641
-0.82183
-0.751994
-0.668825
-0.584918
-0.497385
-0.410379
-0.32799
-0.256911
-0.203765
-0.205256
-0.273886
-0.434473
-0.616334
-0.737474
-0.782289
-0.826373
-0.797707
-0.804798
-0.920434
-0.903217
-0.845656
-0.775908
-0.69231
-0.609459
-0.523009
-0.437515
-0.358191
-0.291437
-0.242468
-0.253914
-0.328082
-0.498528
-0.653621
-0.768214
-0.77882
-0.81434
-0.784239
-0.786276
-0.942245
-0.925527
-0.868882
-0.799229
-0.715918
-0.634069
-0.548374
-0.464171
-0.387654
-0.32496
-0.278512
-0.294965
-0.3964
-0.576945
-0.670007
-0.73442
-0.743305
-0.745746
-0.76137
-0.764372
-0.96289
-0.946884
-0.890982
-0.821344
-0.739264
-0.658054
-0.57285
-0.490119
-0.415583
-0.356915
-0.31315
-0.321087
-0.462321
-0.66981
-0.686568
-0.596694
-0.627417
-0.658805
-0.698971
-0.709137
-0.981362
-0.966319
-0.911329
-0.841857
-0.761697
-0.680563
-0.595637
-0.514224
-0.440196
-0.383983
-0.349423
-0.340325
-0.520838
-0.786329
-0.856224
-0.785611
-0.8147
-0.825785
-0.838354
-0.832853
-0.996927
-0.983132
-0.929619
-0.860694
-0.782001
-0.700153
-0.615629
-0.535583
-0.460916
-0.403363
-0.380824
-0.351612
-0.576269
-0.941178
-1.32113
-1.53423
-1.60509
-1.55775
-1.49504
-1.42757
-1.00832
-0.995991
-0.944693
-0.8766
-0.798509
-0.716484
-0.632591
-0.552854
-0.477687
-0.413652
-0.401108
-0.352817
-0.592577
-1.02813
-1.62679
-2.11145
-2.23988
-2.14772
-2.02307
-1.93283
-1.01483
-1.00413
-0.955509
-0.888168
-0.810311
-0.728921
-0.645196
-0.564112
-0.487453
-0.416944
-0.400352
-0.349861
-0.55573
-0.904675
-1.3433
-1.65277
-1.67271
-1.57673
-1.40118
-1.3156
-1.01479
-1.0056
-0.960246
-0.894093
-0.816625
-0.735799
-0.65209
-0.568484
-0.488687
-0.410975
-0.376684
-0.30961
-0.3856
-0.381649
-0.374416
-0.337483
-0.232113
-0.13122
-0.0560123
0.014022
-1.00686
-0.999185
-0.957921
-0.893155
-0.816493
-0.7361
-0.652412
-0.566792
-0.48229
-0.391244
-0.329832
-0.22866
-0.0977215
0.182908
0.506881
0.767204
0.970812
1.11099
1.18612
1.21297
-0.989131
-0.982544
-0.947064
-0.885071
-0.81003
-0.730109
-0.646708
-0.559711
-0.470393
-0.36339
-0.262985
-0.160826
0.107279
0.512155
0.963088
1.3321
1.60129
1.76119
1.82822
1.84338
-0.960047
-0.954235
-0.92561
-0.867416
-0.795451
-0.717983
-0.636085
-0.548795
-0.454503
-0.340202
-0.208689
-0.120072
0.154261
0.553137
0.978899
1.33575
1.60498
1.76263
1.82771
1.84289
-0.919999
-0.916053
-0.894404
-0.841672
-0.773651
-0.700167
-0.622288
-0.538385
-0.44255
-0.331994
-0.184601
-0.0786777
0.138287
0.446888
0.78784
1.07858
1.3087
1.4525
1.51894
1.53953
-0.869269
-0.868131
-0.851601
-0.80565
-0.74461
-0.677872
-0.607541
-0.533183
-0.447056
-0.345403
-0.193216
-0.0482179
0.0906831
0.298973
0.553857
0.764461
0.933869
1.05146
1.11081
1.13245
-0.802731
-0.803818
-0.790921
-0.75462
-0.705038
-0.650143
-0.593059
-0.532639
-0.46117
-0.379048
-0.243174
-0.0974244
0.00919456
0.174923
0.368256
0.517849
0.643367
0.728507
0.771269
0.785419
-0.722888
-0.72386
-0.715678
-0.692356
-0.657979
-0.618892
-0.578607
-0.535315
-0.486057
-0.433202
-0.323851
-0.197816
-0.0758036
0.0655254
0.212056
0.326198
0.423066
0.487945
0.51811
0.52166
-0.651867
-0.651761
-0.646925
-0.634933
-0.615147
-0.59212
-0.570155
-0.549504
-0.534617
-0.517179
-0.464721
-0.358296
-0.216791
-0.0914096
0.033266
0.134611
0.211695
0.269641
0.285186
0.288277
-0.598784
-0.598927
-0.596989
-0.592014
-0.584059
-0.575794
-0.572687
-0.579346
-0.608487
-0.643136
-0.682572
-0.600578
-0.434522
-0.288337
-0.16399
-0.0555354
0.0295412
0.0743875
0.0907309
0.0989053
-0.559268
-0.560137
-0.560644
-0.560888
-0.560905
-0.565346
-0.580456
-0.616761
-0.69522
-0.813728
-0.958391
-0.89474
-0.717058
-0.537069
-0.350364
-0.216499
-0.133735
-0.0967777
-0.0783352
-0.0736933
-0.519588
-0.521436
-0.523458
-0.527734
-0.534973
-0.5453
-0.575028
-0.635239
-0.75645
-0.970503
-1.19708
-1.13087
-0.915843
-0.703623
-0.503033
-0.364054
-0.291111
-0.25017
-0.23646
-0.236501
-0.468706
-0.470829
-0.473263
-0.478443
-0.488786
-0.50639
-0.540463
-0.607289
-0.740097
-0.971647
-1.23977
-1.16586
-0.941767
-0.712586
-0.546259
-0.451765
-0.38774
-0.366708
-0.359483
-0.359474
-0.404142
-0.406126
-0.409154
-0.413628
-0.422333
-0.43883
-0.47116
-0.532898
-0.652161
-0.849397
-1.04811
-0.962088
-0.770549
-0.619412
-0.5276
-0.462445
-0.429547
-0.424138
-0.420931
-0.42045
-0.327398
-0.328893
-0.331485
-0.335088
-0.341673
-0.354106
-0.377696
-0.423269
-0.509565
-0.645498
-0.76316
-0.663569
-0.528495
-0.468104
-0.443571
-0.416505
-0.416081
-0.415218
-0.414305
-0.41344
-0.245541
-0.246473
-0.248181
-0.250668
-0.25443
-0.261722
-0.275207
-0.301494
-0.350888
-0.426158
-0.493259
-0.390962
-0.323774
-0.316117
-0.307083
-0.332392
-0.342691
-0.347713
-0.349699
-0.349501
-0.167493
-0.167931
-0.168748
-0.169643
-0.171114
-0.174055
-0.178997
-0.188702
-0.206654
-0.232453
-0.238658
-0.201274
-0.197797
-0.199407
-0.214351
-0.243468
-0.254241
-0.261833
-0.264698
-0.265374
-0.101042
-0.101137
-0.101403
-0.101309
-0.101067
-0.100918
-0.10025
-0.0992016
-0.0964423
-0.0834797
-0.061099
-0.0786258
-0.105903
-0.124932
-0.149399
-0.169667
-0.178329
-0.184589
-0.187204
-0.188034
-0.0496475
-0.0495662
-0.0495612
-0.049046
-0.0479813
-0.0463068
-0.043117
-0.0377631
-0.0284732
-0.00917434
0.015506
-0.00672487
-0.0432995
-0.0693352
-0.0941503
-0.109407
-0.117577
-0.122497
-0.124655
-0.125429
-0.0128691
-0.012753
-0.0126928
-0.0122303
-0.0111185
-0.00923137
-0.00558297
0.000327832
0.00959032
0.0245429
0.0415842
0.0183157
-0.0115245
-0.0338346
-0.0539444
-0.0657081
-0.0723145
-0.0759715
-0.0776765
-0.0783417
0.0116844
0.0117744
0.0117526
0.0118307
0.01247
0.0137601
0.016656
0.0214886
0.0287632
0.0387393
0.0475187
0.0288111
0.00568616
-0.011899
-0.0268944
-0.0357097
-0.0409303
-0.0437441
-0.0450684
-0.0455874
0.0265154
0.0265675
0.0264195
0.0260764
0.0261005
0.0265441
0.0281759
0.031261
0.0360824
0.0420806
0.0452673
0.0320833
0.0146847
0.00137969
-0.00950836
-0.0160968
-0.0201054
-0.022279
-0.0233604
-0.0237431
0.0339261
0.0339473
0.0337122
0.0331209
0.0327203
0.032527
0.0330378
0.0344174
0.0369221
0.0398685
0.0399658
0.0308811
0.0183043
0.00869498
0.000992955
-0.00384044
-0.00685287
-0.00852066
-0.00933445
-0.00960904
0.0361728
0.0361723
0.0359235
0.0352923
0.0347304
0.034246
0.0341028
0.0343348
0.0351235
0.0358743
0.0343503
0.0277198
0.0189178
0.0121592
0.00682658
0.00337115
0.0011766
-6.0144e-05
-0.000652246
-0.000845414
0.0352838
0.0352753
0.0350494
0.0344694
0.0338708
0.0332833
0.0328337
0.0324941
0.0323086
0.0317493
0.0294489
0.0243509
0.0181763
0.0134196
0.00972183
0.00725463
0.00565852
0.00474544
0.00431913
0.00418617
0.0325563
0.0325496
0.0323459
0.0318231
0.0312145
0.0305706
0.0299479
0.0293437
0.0287135
0.0276028
0.0251771
0.0212039
0.0168081
0.0134011
0.0107719
0.00896771
0.00777771
0.00708743
0.00677319
0.00671009
0.0286787
0.0286751
0.0284876
0.0280139
0.0274244
0.026767
0.0260497
0.0253166
0.024495
0.0232697
0.0211127
0.0180818
0.0149431
0.0124827
0.0105825
0.0092478
0.00835145
0.00782224
0.00758913
0.00754334
0.0240495
0.0240495
0.0238878
0.0234849
0.0229605
0.0223588
0.0216553
0.0209079
0.0200371
0.0188744
0.0171014
0.0148488
0.0126268
0.0108702
0.00951069
0.00854128
0.00788263
0.00748901
0.00732176
0.00728863
0.0189909
0.0189921
0.0188681
0.0185519
0.0181337
0.0176403
0.0170435
0.0163942
0.0155952
0.0145868
0.0131878
0.0115527
0.0100102
0.00879231
0.00784831
0.007169
0.00670455
0.00642454
0.00631094
0.00628529
0.0137285
0.0137334
0.0136491
0.0134167
0.0131148
0.0127446
0.0123017
0.0118155
0.0111878
0.0104209
0.00939778
0.00826893
0.00724071
0.00643633
0.00581261
0.00536329
0.0050549
0.00486763
0.00479577
0.00477896
0.00833334
0.00833907
0.00829464
0.0081455
0.00795756
0.00771252
0.00743379
0.00713997
0.00673264
0.00627265
0.00564953
0.00499023
0.00439231
0.00393179
0.00356405
0.0032899
0.0031031
0.00299046
0.00295373
0.0029444
0.00286473
0.00286847
0.00286373
0.00279492
0.00271875
0.00260837
0.00249458
0.0024124
0.00223691
0.00210742
0.0018854
0.00167779
0.00146749
0.00132175
0.0011883
0.00107659
0.000994557
0.000943016
0.000934659
0.000934428
-1.58579
-0.678871
-0.403249
-0.107636
0.0933567
0.268006
0.416084
0.566509
0.726322
0.803531
-0.548001
-0.110136
-0.0766422
0.123227
0.264434
0.390816
0.501253
0.598035
0.631673
0.586246
-0.130375
0.101239
0.150468
0.292822
0.39131
0.481024
0.555286
0.610489
0.616396
0.627731
0.122702
0.28074
0.318042
0.430878
0.493135
0.557571
0.606961
0.641723
0.65251
0.675278
0.318493
0.427401
0.456747
0.535449
0.580463
0.626454
0.661304
0.686918
0.697889
0.728614
0.468807
0.544301
0.574753
0.623599
0.661207
0.693853
0.719898
0.74127
0.756304
0.783933
0.594408
0.648354
0.674976
0.705627
0.735147
0.760265
0.781274
0.800968
0.816313
0.842439
0.701942
0.741201
0.763149
0.785012
0.807134
0.827419
0.845336
0.863752
0.878849
0.902403
0.798722
0.828203
0.845806
0.861786
0.878702
0.895287
0.911147
0.928382
0.942026
0.964325
0.888393
0.909527
0.924903
0.938494
0.952481
0.966597
0.980233
0.99492
1.00645
1.02612
0.975171
0.991146
1.00524
1.01735
1.02952
1.04127
1.05244
1.06414
1.0718
1.08861
1.06096
1.07397
1.08784
1.09959
1.1102
1.11997
1.12874
1.13699
1.1406
1.15189
1.1505
1.16149
1.175
1.18421
1.19164
1.19881
1.20603
1.21267
1.21367
1.22108
1.24901
1.25375
1.26178
1.26626
1.26954
1.27402
1.28002
1.2878
1.29161
1.30149
1.36237
1.34865
1.3412
1.33554
1.33284
1.33424
1.34078
1.35321
1.36793
1.39758
1.48313
1.42752
1.39662
1.37954
1.37142
1.37144
1.38007
1.39949
1.43157
1.50073
)
;

boundaryField
{
    wall-4
    {
        type            zeroGradient;
    }
    pressure-outlet-7
    {
        type            fixedValue;
        value           uniform 0;
    }
    velocity-inlet-6
    {
        type            zeroGradient;
    }
    velocity-inlet-5
    {
        type            zeroGradient;
    }
    frontAndBackPlanes
    {
        type            empty;
    }
}


// ************************************************************************* //
