/*--------------------------------*- C++ -*----------------------------------*\
  =========                 |
  \\      /  F ield         | OpenFOAM: The Open Source CFD Toolbox
   \\    /   O peration     | Website:  https://openfoam.org
    \\  /    A nd           | Version:  9
     \\/     M anipulation  |
\*---------------------------------------------------------------------------*/
FoamFile
{
    format      ascii;
    class       volVectorField;
    location    "19";
    object      U;
}
// * * * * * * * * * * * * * * * * * * * * * * * * * * * * * * * * * * * * * //

dimensions      [0 1 -1 0 0 0 0];

internalField   nonuniform List<vector> 
2200
(
(0.878678 -0.030387 0)
(1.00568 -0.0513069 0)
(1.00289 -0.0353919 0)
(0.99996 -0.0245106 0)
(0.999847 -0.0168299 0)
(1.00012 -0.0109774 0)
(1.00014 -0.00700934 0)
(1.0001 -0.00417975 0)
(1.00009 -0.00215897 0)
(1.00016 -0.000686102 0)
(1.00009 0.00081371 0)
(1.00011 0.00233752 0)
(1.0001 0.004331 0)
(1.00017 0.0071988 0)
(1.00016 0.0111116 0)
(0.999881 0.0169513 0)
(1 0.0245999 0)
(1.00294 0.0354621 0)
(1.00567 0.0513295 0)
(0.878666 0.0304107 0)
(0.712209 -0.0327112 0)
(0.996656 -0.0628491 0)
(1.03357 -0.0560161 0)
(1.02488 -0.046025 0)
(1.01548 -0.0355553 0)
(1.00942 -0.0258905 0)
(1.006 -0.0177983 0)
(1.00399 -0.0113176 0)
(1.00271 -0.00601266 0)
(1.00207 -0.00161978 0)
(1.00204 0.00230597 0)
(1.00265 0.00668763 0)
(1.00398 0.011938 0)
(1.00592 0.0182638 0)
(1.00929 0.0263148 0)
(1.01536 0.0358816 0)
(1.02473 0.0462696 0)
(1.03335 0.0561986 0)
(0.996509 0.0630009 0)
(0.712017 0.0327388 0)
(0.5362 -0.0238705 0)
(0.970211 -0.0567339 0)
(1.05667 -0.054365 0)
(1.05268 -0.0484271 0)
(1.03662 -0.0398723 0)
(1.0245 -0.0314156 0)
(1.01575 -0.0233273 0)
(1.01 -0.0158776 0)
(1.00668 -0.00900663 0)
(1.0053 -0.00262311 0)
(1.00528 0.00375649 0)
(1.00664 0.010032 0)
(1.00982 0.016755 0)
(1.01549 0.0240932 0)
(1.02422 0.0319979 0)
(1.03631 0.0403739 0)
(1.05239 0.0488777 0)
(1.05645 0.0546127 0)
(0.969722 0.0569776 0)
(0.535539 0.0239351 0)
(0.393246 -0.0134557 0)
(0.912255 -0.0460918 0)
(1.05795 -0.0465976 0)
(1.07004 -0.0441079 0)
(1.0554 -0.0380159 0)
(1.03936 -0.0313045 0)
(1.02743 -0.0245352 0)
(1.01907 -0.0172984 0)
(1.01387 -0.0100241 0)
(1.01142 -0.00283299 0)
(1.01133 0.00445036 0)
(1.01362 0.0114749 0)
(1.0187 0.0185342 0)
(1.02698 0.0255739 0)
(1.0389 0.0322815 0)
(1.05498 0.0388545 0)
(1.0695 0.0448098 0)
(1.05706 0.0472137 0)
(0.911096 0.0463822 0)
(0.391865 0.0135449 0)
(0.310549 -0.00428862 0)
(0.848691 -0.0315068 0)
(1.0498 -0.0387399 0)
(1.07912 -0.0370084 0)
(1.06821 -0.0328656 0)
(1.05177 -0.027617 0)
(1.03814 -0.0224545 0)
(1.02769 -0.0165356 0)
(1.02082 -0.0098717 0)
(1.0174 -0.00257162 0)
(1.01719 0.00481651 0)
(1.02032 0.0119875 0)
(1.02707 0.0184388 0)
(1.03745 0.0241838 0)
(1.05101 0.029031 0)
(1.06731 0.0339966 0)
(1.07808 0.0378704 0)
(1.04842 0.0394021 0)
(0.846538 0.0318343 0)
(0.308458 0.00436321 0)
(0.268929 0.000286208 0)
(0.793921 -0.0191029 0)
(1.03484 -0.0294329 0)
(1.08308 -0.0297212 0)
(1.07648 -0.0266653 0)
(1.06064 -0.0223664 0)
(1.04708 -0.0183702 0)
(1.03595 -0.0137743 0)
(1.02792 -0.00841376 0)
(1.02335 -0.0019047 0)
(1.02314 0.00472076 0)
(1.02733 0.0110406 0)
(1.035 0.0161096 0)
(1.04588 0.0202945 0)
(1.05922 0.0239872 0)
(1.07504 0.0280443 0)
(1.08139 0.0308291 0)
(1.03264 0.030254 0)
(0.790713 0.0194924 0)
(0.266128 -0.00021314 0)
(0.246609 0.00134373 0)
(0.746022 -0.0114426 0)
(1.01715 -0.0232821 0)
(1.08385 -0.0245715 0)
(1.08154 -0.0219986 0)
(1.06642 -0.0182176 0)
(1.05352 -0.0146512 0)
(1.04338 -0.010557 0)
(1.03553 -0.00607854 0)
(1.03057 -0.000885952 0)
(1.0303 0.00450012 0)
(1.03472 0.00937664 0)
(1.0421 0.0134438 0)
(1.05185 0.0171859 0)
(1.06473 0.0204226 0)
(1.0796 0.0238206 0)
(1.08149 0.0260953 0)
(1.01366 0.0243953 0)
(0.741013 0.0119229 0)
(0.242852 -0.00123115 0)
(0.23448 0.00116597 0)
(0.705985 -0.00650344 0)
(0.99779 -0.0182526 0)
(1.08262 -0.0201963 0)
(1.08512 -0.0182264 0)
(1.07087 -0.0151856 0)
(1.05762 -0.0117879 0)
(1.04738 -0.00819666 0)
(1.03973 -0.00425057 0)
(1.03521 -3.17995e-05 0)
(1.03471 0.00461705 0)
(1.03838 0.00852509 0)
(1.04537 0.0120322 0)
(1.05551 0.015103 0)
(1.06829 0.0179114 0)
(1.08227 0.0205061 0)
(1.07924 0.0220314 0)
(0.992878 0.0194853 0)
(0.699173 0.00702869 0)
(0.229701 -0.00101995 0)
(0.229297 0.000796348 0)
(0.678364 -0.00250533 0)
(0.980341 -0.0118235 0)
(1.07967 -0.0139561 0)
(1.08706 -0.0132192 0)
(1.07333 -0.0112644 0)
(1.05948 -0.00911237 0)
(1.04884 -0.00633176 0)
(1.04124 -0.00292293 0)
(1.03697 0.000806133 0)
(1.03629 0.00511463 0)
(1.03947 0.00846504 0)
(1.04641 0.0113062 0)
(1.05607 0.0133193 0)
(1.06984 0.0147404 0)
(1.08314 0.0161395 0)
(1.07473 0.0162154 0)
(0.973174 0.0132935 0)
(0.669445 0.00315991 0)
(0.223147 -0.000642677 0)
(0.228633 0.000486329 0)
(0.663976 -9.00158e-05 0)
(0.966655 -0.00588432 0)
(1.07576 -0.00794658 0)
(1.08799 -0.00818895 0)
(1.07554 -0.00720197 0)
(1.06149 -0.00611325 0)
(1.05068 -0.0042673 0)
(1.04288 -0.0015281 0)
(1.03856 0.0018175 0)
(1.03777 0.00557914 0)
(1.04076 0.00830095 0)
(1.04744 0.0102477 0)
(1.05774 0.0110041 0)
(1.07129 0.0115068 0)
(1.08266 0.0115689 0)
(1.06918 0.0105156 0)
(0.957515 0.00761095 0)
(0.65262 0.000873763 0)
(0.220926 -0.00029757 0)
(0.229812 0.000221224 0)
(0.658271 0.00059786 0)
(0.958113 -0.00244367 0)
(1.07268 -0.00422513 0)
(1.08845 -0.00485948 0)
(1.07784 -0.0045242 0)
(1.06467 -0.00367522 0)
(1.05449 -0.00218525 0)
(1.04681 2.50879e-05 0)
(1.04213 0.00291047 0)
(1.04089 0.00598025 0)
(1.04342 0.00819424 0)
(1.04969 0.00948584 0)
(1.05907 0.0104748 0)
(1.07116 0.00988407 0)
(1.08126 0.00916302 0)
(1.06383 0.00761646 0)
(0.946266 0.00470371 0)
(0.64406 0.000410589 0)
(0.22012 7.85778e-06 0)
(0.23119 -7.37321e-06 0)
(0.657003 0.000713475 0)
(0.953721 -0.000845618 0)
(1.07029 -0.00263109 0)
(1.08828 -0.00338677 0)
(1.07882 -0.00330708 0)
(1.06709 -0.00275374 0)
(1.05782 -0.000952801 0)
(1.05087 0.00139593 0)
(1.04641 0.00442267 0)
(1.04482 0.00726727 0)
(1.04658 0.00943429 0)
(1.05159 0.010442 0)
(1.05896 0.0107612 0)
(1.07028 0.00981297 0)
(1.07881 0.00870404 0)
(1.05871 0.00675338 0)
(0.937942 0.00376999 0)
(0.638678 0.000717305 0)
(0.219027 0.000165168 0)
(0.232575 0.000139255 0)
(0.657282 0.000887366 0)
(0.94986 0.000220341 0)
(1.06744 -0.00115342 0)
(1.08673 -0.0021613 0)
(1.07851 -0.00244178 0)
(1.06766 -0.00187346 0)
(1.059 -6.89388e-05 0)
(1.05246 0.00242628 0)
(1.04808 0.00576936 0)
(1.04619 0.00876704 0)
(1.04732 0.0111079 0)
(1.0514 0.0119732 0)
(1.05816 0.0115962 0)
(1.06825 0.0106832 0)
(1.07447 0.00899474 0)
(1.05237 0.00639979 0)
(0.930023 0.00324929 0)
(0.633546 0.000843718 0)
(0.217016 0.000202732 0)
(0.234582 0.00032368 0)
(0.658606 0.00120275 0)
(0.947488 0.00157299 0)
(1.06443 0.000241576 0)
(1.08486 -0.000884883 0)
(1.07826 -0.00130875 0)
(1.06842 -0.00048689 0)
(1.06034 0.00142847 0)
(1.05393 0.0041407 0)
(1.04927 0.00761884 0)
(1.04696 0.0106019 0)
(1.04754 0.0128602 0)
(1.05083 0.0134966 0)
(1.05663 0.0131011 0)
(1.06487 0.0116122 0)
(1.06917 0.00903251 0)
(1.04529 0.00587149 0)
(0.922922 0.00269964 0)
(0.629415 0.000793178 0)
(0.215272 0.000190051 0)
(0.237847 0.000394184 0)
(0.662302 0.0015421 0)
(0.947688 0.00264884 0)
(1.06177 0.00193166 0)
(1.08338 0.00115131 0)
(1.07889 0.000698954 0)
(1.07075 0.00158967 0)
(1.06358 0.00355011 0)
(1.05735 0.00638374 0)
(1.0522 0.00982865 0)
(1.04903 0.0126988 0)
(1.04857 0.0145876 0)
(1.05063 0.0149519 0)
(1.05504 0.0143072 0)
(1.06099 0.0124719 0)
(1.06304 0.00962424 0)
(1.03753 0.00619348 0)
(0.915703 0.00296844 0)
(0.624822 0.00108826 0)
(0.213123 0.000266278 0)
(0.241087 0.000384338 0)
(0.666391 0.00180012 0)
(0.949037 0.00331036 0)
(1.06079 0.00323541 0)
(1.0827 0.00282111 0)
(1.07983 0.00289342 0)
(1.07332 0.00430937 0)
(1.067 0.00658549 0)
(1.061 0.00963681 0)
(1.05545 0.0130066 0)
(1.05138 0.0156518 0)
(1.04984 0.0169167 0)
(1.05049 0.0168332 0)
(1.05344 0.0154894 0)
(1.05715 0.013198 0)
(1.05705 0.0100037 0)
(1.03014 0.00649271 0)
(0.909089 0.00341938 0)
(0.620209 0.00148327 0)
(0.210478 0.000350401 0)
(0.245885 0.000491992 0)
(0.674015 0.00233548 0)
(0.952452 0.00430546 0)
(1.06135 0.00506948 0)
(1.08299 0.00529648 0)
(1.08137 0.00594275 0)
(1.07601 0.00756979 0)
(1.0702 0.0101005 0)
(1.06418 0.0133598 0)
(1.05805 0.0166794 0)
(1.05294 0.0190655 0)
(1.05011 0.0196644 0)
(1.04934 0.0188999 0)
(1.05051 0.0170197 0)
(1.05229 0.014374 0)
(1.05042 0.0110493 0)
(1.02255 0.00759231 0)
(0.901924 0.00439228 0)
(0.613866 0.00196899 0)
(0.206662 0.000446932 0)
(0.250553 0.000633309 0)
(0.680121 0.00273882 0)
(0.956522 0.00532268 0)
(1.06338 0.00674283 0)
(1.08473 0.00806964 0)
(1.08379 0.00964238 0)
(1.07902 0.0120293 0)
(1.07333 0.0150134 0)
(1.06685 0.018385 0)
(1.05974 0.0215294 0)
(1.05328 0.023367 0)
(1.04897 0.0231475 0)
(1.04689 0.0214695 0)
(1.04654 0.0188734 0)
(1.04682 0.0155259 0)
(1.04349 0.0118333 0)
(1.01455 0.00814898 0)
(0.893795 0.00494939 0)
(0.606531 0.00231565 0)
(0.202199 0.000522955 0)
(0.258283 0.000870209 0)
(0.692269 0.00380722 0)
(0.964972 0.00748513 0)
(1.06782 0.0100307 0)
(1.08816 0.0119379 0)
(1.08756 0.0142484 0)
(1.08302 0.0172158 0)
(1.07717 0.0206446 0)
(1.07001 0.0242907 0)
(1.06167 0.0272703 0)
(1.05358 0.0284283 0)
(1.04762 0.0272714 0)
(1.04409 0.0245466 0)
(1.04223 0.02117 0)
(1.04111 0.0173422 0)
(1.03658 0.0135113 0)
(1.00693 0.00984093 0)
(0.885716 0.00628544 0)
(0.597885 0.0029012 0)
(0.196652 0.000630713 0)
(0.2663 0.0011476 0)
(0.703458 0.00452853 0)
(0.973879 0.0089832 0)
(1.07434 0.0124055 0)
(1.09389 0.0158655 0)
(1.09304 0.019522 0)
(1.08821 0.0235465 0)
(1.08161 0.0278593 0)
(1.07324 0.0319389 0)
(1.06313 0.0348325 0)
(1.05295 0.0352217 0)
(1.045 0.0329901 0)
(1.03979 0.0292487 0)
(1.03645 0.0249243 0)
(1.03404 0.0203477 0)
(1.02836 0.0157767 0)
(0.997239 0.0113321 0)
(0.874299 0.00732944 0)
(0.586452 0.00345483 0)
(0.189893 0.000765334 0)
(0.279234 0.00152757 0)
(0.722428 0.00655089 0)
(0.987971 0.0125197 0)
(1.08373 0.0173264 0)
(1.10143 0.0213256 0)
(1.10015 0.0260646 0)
(1.0945 0.0311833 0)
(1.08673 0.0363673 0)
(1.0766 0.0409083 0)
(1.06425 0.043673 0)
(1.05168 0.043185 0)
(1.04165 0.0396645 0)
(1.03482 0.0346434 0)
(1.03018 0.029168 0)
(1.02668 0.0237385 0)
(1.02005 0.0188074 0)
(0.988053 0.014194 0)
(0.863859 0.00945268 0)
(0.574335 0.0043884 0)
(0.181869 0.000923578 0)
(0.293804 0.00212217 0)
(0.743212 0.00767907 0)
(1.00431 0.0152763 0)
(1.09591 0.0214627 0)
(1.11207 0.0276205 0)
(1.10947 0.0342697 0)
(1.10234 0.0408267 0)
(1.09261 0.047169 0)
(1.08006 0.0524087 0)
(1.06489 0.0550072 0)
(1.04939 0.0535536 0)
(1.0369 0.0486764 0)
(1.02809 0.04236 0)
(1.02189 0.0356854 0)
(1.01725 0.0292222 0)
(1.00939 0.0228946 0)
(0.974853 0.0168299 0)
(0.846444 0.0110477 0)
(0.556159 0.00513422 0)
(0.171521 0.00110064 0)
(0.315514 0.00302862 0)
(0.772123 0.0117552 0)
(1.02679 0.0212524 0)
(1.1124 0.0295051 0)
(1.1256 0.0367831 0)
(1.12121 0.0450389 0)
(1.11182 0.0532382 0)
(1.09926 0.0608203 0)
(1.08351 0.0664837 0)
(1.06476 0.0686439 0)
(1.04586 0.065928 0)
(1.0307 0.0593311 0)
(1.01996 0.0512735 0)
(1.01232 0.0428832 0)
(1.00643 0.0349223 0)
(0.997426 0.0278144 0)
(0.961532 0.0210551 0)
(0.83174 0.0141444 0)
(0.539083 0.00651594 0)
(0.160212 0.0012657 0)
(0.345631 0.0041802 0)
(0.81191 0.0143875 0)
(1.05568 0.02794 0)
(1.13306 0.0387017 0)
(1.14316 0.0485019 0)
(1.13558 0.0598638 0)
(1.12286 0.0697565 0)
(1.1066 0.0783674 0)
(1.08687 0.0841599 0)
(1.06406 0.0854942 0)
(1.04144 0.0810394 0)
(1.02331 0.0724111 0)
(1.01025 0.0625148 0)
(1.00087 0.0526954 0)
(0.99363 0.043378 0)
(0.982762 0.0344497 0)
(0.942676 0.0258194 0)
(0.804614 0.0168982 0)
(0.510007 0.0074737 0)
(0.144628 0.00144463 0)
(0.381869 0.00821505 0)
(0.859111 0.0240962 0)
(1.09222 0.0399692 0)
(1.15924 0.0536725 0)
(1.16494 0.0668733 0)
(1.15255 0.0802611 0)
(1.13529 0.0912754 0)
(1.11423 0.10042 0)
(1.08963 0.105676 0)
(1.062 0.105438 0)
(1.03498 0.0988216 0)
(1.01359 0.0879521 0)
(0.998244 0.0759002 0)
(0.987063 0.0638495 0)
(0.978208 0.0525753 0)
(0.965453 0.042062 0)
(0.922311 0.0317014 0)
(0.782849 0.021247 0)
(0.486768 0.00972321 0)
(0.130572 0.00146671 0)
(0.466333 0.0117795 0)
(0.935841 0.0339649 0)
(1.14081 0.0595049 0)
(1.19179 0.0767541 0)
(1.19078 0.0940665 6.91726e-35)
(1.17145 0.108628 -4.74402e-35)
(1.14806 0.120353 0)
(1.12121 0.128824 0)
(1.09117 0.132383 0)
(1.05843 0.129751 0)
(1.02725 0.120139 0)
(1.00264 0.106205 0)
(0.984609 0.0916921 0)
(0.971294 0.0778825 0)
(0.960488 0.0649093 0)
(0.944845 0.0527358 0)
(0.895554 0.0404509 0)
(0.741759 0.0267414 0)
(0.437066 0.0105958 0)
(0.105473 0.00129155 0)
(0.531541 0.026994 -7.83957e-21)
(1.02325 0.0585856 5.27499e-21)
(1.19445 0.0919304 0)
(1.22771 0.112863 7.08786e-22)
(1.21723 0.132878 -5.74382e-22)
(1.18992 0.146998 5.00512e-35)
(1.16 0.157592 0)
(1.12692 0.164157 4.70375e-21)
(1.09076 0.165389 -1.68929e-20)
(1.05197 0.159774 3.73946e-21)
(1.0153 0.146792 0)
(0.986284 0.130229 -1.23393e-20)
(0.965146 0.113579 -1.54632e-20)
(0.949058 0.0975516 2.71983e-20)
(0.93518 0.0826635 -2.18859e-20)
(0.914632 0.0680047 0)
(0.855153 0.0521683 -8.43801e-21)
(0.688209 0.0350641 0)
(0.390719 0.0171558 -4.56198e-20)
(0.0880941 0.00234685 5.4108e-20)
(0.55748 0.0543904 -6.22303e-23)
(1.07294 0.103111 -4.63481e-20)
(1.2374 0.143936 1.21696e-20)
(1.26055 0.162015 1.80053e-20)
(1.24086 0.180939 -4.57124e-22)
(1.20629 0.192905 1.4801e-21)
(1.16982 0.20157 0)
(1.13014 0.206208 0)
(1.08749 0.20525 2.63949e-20)
(1.0426 0.197094 0)
(1.00062 0.181781 4.22697e-20)
(0.967025 0.16292 1.32381e-20)
(0.940806 0.144257 3.67162e-22)
(0.920071 0.127083 -3.05497e-20)
(0.902179 0.111242 0)
(0.878068 0.0968471 0)
(0.817394 0.0794608 -1.42898e-19)
(0.658675 0.0595088 3.59119e-19)
(0.379187 0.0303503 -2.13457e-19)
(0.0890865 0.00868069 -2.5409e-19)
(0.559764 0.0816397 8.04757e-20)
(1.10077 0.161634 -2.3552e-20)
(1.2692 0.2074 -6.23583e-21)
(1.28681 0.222097 -3.44969e-20)
(1.2597 0.237189 1.36444e-20)
(1.219 0.245121 1.38421e-21)
(1.17627 0.250619 3.58467e-21)
(1.13035 0.252305 0)
(1.08171 0.248336 -5.45226e-20)
(1.03072 0.237095 6.12365e-20)
(0.98221 0.218669 -1.15574e-19)
(0.942775 0.19775 5.64463e-20)
(0.913693 0.178804 -4.18712e-20)
(0.890733 0.161646 9.1611e-20)
(0.869928 0.146088 0)
(0.844032 0.13143 -3.61148e-20)
(0.786061 0.115429 0)
(0.640963 0.0881948 2.06499e-19)
(0.381588 0.0520734 -4.90144e-19)
(0.102462 0.014667 3.07729e-19)
(0.546623 0.113241 -3.78815e-19)
(1.11414 0.221364 1.51371e-19)
(1.28842 0.27579 2.43507e-20)
(1.30437 0.287256 0)
(1.27231 0.298183 1.89771e-20)
(1.22694 0.301508 -2.06412e-20)
(1.17892 0.303151 -3.67407e-21)
(1.12774 0.300989 0)
(1.0739 0.293261 3.84309e-20)
(1.01762 0.278407 -4.19947e-20)
(0.965214 0.257298 1.01486e-19)
(0.923492 0.235209 0)
(0.88965 0.214804 -8.80984e-20)
(0.8623 0.197555 4.85117e-20)
(0.839989 0.182387 1.32248e-19)
(0.814244 0.167919 -1.16324e-19)
(0.760556 0.150588 1.93067e-19)
(0.629131 0.120052 -4.29375e-19)
(0.390514 0.0744306 2.72766e-19)
(0.113938 0.0229113 -3.42542e-19)
(0.528096 0.137525 2.33131e-19)
(1.11454 0.276805 -1.71777e-19)
(1.2976 0.343619 7.60816e-20)
(1.31368 0.352788 -1.04785e-19)
(1.27816 0.360485 7.07671e-20)
(1.22959 0.359567 -1.18934e-20)
(1.17766 0.357238 3.7037e-21)
(1.12243 0.350956 -2.40035e-20)
(1.06415 0.339412 -3.8095e-20)
(1.00303 0.321202 -9.01151e-20)
(0.94531 0.297388 -2.18948e-19)
(0.897978 0.272314 -7.39442e-20)
(0.863719 0.251357 2.78826e-21)
(0.837566 0.233363 -1.74774e-19)
(0.814979 0.21838 -6.30842e-21)
(0.790046 0.203138 1.70679e-19)
(0.741126 0.185366 -5.3099e-20)
(0.620805 0.151772 -3.11738e-20)
(0.395253 0.0970445 0)
(0.120453 0.0305832 7.32841e-19)
(0.508353 0.159405 0)
(1.10567 0.328224 5.30778e-20)
(1.29923 0.408003 3.68656e-20)
(1.3168 0.416611 -1.21452e-20)
(1.27868 0.422311 -8.5865e-20)
(1.22782 0.417463 1.88923e-20)
(1.17296 0.411354 2.43225e-22)
(1.11436 0.401139 4.36021e-20)
(1.05218 0.38585 -2.3024e-20)
(0.98698 0.363971 3.93332e-20)
(0.926384 0.335896 1.18083e-19)
(0.879167 0.309608 1.638e-19)
(0.842584 0.286989 -1.02368e-19)
(0.813664 0.267796 1.89393e-19)
(0.791215 0.251565 -1.52216e-19)
(0.768258 0.237568 0)
(0.723528 0.218462 -4.06999e-19)
(0.611818 0.182929 5.47138e-19)
(0.39537 0.117327 4.14675e-20)
(0.122412 0.0375108 -7.75273e-19)
(0.491779 0.180111 -5.66403e-21)
(1.09506 0.377594 -3.6211e-19)
(1.29562 0.469358 -2.7764e-19)
(1.31448 0.477873 2.31622e-19)
(1.27428 0.482174 -5.11013e-20)
(1.22204 0.473925 2.80534e-20)
(1.1651 0.464453 -1.24183e-20)
(1.10399 0.450639 -2.35916e-21)
(1.03892 0.431719 -7.96622e-20)
(0.970954 0.405956 9.29282e-22)
(0.908215 0.375472 -1.28522e-19)
(0.858307 0.345773 -1.74381e-19)
(0.821877 0.321012 1.15482e-19)
(0.794637 0.300777 -6.8101e-20)
(0.77143 0.284562 1.65738e-19)
(0.747573 0.269115 0)
(0.704715 0.248329 -2.52191e-19)
(0.59841 0.209865 3.73085e-19)
(0.388585 0.135635 7.14998e-19)
(0.120642 0.0423615 -8.40083e-19)
(0.476696 0.198475 -6.88425e-19)
(1.08064 0.423334 3.47757e-19)
(1.28821 0.52741 2.70273e-19)
(1.3084 0.536286 -2.51137e-19)
(1.26663 0.539399 1.11841e-20)
(1.21347 0.528143 7.4779e-20)
(1.15494 0.515798 1.8533e-22)
(1.09186 0.498717 -1.59932e-20)
(1.02445 0.476388 -4.95544e-20)
(0.953946 0.447079 8.73586e-20)
(0.88796 0.412342 1.20899e-19)
(0.836108 0.37919 2.73246e-19)
(0.798039 0.352784 0)
(0.768568 0.330761 5.4501e-21)
(0.74674 0.312423 -4.61192e-19)
(0.726419 0.298377 1.05879e-19)
(0.688349 0.277173 5.41622e-19)
(0.585822 0.23343 -1.58774e-19)
(0.377546 0.150323 3.39048e-19)
(0.116515 0.0460892 -2.80929e-20)
(0.466859 0.217117 6.36359e-21)
(1.0676 0.467558 3.21756e-19)
(1.27828 0.58296 2.05052e-19)
(1.29943 0.591899 -4.47292e-19)
(1.25631 0.593574 2.85776e-19)
(1.20262 0.579632 -9.18836e-20)
(1.1429 0.564907 -3.68961e-21)
(1.07832 0.545021 3.21117e-20)
(1.00891 0.51968 8.64637e-20)
(0.935941 0.487255 -1.13302e-19)
(0.868202 0.449232 0)
(0.816607 0.414609 -1.08119e-19)
(0.779229 0.385397 1.2413e-19)
(0.752205 0.362293 1.67841e-19)
(0.728286 0.342591 -9.62528e-20)
(0.704631 0.324393 -2.43613e-19)
(0.664963 0.300113 -7.41002e-20)
(0.565879 0.252538 -1.21934e-21)
(0.364615 0.161451 0)
(0.110846 0.0491688 0)
(0.457864 0.232992 -3.39964e-19)
(1.0537 0.508684 0)
(1.26666 0.635211 2.34855e-19)
(1.28877 0.644929 -1.08111e-19)
(1.24465 0.645034 -2.97402e-19)
(1.19047 0.628439 8.19995e-20)
(1.12967 0.611607 -9.90678e-21)
(1.06379 0.589258 -1.30829e-20)
(0.992749 0.561331 5.27213e-20)
(0.917942 0.525606 -4.74887e-20)
(0.848079 0.484097 6.77105e-20)
(0.792175 0.444171 3.37506e-19)
(0.750849 0.411431 1.33155e-20)
(0.719837 0.384589 -1.71155e-19)
(0.700782 0.363165 3.31592e-19)
(0.68331 0.347339 4.45721e-21)
(0.648902 0.321733 7.92789e-20)
(0.550914 0.270778 -3.86153e-19)
(0.350443 0.170613 3.91654e-19)
(0.104486 0.0510699 -4.67623e-19)
(0.451473 0.252663 3.30266e-23)
(1.04114 0.548211 0)
(1.25419 0.684281 0)
(1.27689 0.69504 1.00986e-19)
(1.23186 0.693683 1.16429e-19)
(1.17731 0.674649 -6.86636e-20)
(1.11555 0.655895 4.58284e-20)
(1.04854 0.631357 0)
(0.975928 0.601173 -8.73309e-20)
(0.898564 0.562841 1.658e-19)
(0.825332 0.518553 2.07769e-19)
(0.769923 0.476388 -1.27492e-19)
(0.732919 0.442007 -1.60252e-19)
(0.70745 0.414633 3.79295e-19)
(0.682976 0.391995 -1.17274e-19)
(0.659698 0.367727 -1.42577e-19)
(0.621718 0.340739 -8.73847e-20)
(0.527062 0.283322 -4.19061e-19)
(0.33478 0.177369 5.86863e-20)
(0.0972426 0.0520014 5.08282e-19)
(0.447863 0.271553 -1.35816e-19)
(1.02942 0.585295 -2.14298e-19)
(1.24116 0.730157 2.37558e-20)
(1.26439 0.742421 1.24174e-22)
(1.21871 0.739881 3.85921e-20)
(1.16377 0.718513 -1.82915e-19)
(1.1011 0.697902 0)
(1.03301 0.671379 1.20317e-20)
(0.958811 0.639233 -9.48723e-21)
(0.879541 0.598506 2.60283e-19)
(0.804585 0.55054 -5.29761e-20)
(0.746986 0.504155 5.80738e-20)
(0.703732 0.464653 0)
(0.671013 0.432356 -2.07243e-19)
(0.652717 0.404596 2.58887e-19)
(0.63701 0.387259 0)
(0.604865 0.354825 -1.91683e-19)
(0.5088 0.296058 5.60401e-19)
(0.31813 0.182058 6.68175e-20)
(0.0895201 0.0517548 -6.30113e-19)
(0.445748 0.288613 -3.01371e-19)
(1.01881 0.620478 3.86371e-19)
(1.22797 0.773015 0)
(1.25126 0.786743 2.51343e-19)
(1.20502 0.783287 0)
(1.14991 0.760038 1.71745e-19)
(1.08652 0.737777 0)
(1.01743 0.709464 0)
(0.94184 0.67558 -3.08995e-20)
(0.860578 0.633008 -2.54287e-19)
(0.783343 0.58318 -3.86238e-19)
(0.722742 0.534565 7.38578e-20)
(0.68173 0.492562 2.76951e-19)
(0.657151 0.458163 2.33555e-19)
(0.635031 0.431972 -8.30797e-19)
(0.612426 0.402331 -3.44185e-19)
(0.575047 0.370358 1.99996e-19)
(0.482777 0.303607 0)
(0.300059 0.184421 5.78607e-19)
(0.0810243 0.0504579 -6.84025e-19)
(0.444131 0.304362 3.3247e-19)
(1.00834 0.653186 -4.24598e-19)
(1.21473 0.812816 0)
(1.2381 0.828214 -1.01523e-20)
(1.1915 0.824134 -1.03413e-19)
(1.13623 0.799301 0)
(1.07224 0.775599 -1.48413e-20)
(1.00239 0.745723 1.89841e-20)
(0.925781 0.710358 -3.67023e-20)
(0.842789 0.666055 2.42801e-20)
(0.76264 0.613175 0)
(0.699282 0.560472 2.94197e-19)
(0.654683 0.515308 3.86685e-21)
(0.619356 0.47593 1.26949e-19)
(0.600692 0.441707 1.53217e-19)
(0.587073 0.416739 0)
(0.556156 0.377738 -3.38675e-19)
(0.46253 0.309933 6.63815e-19)
(0.281368 0.184527 -7.07473e-19)
(0.0726773 0.0479873 1.4862e-18)
(0.442671 0.319354 0)
(0.998766 0.684764 0)
(1.20174 0.850226 -2.32907e-19)
(1.22472 0.866891 0)
(1.17774 0.862182 0)
(1.12255 0.836159 2.46388e-19)
(1.05828 0.811332 -1.87171e-20)
(0.987844 0.78014 1.67884e-20)
(0.909975 0.743483 -1.51946e-21)
(0.8244 0.697928 0)
(0.74107 0.644138 -6.22009e-20)
(0.675791 0.590028 -2.44131e-19)
(0.628613 0.539295 -3.07467e-19)
(0.602829 0.496849 -1.28113e-19)
(0.580898 0.462158 1.68916e-19)
(0.560047 0.426526 -4.01463e-19)
(0.524965 0.389943 7.33593e-19)
(0.433858 0.312144 7.6737e-21)
(0.261774 0.182288 -6.84814e-19)
(0.0642245 0.0447705 -1.01682e-19)
(0.441115 0.333951 0)
(0.989176 0.714125 -3.30516e-19)
(1.18901 0.884964 2.6016e-19)
(1.21173 0.903048 0)
(1.16448 0.897791 0)
(1.10932 0.870718 -5.44392e-19)
(1.04473 0.844951 0)
(0.97375 0.812699 0)
(0.89482 0.775088 -5.83072e-20)
(0.807711 0.728706 4.8509e-20)
(0.722074 0.67305 -4.91641e-19)
(0.652185 0.614319 0)
(0.602704 0.561802 -3.33897e-19)
(0.562631 0.513807 1.16958e-20)
(0.543631 0.469239 -5.39809e-19)
(0.532038 0.43807 2.17722e-19)
(0.50347 0.386408 4.08271e-21)
(0.413787 0.31071 -7.85816e-19)
(0.243824 0.178086 3.72682e-19)
(0.0579731 0.0414552 1.08788e-19)
(0.439634 0.34806 0)
(0.980683 0.742714 -3.89794e-19)
(1.17672 0.917881 2.76586e-19)
(1.19879 0.936887 5.81369e-19)
(1.15125 0.930915 1.18192e-19)
(1.09623 0.902966 -8.24487e-20)
(1.0315 0.876448 5.14689e-20)
(0.960135 0.843373 -1.03029e-19)
(0.880287 0.804969 6.23719e-20)
(0.791448 0.757876 2.90057e-19)
(0.703133 0.701399 4.07665e-19)
(0.629742 0.642719 7.89812e-20)
(0.574136 0.587152 4.8518e-19)
(0.543907 0.534821 3.16229e-19)
(0.52031 0.490667 3.89978e-19)
(0.500242 0.438181 -2.4435e-19)
(0.469016 0.393376 -2.90449e-19)
(0.384279 0.306154 3.42222e-19)
(0.22318 0.169117 -2.02331e-19)
(0.0531815 0.0392471 3.55876e-19)
(0.438079 0.361661 5.13974e-19)
(0.972056 0.768888 6.18946e-19)
(1.16473 0.948376 1.51691e-19)
(1.18643 0.968576 1.59703e-20)
(1.13871 0.961982 -4.10208e-19)
(1.08373 0.93313 1.57664e-19)
(1.0188 0.905915 -5.87586e-20)
(0.947104 0.872188 -2.11351e-20)
(0.866527 0.833184 -5.0592e-20)
(0.775806 0.785772 -3.25096e-19)
(0.683202 0.728983 2.40756e-20)
(0.603838 0.669175 0)
(0.547494 0.611263 0)
(0.499634 0.553486 -1.60443e-19)
(0.474836 0.493932 -6.41555e-19)
(0.464747 0.445731 5.30254e-19)
(0.443872 0.373378 3.25363e-19)
(0.370957 0.285717 0)
(0.22427 0.148121 6.45532e-19)
(0.0479194 0.0216651 -3.86417e-19)
(0.436669 0.374468 -2.74579e-19)
(0.964424 0.794345 2.36951e-19)
(1.15323 0.977291 -3.38602e-19)
(1.17426 0.998218 -3.65044e-19)
(1.12634 0.990914 -1.6171e-19)
(1.07154 0.961316 3.78992e-20)
(1.00655 0.933499 0)
(0.934653 0.89925 1.48639e-19)
(0.853401 0.859911 1.0157e-20)
(0.761306 0.812584 0)
(0.667942 0.75671 0)
(0.587173 0.697685 5.54301e-20)
(0.519018 0.636503 8.57343e-20)
(0.479048 0.575316 -1.72905e-19)
(0.447272 0.517641 4.6407e-19)
(0.422424 0.441232 -5.83714e-19)
(0.397114 0.370136 -7.00719e-19)
(0.34608 0.263272 6.22611e-19)
(0.245737 0.159573 -2.33031e-19)
(0.128391 0.0973339 1.33539e-19)
(0.434985 0.386471 3.16793e-19)
(0.956478 0.817308 0)
(1.14203 1.00392 0)
(1.1627 1.02591 -1.23013e-19)
(1.11477 1.01807 9.95632e-20)
(1.0601 0.987708 -2.05671e-20)
(0.99507 0.959359 -2.23655e-19)
(0.923013 0.924646 -2.27936e-19)
(0.841274 0.88507 3.96546e-20)
(0.74795 0.837777 -2.64148e-20)
(0.650608 0.781786 6.43932e-20)
(0.562901 0.72149 -4.53583e-19)
(0.496087 0.662249 -5.02544e-19)
(0.431799 0.600382 -9.2156e-20)
(0.390782 0.523894 0)
(0.368768 0.455654 -1.32676e-20)
(0.351514 0.324656 3.8493e-19)
(0.313746 0.169892 -6.53692e-19)
(0.278481 0.00296847 4.83747e-19)
(0.0845258 -0.0800936 3.86216e-19)
(0.433424 0.397776 -6.90579e-19)
(0.949361 0.839753 -2.97439e-19)
(1.13126 1.02929 6.09574e-21)
(1.15131 1.05193 1.56421e-19)
(1.10329 1.04358 0)
(1.04888 1.01273 4.67732e-19)
(0.98388 0.984 2.78771e-19)
(0.911773 0.949064 -4.56987e-20)
(0.829405 0.909564 -6.31217e-21)
(0.734598 0.86307 -2.47223e-20)
(0.635115 0.809194 2.29625e-20)
(0.544591 0.752823 4.01118e-19)
(0.463719 0.691327 4.91398e-19)
(0.410426 0.624055 8.85951e-20)
(0.362041 0.561976 4.9155e-19)
(0.305609 0.455813 0)
(0.212903 0.32789 0)
(0.0609731 0.309012 4.84749e-19)
(-0.0599877 0.631788 -3.32971e-20)
(-0.0010525 1.48544 -6.24255e-19)
(0.431387 0.408471 3.75664e-19)
(0.941912 0.859993 8.92007e-19)
(1.12071 1.0528 -1.34099e-18)
(1.14042 1.07656 8.08586e-19)
(1.09243 1.06797 -9.47859e-20)
(1.03816 1.03675 6.09935e-19)
(0.973171 1.00788 0)
(0.90087 0.972951 2.35419e-19)
(0.818116 0.933733 0)
(0.722385 0.887658 2.23371e-19)
(0.62153 0.833713 -3.67983e-20)
(0.528355 0.776876 4.12602e-20)
(0.449296 0.724294 5.42755e-19)
(0.360825 0.667113 -2.01508e-19)
(0.276004 0.585982 -2.58143e-19)
(0.20935 0.521933 0)
(0.111563 0.607461 0)
(0.0455479 1.22391 0)
(0.0819878 2.41361 -2.72895e-19)
(0.114125 2.88657 -1.69186e-19)
(0.429468 0.418837 0)
(0.935285 0.87987 0)
(1.11062 1.0753 4.7974e-19)
(1.12972 1.09974 -6.7403e-19)
(1.08165 1.09093 4.63195e-19)
(1.02766 1.05962 -5.59084e-19)
(0.962734 1.03079 -3.23138e-20)
(0.890509 0.996063 2.51598e-20)
(0.80739 0.95749 4.48705e-21)
(0.710419 0.913176 -2.53601e-19)
(0.604772 0.863992 5.53e-20)
(0.503499 0.814765 3.73875e-19)
(0.409877 0.758657 -5.3451e-19)
(0.339896 0.694971 -6.28277e-19)
(0.276685 0.650977 2.19828e-19)
(0.212362 0.766187 0)
(0.15234 1.47176 3.17916e-19)
(0.151984 2.65982 3.58588e-19)
(0.155714 3.07677 -4.01312e-19)
(0.14669 3.2176 4.46469e-19)
(0.427168 0.428134 0)
(0.928316 0.897532 7.24569e-19)
(1.10078 1.09602 -1.2431e-19)
(1.11958 1.12161 8.47933e-19)
(1.07155 1.1128 -4.86193e-19)
(1.0177 1.08144 0)
(0.952804 1.05276 0)
(0.880493 1.01847 0)
(0.797059 0.980801 -8.62898e-20)
(0.699363 0.937727 1.15559e-21)
(0.59493 0.888331 0)
(0.496255 0.838611 -3.64356e-19)
(0.409414 0.798239 0)
(0.300218 0.754034 4.46614e-19)
(0.21998 0.833585 -2.88892e-19)
(0.177842 1.42986 -2.4308e-19)
(0.187252 2.65071 -5.9999e-19)
(0.206538 3.12471 -2.98195e-19)
(0.195515 3.27391 -3.38976e-19)
(0.180225 3.31558 2.99056e-19)
(0.425083 0.436961 -2.4478e-19)
(0.922156 0.914991 1.47758e-20)
(1.09142 1.11597 -1.3392e-19)
(1.10967 1.14223 -6.78652e-19)
(1.06154 1.13339 0)
(1.00795 1.10222 0)
(0.943159 1.07391 0)
(0.871033 1.04018 -1.63208e-20)
(0.787633 1.00349 9.93863e-20)
(0.689577 0.962597 0)
(0.580742 0.919386 0)
(0.475539 0.8794 0)
(0.368603 0.840526 0)
(0.309719 0.837106 2.901e-19)
(0.293017 1.1777 7.60205e-19)
(0.28559 2.31334 2.38064e-19)
(0.296911 3.07846 4.29442e-19)
(0.288274 3.29457 -2.6822e-19)
(0.236235 3.36445 9.91263e-20)
(0.201539 3.37741 0)
(0.422621 0.445016 2.48025e-19)
(0.915381 0.930679 -1.56221e-18)
(1.08206 1.13474 -4.42233e-19)
(1.1001 1.16224 -1.08027e-19)
(1.05202 1.15358 1.24079e-19)
(0.998595 1.12253 -8.76515e-19)
(0.933882 1.09456 5.95078e-20)
(0.86186 1.06146 4.15065e-19)
(0.778246 1.02609 0)
(0.679561 0.987351 -1.41992e-20)
(0.572844 0.944888 1.29169e-20)
(0.467553 0.904998 0)
(0.38403 0.879934 0)
(0.332865 1.00349 -3.59743e-19)
(0.307749 1.81322 -5.2282e-21)
(0.302978 2.91769 -1.2227e-19)
(0.320767 3.29757 1.93099e-19)
(0.293566 3.40404 5.76284e-20)
(0.224476 3.43141 1.14434e-19)
(0.197694 3.43999 -5.89423e-20)
(0.420076 0.453335 4.77792e-19)
(0.908824 0.947854 1.49401e-18)
(1.07236 1.15455 5.43786e-19)
(1.08993 1.18265 0)
(1.04183 1.17398 0)
(0.98875 1.14312 6.71518e-19)
(0.924254 1.11556 -4.16314e-19)
(0.852532 1.08316 -3.81454e-19)
(0.769415 1.04896 -1.53258e-20)
(0.671488 1.01233 1.67079e-20)
(0.561714 0.975371 -2.47164e-19)
(0.456898 0.94504 0)
(0.378058 0.955961 0)
(0.354968 1.32944 -1.95329e-19)
(0.370823 2.41114 -2.56048e-19)
(0.413011 3.1977 0)
(0.441174 3.39058 9.15438e-20)
(0.370517 3.4584 2.2058e-19)
(0.292637 3.50332 -4.87548e-19)
(0.266251 3.52938 2.8299e-19)
(0.416589 0.461615 -9.05388e-19)
(0.900698 0.964338 -7.1073e-19)
(1.06163 1.17457 0)
(1.07919 1.20393 0)
(1.03131 1.19537 0)
(0.978535 1.16448 0)
(0.914361 1.13712 4.44764e-19)
(0.843268 1.10516 -4.90464e-19)
(0.760431 1.07212 0)
(0.662131 1.03835 -9.43895e-21)
(0.555955 1.00514 4.01602e-19)
(0.45205 0.980617 2.15573e-20)
(0.398702 1.06226 3.73621e-20)
(0.415696 1.70037 2.83324e-19)
(0.446621 2.86262 -7.15216e-20)
(0.48127 3.33264 0)
(0.462874 3.46881 -7.94577e-20)
(0.36956 3.55882 1.04721e-19)
(0.279922 3.63285 3.61425e-19)
(0.202317 3.61459 -3.16997e-19)
(0.412955 0.470442 4.29115e-19)
(0.892587 0.98338 -6.98365e-19)
(1.05013 1.19647 0)
(1.06733 1.22612 -1.73447e-19)
(1.0196 1.21734 6.5863e-19)
(0.967378 1.18638 0)
(0.903713 1.1592 0)
(0.833097 1.12777 9.1675e-19)
(0.751057 1.09597 1.60262e-20)
(0.655014 1.0636 -1.01333e-19)
(0.546262 1.03253 -1.66113e-19)
(0.45946 1.02335 1.34588e-19)
(0.427662 1.22724 0)
(0.464694 2.0981 -1.30278e-19)
(0.513233 3.12597 1.13388e-19)
(0.572638 3.44282 -4.99069e-20)
(0.569078 3.55226 0)
(0.49335 3.65649 -2.07195e-19)
(0.414752 3.70337 -7.88826e-19)
(0.328835 3.67483 -1.99207e-19)
(0.407924 0.478802 -8.32926e-19)
(0.882348 1.00116 9.9376e-19)
(1.03734 1.21835 7.39074e-19)
(1.05478 1.24919 -1.91534e-19)