/*--------------------------------*- C++ -*----------------------------------*\
  =========                 |
  \\      /  F ield         | OpenFOAM: The Open Source CFD Toolbox
   \\    /   O peration     | Website:  https://openfoam.org
    \\  /    A nd           | Version:  9
     \\/     M anipulation  |
\*---------------------------------------------------------------------------*/
FoamFile
{
    format      ascii;
    class       volScalarField;
    location    "10";
    object      p;
}
// * * * * * * * * * * * * * * * * * * * * * * * * * * * * * * * * * * * * * //

dimensions      [0 2 -2 0 0 0 0];

internalField   nonuniform List<scalar> 
8800
(
0.430965
0.382985
0.344722
0.316236
0.295811
0.281266
0.270899
0.263625
0.258939
0.25688
0.257849
0.261624
0.26783
0.276727
0.289124
0.306411
0.330614
0.364048
0.406366
0.463447
0.263313
0.27058
0.279155
0.28274
0.281031
0.275785
0.269415
0.263549
0.258987
0.256165
0.255712
0.257884
0.261949
0.267456
0.273872
0.280047
0.283865
0.283113
0.276849
0.267726
0.23948
0.24582
0.250388
0.254136
0.257038
0.258234
0.257464
0.255556
0.253611
0.252559
0.253284
0.255302
0.257656
0.259357
0.259345
0.257287
0.253955
0.249864
0.244985
0.241165
0.234117
0.236949
0.240139
0.242951
0.244965
0.246513
0.247656
0.248163
0.248144
0.248162
0.248521
0.249052
0.249212
0.248623
0.24743
0.245804
0.243499
0.240397
0.237565
0.236045
0.228863
0.230347
0.233082
0.236145
0.238702
0.240566
0.241844
0.242732
0.243341
0.243756
0.244062
0.244121
0.243787
0.242999
0.241653
0.239584
0.236829
0.233802
0.231801
0.231125
0.226351
0.227037
0.228835
0.230982
0.233114
0.235187
0.236977
0.238315
0.239241
0.239866
0.240188
0.240093
0.23946
0.238257
0.236533
0.234594
0.23255
0.23053
0.229339
0.229094
0.225327
0.225663
0.226579
0.227756
0.229034
0.230315
0.231566
0.232811
0.233908
0.234732
0.235101
0.234936
0.23437
0.233553
0.232619
0.231465
0.230404
0.229381
0.228804
0.228684
0.223629
0.223807
0.224347
0.225154
0.226087
0.227141
0.228377
0.229564
0.230657
0.231575
0.232078
0.232078
0.23167
0.23097
0.230189
0.229464
0.228771
0.228176
0.227873
0.227812
0.221111
0.221195
0.221507
0.222022
0.222617
0.223412
0.224273
0.225283
0.226348
0.227349
0.228017
0.228233
0.228126
0.227829
0.227518
0.227166
0.226804
0.226485
0.226342
0.226313
0.218121
0.218171
0.218398
0.218818
0.219349
0.220011
0.2208
0.221738
0.222806
0.223929
0.224827
0.225329
0.225513
0.225502
0.225357
0.22514
0.224899
0.224703
0.224629
0.224614
0.214783
0.214815
0.214976
0.215289
0.215724
0.216303
0.217056
0.218012
0.219171
0.22048
0.221648
0.222426
0.222871
0.223088
0.223157
0.223136
0.223063
0.222994
0.222973
0.222963
0.211075
0.211101
0.211233
0.211497
0.211894
0.212456
0.213227
0.214254
0.215558
0.21713
0.218639
0.219751
0.220476
0.220927
0.221182
0.221312
0.221364
0.221384
0.221396
0.221388
0.206961
0.206988
0.207116
0.207372
0.207773
0.208369
0.20922
0.210392
0.21194
0.213869
0.215802
0.217291
0.218314
0.218999
0.219435
0.219701
0.219855
0.21994
0.219975
0.219968
0.202395
0.202419
0.202562
0.202842
0.20329
0.20397
0.204963
0.206361
0.208244
0.210641
0.213091
0.21502
0.216413
0.217354
0.217976
0.218372
0.218616
0.218754
0.21881
0.218803
0.197308
0.197335
0.197503
0.197831
0.198363
0.19918
0.200385
0.202099
0.204434
0.207437
0.210546
0.213039
0.214822
0.216056
0.216881
0.217415
0.217749
0.217939
0.218016
0.218007
0.191576
0.191609
0.191817
0.192221
0.192878
0.19389
0.19539
0.197531
0.200457
0.204237
0.208168
0.211325
0.213604
0.215186
0.216248
0.216939
0.217372
0.21762
0.217719
0.217708
0.185042
0.185083
0.185347
0.185858
0.186689
0.187968
0.189862
0.192566
0.19626
0.201032
0.20599
0.209973
0.212851
0.214851
0.216196
0.217073
0.217623
0.217938
0.218063
0.21805
0.177491
0.177546
0.177884
0.17854
0.179606
0.181242
0.18366
0.1871
0.191786
0.197816
0.20406
0.209063
0.212675
0.215184
0.216872
0.217973
0.218663
0.219058
0.219214
0.219198
0.16863
0.168702
0.169143
0.169995
0.171381
0.173498
0.176607
0.181011
0.186975
0.194597
0.202443
0.208702
0.213213
0.216344
0.218452
0.219825
0.220685
0.221176
0.22137
0.22135
0.158049
0.158146
0.158728
0.159854
0.161686
0.164466
0.168487
0.174151
0.18176
0.191394
0.201224
0.209025
0.214634
0.218527
0.221147
0.222854
0.22392
0.224526
0.224765
0.224741
0.14518
0.145312
0.14609
0.147605
0.150055
0.153702
0.158991
0.166342
0.176077
0.18824
0.20051
0.210184
0.217127
0.221949
0.225201
0.227324
0.228646
0.229391
0.229685
0.229653
0.129223
0.129408
0.130471
0.132554
0.135881
0.140797
0.147802
0.157389
0.169875
0.185193
0.200427
0.212354
0.220905
0.22686
0.230894
0.233542
0.235196
0.236123
0.236482
0.236437
0.108997
0.109266
0.11077
0.113736
0.118371
0.125099
0.13453
0.14715
0.163169
0.182364
0.20113
0.215717
0.226188
0.23352
0.238529
0.241851
0.243949
0.245127
0.245571
0.245507
0.0826119
0.0830235
0.0853069
0.0897633
0.0964817
0.106001
0.118927
0.135613
0.156091
0.17994
0.202807
0.220457
0.233171
0.242167
0.248404
0.252612
0.255322
0.256861
0.25744
0.257352
0.0467589
0.0475123
0.0514238
0.0586923
0.0690189
0.082949
0.100884
0.122937
0.148905
0.178171
0.205643
0.226707
0.241973
0.252949
0.26074
0.266152
0.269758
0.271857
0.272654
0.272536
-0.00488148
-0.00267156
0.00542893
0.0184292
0.035122
0.0558346
0.0806842
0.109538
0.141988
0.177308
0.209749
0.234469
0.252525
0.265776
0.275494
0.282566
0.287557
0.290694
0.291957
0.291792
-0.0825353
-0.0715516
-0.0530689
-0.029841
-0.00362622
0.0260785
0.0593558
0.0960161
0.135655
0.177595
0.215474
0.244298
0.265635
0.28172
0.294033
0.303605
0.31103
0.316317
0.318987
0.319358
-0.164784
-0.141379
-0.111958
-0.0783672
-0.0423866
-0.00362297
0.0380507
0.0826037
0.129772
0.179028
0.223348
0.257313
0.282895
0.302697
0.318423
0.331205
0.341714
0.350835
0.356206
0.356772
-0.228823
-0.202767
-0.1651
-0.123271
-0.0788204
-0.0317705
0.0178711
0.0700063
0.124372
0.180494
0.230665
0.269041
0.297972
0.320428
0.338277
0.352734
0.3645
0.374009
0.379052
0.379756
-0.279884
-0.251708
-0.209459
-0.161859
-0.111023
-0.0572933
-0.000867052
0.0579828
0.118888
0.181264
0.236535
0.278414
0.309658
0.333585
0.352291
0.367194
0.379207
0.388683
0.393902
0.394682
-0.320889
-0.292165
-0.246548
-0.194724
-0.139114
-0.0801158
-0.018067
0.0465876
0.113276
0.181224
0.241009
0.285862
0.318895
0.343842
0.363075
0.378163
0.390162
0.39938
0.404609
0.405414
-0.35541
-0.326435
-0.2786
-0.22344
-0.163929
-0.100576
-0.0338102
0.0358692
0.10777
0.180894
0.244858
0.292361
0.326922
0.352674
0.372244
0.387383
0.399267
0.408287
0.413478
0.414313
-0.385605
-0.356578
-0.307079
-0.249277
-0.186561
-0.119506
-0.0485887
0.0256019
0.102246
0.180134
0.248025
0.298071
0.334109
0.360643
0.380568
0.395802
0.407623
0.416521
0.421607
0.422445
-0.412909
-0.383818
-0.332991
-0.273008
-0.207631
-0.137423
-0.0629064
0.0152912
0.0963086
0.178803
0.250644
0.303322
0.340927
0.368325
0.38867
0.404056
0.415863
0.424679
0.429657
0.43049
-0.438145
-0.408959
-0.357049
-0.295281
-0.227657
-0.154761
-0.0770662
0.00479817
0.0899477
0.176944
0.252798
0.308279
0.347624
0.37603
0.396903
0.412515
0.424372
0.433083
0.437945
0.438813
-0.462011
-0.432647
-0.37982
-0.316506
-0.246954
-0.171703
-0.0911893
-0.00599742
0.0830211
0.17442
0.254442
0.312985
0.354331
0.383952
0.405498
0.421431
0.433386
0.442056
0.446773
0.44769
-0.484779
-0.455191
-0.401541
-0.337017
-0.265792
-0.188483
-0.105478
-0.0172677
0.0754002
0.171142
0.255495
0.317415
0.361089
0.392189
0.414601
0.430981
0.443108
0.45178
0.456368
0.457257
-0.506807
-0.476885
-0.422534
-0.356978
-0.284314
-0.205229
-0.120017
-0.0290701
0.0670073
0.167
0.25583
0.321469
0.367849
0.400763
0.424288
0.441284
0.453694
0.462417
0.466881
0.467707
-0.528129
-0.497909
-0.443026
-0.376464
-0.302558
-0.221949
-0.134817
-0.0414257
0.0577961
0.161899
0.255309
0.324982
0.374492
0.409611
0.434564
0.452395
0.465231
0.474069
0.478432
0.479114
-0.548812
-0.518309
-0.462938
-0.395498
-0.320551
-0.238651
-0.14987
-0.0543346
0.0477562
0.155762
0.25377
0.327744
0.380816
0.418615
0.445378
0.464318
0.477742
0.486797
0.491094
0.49158
-0.56891
-0.537939
-0.482292
-0.414083
-0.338272
-0.255295
-0.165127
-0.0677433
0.0369047
0.148548
0.251056
0.329513
0.386558
0.42757
0.456613
0.477
0.491213
0.500554
0.504813
0.505085
-0.588448
-0.557206
-0.501005
-0.432182
-0.355665
-0.271811
-0.180513
-0.0815821
0.0252915
0.140244
0.247051
0.330047
0.391377
0.436115
0.468033
0.490315
0.505599
0.515338
0.519486
0.519542
-0.607257
-0.575736
-0.519068
-0.449748
-0.372672
-0.28812
-0.195943
-0.0957544
0.0130055
0.13089
0.241676
0.329104
0.394859
0.443788
0.479314
0.504128
0.520777
0.530895
0.534825
0.534633
-0.625324
-0.593512
-0.536458
-0.46673
-0.389221
-0.304156
-0.211315
-0.110159
0.000149126
0.120547
0.234891
0.326465
0.396611
0.450084
0.489985
0.518333
0.536905
0.547227
0.550563
0.550041
-0.642677
-0.610529
-0.553151
-0.483076
-0.40524
-0.319832
-0.226536
-0.12468
-0.0131582
0.109319
0.226705
0.321999
0.396273
0.454306
0.499288
0.532587
0.554426
0.564768
0.566213
0.565101
-0.659178
-0.626761
-0.569076
-0.49873
-0.420672
-0.335068
-0.24151
-0.1392
-0.0267836
0.0973503
0.217212
0.315615
0.393549
0.45571
0.50597
0.545758
0.573699
0.585987
0.583111
0.579414
-0.67491
-0.642217
-0.584247
-0.513706
-0.435557
-0.349908
-0.256296
-0.153787
-0.040798
0.0845838
0.206325
0.307157
0.388158
0.453491
0.508283
0.555358
0.5929
0.614707
0.611423
0.592053
-0.689838
-0.656899
-0.598779
-0.528167
-0.450151
-0.364657
-0.271282
-0.168917
-0.0557506
0.0703607
0.193362
0.295745
0.379263
0.446543
0.503177
0.555549
0.600598
0.625566
0.615229
0.592344
-0.703845
-0.670881
-0.612513
-0.541909
-0.464212
-0.379011
-0.286242
-0.184249
-0.0712874
0.0550364
0.17855
0.28134
0.36654
0.434745
0.486888
0.536844
0.574473
0.582537
0.517801
0.473982
-0.716523
-0.684713
-0.625006
-0.554349
-0.477152
-0.392544
-0.300918
-0.199585
-0.0872234
0.0387847
0.162032
0.264017
0.349408
0.41937
0.461031
0.490194
0.511003
0.471019
0.392857
0.342381
-0.762969
-0.695618
-0.636275
-0.566639
-0.490083
-0.406351
-0.315361
-0.215159
-0.103892
0.02121
0.14344
0.243652
0.325965
0.400356
0.421756
0.419585
0.391352
0.322462
0.230739
0.181128
-0.722495
-0.707797
-0.65173
-0.584503
-0.50853
-0.425998
-0.336887
-0.238459
-0.128983
-0.0056498
0.113168
0.207794
0.281434
0.343397
0.353676
0.22181
0.0966813
0.00915693
-0.0808444
-0.0262425
-0.749296
-0.721355
-0.66542
-0.597979
-0.522801
-0.441217
-0.352844
-0.256067
-0.148226
-0.0264526
0.0895076
0.178065
0.243065
0.27538
0.217718
0.0347877
-0.131758
-0.250439
-0.382445
-0.289071
-0.768185
-0.73695
-0.680618
-0.612914
-0.538263
-0.457534
-0.370235
-0.275305
-0.169588
-0.0503561
0.0622414
0.143952
0.197412
0.199995
0.0653498
-0.179405
-0.38587
-0.54613
-0.731378
-0.642388
-0.785647
-0.752915
-0.695847
-0.627754
-0.553488
-0.473667
-0.38792
-0.294927
-0.191553
-0.07483
0.0340605
0.107998
0.146043
0.105324
-0.114409
-0.404613
-0.672708
-0.911169
-1.18272
-1.13581
-0.801465
-0.768744
-0.711105
-0.642815
-0.568993
-0.490193
-0.406153
-0.315437
-0.214737
-0.100327
0.00523979
0.0704574
0.0880188
-0.00707778
-0.292736
-0.622148
-0.952717
-1.25003
-1.63394
-1.94839
-0.816668
-0.784277
-0.726608
-0.65836
-0.585026
-0.5073
-0.425035
-0.336798
-0.238915
-0.127007
-0.024447
0.0319835
0.026072
-0.123932
-0.457885
-0.804582
-1.16023
-1.45399
-1.62055
-1.9183
-0.831817
-0.799735
-0.742392
-0.674444
-0.601746
-0.525298
-0.445133
-0.359928
-0.265476
-0.156363
-0.0562114
-0.00923413
-0.0404744
-0.260924
-0.612244
-0.947626
-1.2565
-1.46725
-1.51522
-1.54931
-0.847159
-0.815376
-0.75838
-0.690871
-0.619011
-0.544104
-0.466496
-0.385034
-0.294879
-0.188754
-0.0891704
-0.0510257
-0.119562
-0.399131
-0.760603
-1.07415
-1.29832
-1.42468
-1.45952
-1.46091
-0.862739
-0.831139
-0.77436
-0.707406
-0.636527
-0.563474
-0.48897
-0.412121
-0.327184
-0.224805
-0.124403
-0.0912457
-0.201553
-0.534067
-0.907077
-1.22736
-1.35434
-1.37395
-1.4231
-1.43797
-0.878291
-0.846721
-0.790122
-0.723709
-0.653988
-0.583094
-0.512321
-0.441061
-0.363071
-0.265911
-0.161765
-0.129677
-0.280738
-0.680758
-1.05673
-1.44403
-1.52422
-1.48855
-1.51612
-1.52516
-0.893351
-0.861704
-0.805216
-0.739345
-0.670897
-0.602465
-0.536043
-0.471698
-0.403257
-0.31303
-0.203434
-0.168615
-0.361226
-0.829034
-1.2279
-1.69373
-1.9606
-1.7571
-1.66444
-1.64487
-0.90712
-0.875473
-0.819038
-0.753696
-0.686604
-0.620935
-0.559509
-0.504047
-0.448875
-0.370252
-0.255469
-0.216462
-0.453697
-0.955456
-1.34806
-1.625
-1.69391
-1.66209
-1.66427
-1.65803
-0.919022
-0.887267
-0.830843
-0.766016
-0.700306
-0.637536
-0.581908
-0.537313
-0.501605
-0.447515
-0.33751
-0.304239
-0.575424
-1.06352
-1.35895
-1.3649
-1.41565
-1.55851
-1.67245
-1.70775
-0.928135
-0.896201
-0.839745
-0.775353
-0.710966
-0.651167
-0.602014
-0.571008
-0.564282
-0.560619
-0.49271
-0.469263
-0.753426
-1.24623
-1.68405
-1.87711
-1.99395
-2.02859
-2.02352
-2.03786
-0.933426
-0.901203
-0.844681
-0.780634
-0.717362
-0.660403
-0.618023
-0.60352
-0.637302
-0.73265
-0.777618
-0.749034
-1.00714
-1.52548
-2.17414
-2.76931
-2.98773
-2.90443
-2.69694
-2.58932
-0.933721
-0.901203
-0.844565
-0.780689
-0.71814
-0.66347
-0.627504
-0.630937
-0.718822
-0.976695
-1.23269
-1.14974
-1.22668
-1.63473
-2.3019
-3.04854
-3.25649
-3.05483
-2.71738
-2.58182
-0.92814
-0.895156
-0.838329
-0.774352
-0.711929
-0.658432
-0.626911
-0.647061
-0.79533
-1.25885
-1.80719
-1.5407
-1.24773
-1.24924
-1.41871
-1.69973
-1.73699
-1.49416
-1.21252
-1.08651
-0.915888
-0.882301
-0.825149
-0.7606
-0.697486
-0.643295
-0.61304
-0.643593
-0.831321
-1.45387
-2.2413
-1.69564
-0.955238
-0.302483
0.163904
0.418262
0.57576
0.757182
0.876723
0.910635
-0.896245
-0.862114
-0.804314
-0.738978
-0.674226
-0.617145
-0.582224
-0.60443
-0.78985
-1.41105
-2.14381
-1.38449
-0.426202
0.451708
1.06228
1.48918
1.73116
1.82588
1.85742
1.85832
-0.868705
-0.834234
-0.775975
-0.709632
-0.642399
-0.580293
-0.535099
-0.534333
-0.655259
-1.07611
-1.42697
-0.687943
0.138176
0.858651
1.32673
1.6332
1.80413
1.8882
1.92406
1.93125
-0.833193
-0.798927
-0.740454
-0.673172
-0.60333
-0.5353
-0.476664
-0.443358
-0.471361
-0.607577
-0.579487
-0.0349071
0.543434
0.997432
1.29303
1.48763
1.6067
1.67729
1.714
1.72192
-0.789511
-0.755616
-0.698277
-0.630652
-0.558983
-0.485853
-0.414903
-0.351828
-0.303412
-0.248306
-0.0580034
0.305699
0.682417
0.964571
1.15706
1.28915
1.37886
1.43924
1.47093
1.4759
-0.734363
-0.703201
-0.649102
-0.582508
-0.51069
-0.435068
-0.356226
-0.274006
-0.182722
-0.0524315
0.163119
0.421127
0.664416
0.853463
0.99125
1.09151
1.16481
1.21691
1.24426
1.25204
-0.668434
-0.640363
-0.590873
-0.52787
-0.458738
-0.38381
-0.302801
-0.212917
-0.106082
0.0395457
0.230075
0.423305
0.591099
0.72406
0.825763
0.903357
0.962129
1.00386
1.0284
1.03641
-0.586027
-0.567341
-0.521609
-0.464635
-0.400946
-0.331117
-0.253375
-0.164927
-0.059136
0.0767171
0.23385
0.378881
0.498055
0.591522
0.663693
0.71956
0.763181
0.79579
0.815013
0.819811
-0.473922
-0.464703
-0.43244
-0.387
-0.334389
-0.274786
-0.206527
-0.127436
-0.0321583
0.0863576
0.216602
0.33176
0.423955
0.494947
0.548561
0.588331
0.617447
0.639016
0.652766
0.656004
-0.356248
-0.352328
-0.331725
-0.300036
-0.261336
-0.214962
-0.159483
-0.0932507
-0.0120248
0.0883374
0.195355
0.287425
0.359464
0.41368
0.453324
0.481459
0.500827
0.513436
0.519638
0.521012
-0.244229
-0.242241
-0.231421
-0.212261
-0.186791
-0.153935
-0.11233
-0.0597576
0.00631307
0.0886163
0.175352
0.248455
0.304444
0.345513
0.374511
0.394225
0.406958
0.414513
0.418107
0.418578
-0.146862
-0.14673
-0.142279
-0.132694
-0.118097
-0.0970662
-0.0678407
-0.0284078
0.0233174
0.0890692
0.15852
0.216271
0.259573
0.2906
0.31192
0.325733
0.334083
0.338655
0.340513
0.340555
-0.0722306
-0.072994
-0.0728389
-0.0700136
-0.0629453
-0.0501574
-0.030253
-0.00142659
0.0380637
0.08948
0.144116
0.189222
0.222629
0.245979
0.261413
0.271101
0.276711
0.279516
0.28049
0.28041
-0.0219194
-0.0228431
-0.0245299
-0.0249491
-0.0223099
-0.0150619
-0.00171746
0.0191217
0.0489776
0.0886846
0.131175
0.166063
0.191517
0.209087
0.220598
0.227631
0.231436
0.233111
0.233609
0.233485
0.00932688
0.00859548
0.00691465
0.00584067
0.00679318
0.0109226
0.0196306
0.0344698
0.0567741
0.0871828
0.119927
0.146806
0.166329
0.179647
0.188098
0.193014
0.19553
0.196521
0.196744
0.196628
0.0281916
0.0277118
0.0265241
0.0256326
0.0261392
0.0289622
0.0351042
0.0457738
0.0622337
0.0852591
0.11035
0.130922
0.145654
0.155495
0.16169
0.165259
0.166999
0.167589
0.167675
0.167577
0.0398624
0.0395617
0.0388067
0.0382135
0.0385298
0.0404655
0.0449086
0.0528415
0.0652026
0.0825878
0.101619
0.117201
0.128341
0.135789
0.140391
0.142955
0.144152
0.144507
0.144532
0.144452
0.0471089
0.0469191
0.0464374
0.0460795
0.0463757
0.0478217
0.0510509
0.0568732
0.066105
0.0792496
0.0937142
0.10555
0.11397
0.119515
0.122899
0.124763
0.125606
0.125828
0.125827
0.125762
0.0512433
0.051119
0.0507918
0.0505579
0.0508073
0.0519159
0.0543608
0.0587316
0.0656506
0.0755482
0.0864727
0.0953991
0.101718
0.105868
0.10838
0.109736
0.110323
0.110454
0.110436
0.110384
0.0530297
0.0529463
0.0527203
0.0525659
0.0527715
0.0536115
0.0554459
0.0587278
0.0639436
0.0714078
0.0796574
0.0863925
0.0911459
0.0942456
0.0961011
0.0970883
0.0974998
0.0975749
0.0975514
0.0975085
0.0530566
0.0529997
0.0528477
0.0527534
0.0529307
0.0535826
0.0549767
0.0574525
0.0613747
0.0670037
0.0732244
0.0782915
0.0818556
0.0841659
0.085539
0.0862571
0.0865443
0.0865832
0.086557
0.086522
0.0517833
0.0517427
0.05164
0.0515851
0.0517346
0.0522393
0.0533003
0.0551736
0.0581357
0.0623782
0.0670604
0.0708669
0.0735375
0.0752596
0.0762746
0.0767978
0.0769991
0.0770173
0.0769918
0.0769631
0.0495482
0.0495179
0.0494471
0.0494165
0.0495409
0.0499327
0.0507414
0.0521586
0.0543924
0.0575875
0.0611104
0.0639685
0.0659673
0.0672494
0.0679988
0.0683789
0.0685183
0.0685225
0.0684981
0.0684747
0.0465956
0.0465723
0.0465215
0.0465043
0.0466048
0.0469067
0.0475221
0.0485935
0.0502771
0.0526809
0.0553271
0.0574697
0.0589623
0.0599142
0.0604654
0.0607404
0.0608365
0.0608331
0.0608112
0.0607924
0.0431016
0.0430832
0.0430451
0.0430338
0.0431114
0.0433409
0.0438062
0.0446145
0.0458815
0.0476882
0.0496751
0.0512764
0.0523864
0.0530924
0.0534978
0.0536961
0.0537601
0.0537507
0.053731
0.053716
0.0391965
0.0391819
0.0391521
0.0391428
0.0392007
0.0393731
0.0397229
0.040329
0.0412794
0.0426328
0.0441167
0.0453119
0.0461373
0.046658
0.0469543
0.0470959
0.0471376
0.0471254
0.0471081
0.0470963
0.0349786
0.034967
0.0349427
0.0349334
0.0349747
0.035102
0.035362
0.0358145
0.0365241
0.0375334
0.0386393
0.0395268
0.0401375
0.0405202
0.0407342
0.0408333
0.0408589
0.0408456
0.0408303
0.0408207
0.0305219
0.0305125
0.0304924
0.030483
0.0305113
0.0306036
0.0307946
0.0311285
0.0316539
0.0324022
0.033219
0.0338732
0.0343207
0.0345986
0.0347521
0.0348212
0.0348363
0.0348234
0.0348103
0.0348025
0.0258853
0.0258775
0.0258607
0.0258512
0.0258691
0.0259339
0.0260719
0.0263158
0.0266995
0.027246
0.0278431
0.0283191
0.0286428
0.0288417
0.0289503
0.0289969
0.0290044
0.0289921
0.0289811
0.028975
0.0211153
0.021109
0.0210948
0.0210851
0.0210948
0.0211386
0.0212352
0.0214083
0.0216826
0.0220747
0.0225029
0.0228436
0.0230741
0.0232141
0.0232874
0.0233158
0.0233161
0.0233031
0.0232932
0.0232886
0.0162452
0.0162401
0.0162279
0.0162178
0.0162214
0.0162492
0.0163137
0.0164313
0.0166196
0.0168902
0.0171854
0.0174203
0.0175781
0.0176719
0.0177194
0.0177357
0.0177325
0.0177201
0.0177115
0.0177078
0.0113015
0.0112975
0.0112874
0.0112779
0.0112774
0.0112928
0.0113327
0.0114076
0.0115287
0.0117014
0.0118906
0.0120387
0.0121363
0.0121935
0.0122212
0.0122284
0.012223
0.0122126
0.0122056
0.0122028
0.00630587
0.00630317
0.00629534
0.00628732
0.00628467
0.00629109
0.00631089
0.00634947
0.00641243
0.00650304
0.00660167
0.00667934
0.00673081
0.00676113
0.00677456
0.00677567
0.00676882
0.00675927
0.00675392
0.00675238
0.00126959
0.00126881
0.00126627
0.00126214
0.00126029
0.00126048
0.00126235
0.00126739
0.0012766
0.00129076
0.00130978
0.00132775
0.00134033
0.00134782
0.00135091
0.00135158
0.00135093
0.00134766
0.00134327
0.00134196
-0.869158
-0.584711
-0.290143
-0.0595217
0.127625
0.27953
0.409675
0.519402
0.568422
0.551991
-0.382599
-0.204128
-0.0245194
0.128675
0.258582
0.368189
0.457752
0.52192
0.556332
0.567458
-0.0693789
0.0461294
0.164065
0.269214
0.360105
0.436514
0.497238
0.541848
0.572782
0.58919
0.143285
0.221352
0.303534
0.37812
0.442894
0.497655
0.542231
0.577302
0.604066
0.621373
0.300879
0.356359
0.415038
0.469841
0.518259
0.560041
0.595269
0.624144
0.646609
0.663918
0.425009
0.46548
0.511862
0.554458
0.593223
0.627548
0.65714
0.681707
0.70047
0.717724
0.52979
0.56301
0.602415
0.639094
0.672885
0.703293
0.729651
0.751302
0.767084
0.784394
0.626064
0.658191
0.695422
0.730347
0.762344
0.790954
0.815486
0.835084
0.848531
0.86598
0.726115
0.761315
0.79966
0.835106
0.866627
0.894033
0.916949
0.934787
0.946777
0.964614
0.84382
0.883407
0.922737
0.958045
0.988213
1.01365
1.03456
1.05075
1.06244
1.08085
0.990324
1.03048
1.06665
1.09761
1.12375
1.14628
1.16569
1.18153
1.19441
1.21261
1.16616
1.19854
1.22472
1.24737
1.26772
1.28677
1.30465
1.3214
1.33731
1.35556
1.35437
1.37214
1.38791
1.40471
1.42104
1.43573
1.44888
1.46298
1.48016
1.49989
1.53635
1.54736
1.55966
1.57059
1.57992
1.58958
1.6006
1.61226
1.62225
1.63746
1.74755
1.74957
1.73442
1.71931
1.71314
1.71887
1.73752
1.76798
1.8001
1.83085
2.05354
1.91655
1.84037
1.79831
1.78078
1.78493
1.8123
1.86845
1.97198
2.18729
0.327172
0.323845
0.318036
0.308401
0.295668
0.283487
0.27344
0.265735
0.26027
0.257057
0.25655
0.258909
0.26359
0.270391
0.279413
0.29073
0.303555
0.315302
0.322578
0.327199
0.244839
0.250772
0.257845
0.263339
0.266464
0.266455
0.263897
0.26033
0.257007
0.254751
0.254402
0.256274
0.259474
0.26328
0.266693
0.268236
0.266733
0.262302
0.256145
0.248955
0.236731
0.239083
0.242802
0.246173
0.248833
0.251037
0.25238
0.252431
0.25159
0.250726
0.250697
0.251733
0.253065
0.253815
0.253301
0.25158
0.249233
0.246344
0.242682
0.239495
0.231362
0.232394
0.234726
0.237845
0.240433
0.242207
0.243476
0.244479
0.245148
0.245543
0.245858
0.24607
0.246
0.245473
0.244573
0.243245
0.24119
0.238306
0.235454
0.233818
0.227178
0.227586
0.229265
0.232006
0.234701
0.237162
0.239122
0.240437
0.241293
0.241851
0.242252
0.242478
0.2423
0.24161
0.240223
0.238157
0.235695
0.233014
0.230682
0.229788
0.225882
0.226049
0.226895
0.228383
0.229992
0.231539
0.233065
0.234553
0.23581
0.236746
0.237313
0.237362
0.236905
0.235992
0.234843
0.233517
0.232049
0.230579
0.229373
0.228964
0.224577
0.224659
0.225122
0.226005
0.22703
0.228176
0.22945
0.230679
0.231808
0.232788
0.233452
0.233641
0.233363
0.232735
0.231844
0.23094
0.230066
0.229206
0.228557
0.228349
0.222462
0.222501
0.222747
0.223287
0.223978
0.224745
0.225736
0.226837
0.227965
0.229016
0.229817
0.230136
0.230013
0.229607
0.229036
0.228573
0.228058
0.227564
0.227241
0.227144
0.219653
0.219668
0.21982
0.220201
0.220724
0.221363
0.222113
0.222986
0.223989
0.225049
0.225994
0.226575
0.22677
0.226734
0.226591
0.226227
0.225989
0.225694
0.225511
0.225468
0.216498
0.216506
0.21661
0.21689
0.217314
0.217855
0.218547
0.219408
0.220441
0.221618
0.222774
0.223614
0.224066
0.224252
0.224274
0.224186
0.22405
0.223895
0.223808
0.22379
0.212976
0.21298
0.213059
0.213272
0.213617
0.214098
0.21475
0.215613
0.216714
0.218046
0.219474
0.220634
0.221384
0.221829
0.222073
0.222179
0.222201
0.222181
0.22217
0.222168
0.20907
0.209069
0.209147
0.209337
0.209659
0.210136
0.210818
0.211759
0.213009
0.214593
0.216375
0.217907
0.218982
0.219686
0.220128
0.220392
0.220538
0.220613
0.220652
0.22066
0.204737
0.204734
0.204815
0.205013
0.205349
0.205867
0.206629
0.207714
0.209196
0.211125
0.213358
0.21535
0.216773
0.217773
0.21843
0.21885
0.219109
0.21926
0.219338
0.219355
0.199925
0.19992
0.20001
0.200235
0.20062
0.201223
0.202126
0.20343
0.205238
0.207628
0.210439
0.212983
0.214866
0.21617
0.217056
0.217636
0.218003
0.218224
0.218337
0.218362
0.194533
0.194526
0.194636
0.194907
0.195374
0.196109
0.197216
0.198826
0.201074
0.204065
0.207609
0.210844
0.21324
0.214929
0.216079
0.216838
0.217324
0.217618
0.217767
0.217801
0.188425
0.188415
0.188554
0.188894
0.189479
0.190399
0.191786
0.193807
0.196634
0.200401
0.204873
0.208962
0.211995
0.21414
0.215604
0.216574
0.217196
0.217573
0.217765
0.217808
0.181414
0.181401
0.18158
0.182016
0.182763
0.183932
0.185695
0.18826
0.191842
0.196606
0.202248
0.207398
0.211213
0.213912
0.215757
0.216979
0.217764
0.218242
0.218483
0.218537
0.173246
0.17323
0.173464
0.174031
0.174995
0.176498
0.178759
0.18204
0.186606
0.192645
0.199759
0.206226
0.211004
0.214381
0.216689
0.21822
0.219205
0.219805
0.220108
0.220174
0.163575
0.163556
0.163868
0.164613
0.165871
0.16782
0.170741
0.174974
0.18082
0.18849
0.197451
0.205545
0.211505
0.215712
0.218586
0.220495
0.221726
0.22248
0.222859
0.22294
0.151926
0.151905
0.152329
0.153322
0.154979
0.157533
0.161383
0.166874
0.174374
0.184121
0.195384
0.205476
0.212878
0.218098
0.221665
0.224038
0.225575
0.226523
0.227
0.227099
0.137625
0.137604
0.138198
0.139552
0.141773
0.145199
0.15028
0.157468
0.167163
0.179549
0.193654
0.206168
0.215312
0.221762
0.226178
0.229122
0.231037
0.232229
0.232835
0.23296
0.11967
0.119655
0.120525
0.122426
0.125487
0.130173
0.137036
0.146553
0.159115
0.174827
0.192388
0.207793
0.219016
0.22695
0.232408
0.236062
0.238449
0.239944
0.240713
0.240874
0.0965338
0.0965513
0.0978914
0.100663
0.105059
0.111692
0.121139
0.133872
0.150197
0.170053
0.191741
0.210525
0.224182
0.233891
0.240636
0.245199
0.248203
0.250096
0.25108
0.251293
0.0657517
0.0658811
0.0680788
0.07238
0.0790615
0.0888012
0.102105
0.11931
0.140508
0.165405
0.191889
0.214513
0.230952
0.24275
0.251085
0.256845
0.260715
0.263197
0.264492
0.264768
0.0228251
0.0232801
0.0274377
0.0349691
0.0459089
0.0608192
0.0798767
0.10313
0.130401
0.161199
0.193047
0.219875
0.239381
0.253564
0.263824
0.271158
0.276286
0.279738
0.281577
0.281935
-0.0405992
-0.0384314
-0.0286842
-0.0141281
0.0048461
0.0280161
0.0551309
0.0860506
0.120476
0.157842
0.195413
0.226631
0.24936
0.266128
0.278595
0.287888
0.294762
0.29966
0.302531
0.302925
-0.116821
-0.112787
-0.0945831
-0.0686212
-0.0391081
-0.00645031
0.0294202
0.0685097
0.110603
0.15524
0.199513
0.236283
0.263424
0.283968
0.299833
0.312267
0.322177
0.329784
0.333247
0.334833
-0.194436
-0.183823
-0.156713
-0.120671
-0.08163
-0.0398578
0.00459008
0.0517273
0.101423
0.153312
0.2043
0.246592
0.277994
0.302064
0.321011
0.336231
0.348592
0.358403
0.364434
0.366981
-0.252388
-0.240739
-0.20866
-0.166138
-0.119765
-0.0704762
-0.0185437
0.0359039
0.0926343
0.151253
0.208376
0.25543
0.290153
0.316592
0.337201
0.353516
0.366541
0.376754
0.383205
0.385893
-0.298748
-0.286742
-0.251282
-0.204212
-0.152607
-0.0976296
-0.0396304
0.0210573
0.0840267
0.148704
0.211228
0.262254
0.2995
0.327482
0.348983
0.365783
0.379033
0.389333
0.395878
0.398502
-0.336587
-0.324718
-0.287372
-0.236828
-0.181113
-0.121581
-0.0586257
0.00732097
0.0757173
0.145835
0.213333
0.267966
0.307372
0.336585
0.358718
0.375769
0.389029
0.399235
0.405736
0.408239
-0.369146
-0.357439
-0.318685
-0.265528
-0.206549
-0.143245
-0.0760717
-0.00551796
0.0677756
0.142903
0.214994
0.272926
0.314292
0.344585
0.367244
0.384488
0.397764
0.407908
0.414424
0.416858
-0.398054
-0.386504
-0.34676
-0.291511
-0.229845
-0.163367
-0.0925363
-0.0179122
0.059784
0.139526
0.21602
0.277242
0.3206
0.35202
0.375256
0.392746
0.406084
0.416184
0.422717
0.425074
-0.424469
-0.413001
-0.372464
-0.315476
-0.25161
-0.182458
-0.108496
-0.0302748
0.0514733
0.135652
0.216531
0.281142
0.326624
0.359291
0.3832
0.401006
0.41446
0.424553
0.431099
0.433375
-0.449134
-0.437709
-0.396491
-0.338053
-0.272318
-0.200878
-0.124166
-0.0427
0.0428017
0.131221
0.216486
0.284661
0.332497
0.366612
0.391342
0.409569
0.423198
0.433324
0.439858
0.442034
-0.472524
-0.461092
-0.419285
-0.359631
-0.292298
-0.21886
-0.139725
-0.0553611
0.0335852
0.126077
0.215786
0.287777
0.338266
0.374097
0.399851
0.418631
0.432514
0.44272
0.449243
0.451357
-0.495016
-0.483506
-0.441138
-0.380471
-0.311783
-0.23662
-0.155368
-0.0684005
0.0237393
0.120133
0.214326
0.290402
0.343898
0.381782
0.408818
0.428329
0.442583
0.452924
0.459439
0.461505
-0.516801
-0.505141
-0.462208
-0.400754
-0.330858
-0.254217
-0.17112
-0.0818439
0.0132084
0.113309
0.211975
0.292387
0.349283
0.38961
0.41826
0.438737
0.453506
0.464073
0.470582
0.472617
-0.537898
-0.52608
-0.482664
-0.420513
-0.349567
-0.271665
-0.186991
-0.0956975
0.00197347
0.105547
0.208612
0.293563
0.354237
0.397448
0.428103
0.449846
0.465331
0.476224
0.482766
0.484785
-0.558425
-0.546399
-0.502603
-0.43974
-0.367926
-0.288969
-0.202957
-0.109934
-0.00993876
0.0968315
0.204142
0.293736
0.358526
0.405076
0.438204
0.461586
0.478059
0.489452
0.496088
0.497986
-0.578293
-0.566078
-0.521983
-0.458438
-0.385895
-0.306077
-0.218951
-0.124481
-0.0224793
0.0871683
0.198493
0.292703
0.361853
0.412217
0.448369
0.473858
0.491595
0.503636
0.510424
0.512182
-0.597543
-0.585106
-0.540656
-0.476555
-0.403429
-0.322918
-0.234909
-0.139256
-0.0355699
0.0766027
0.191616
0.290268
0.363892
0.418527
0.458324
0.486507
0.505897
0.518717
0.525618
0.527173
-0.615994
-0.603455
-0.558612
-0.494061
-0.420466
-0.339404
-0.250745
-0.154169
-0.0491112
0.0652182
0.183514
0.286305
0.364348
0.423512
0.467552
0.499231
0.520911
0.534637
0.541433
0.542648
-0.633764
-0.621077
-0.575839
-0.510918
-0.436959
-0.355487
-0.266355
-0.169118
-0.0629929
0.053129
0.17424
0.280752
0.36293
0.426544
0.475317
0.511578
0.536712
0.551659
0.557701
0.558103
-0.650723
-0.637859
-0.592336
-0.52707
-0.452823
-0.371087
-0.281654
-0.183979
-0.0770811
0.0404386
0.163888
0.273573
0.359448
0.427086
0.480701
0.522639
0.553184
0.570934
0.575147
0.572775
-0.666905
-0.653878
-0.608005
-0.542465
-0.468019
-0.386144
-0.296565
-0.198667
-0.0912562
0.0273195
0.152609
0.264778
0.353771
0.424848
0.482708
0.530716
0.568974
0.593774
0.598767
0.586971
-0.682249
-0.669108
-0.622966
-0.557232
-0.482735
-0.400918
-0.311412
-0.21359
-0.106
0.0132183
0.139809
0.253747
0.345252
0.419086
0.479695
0.532851
0.579824
0.615788
0.625644
0.621485
-0.696748
-0.68347
-0.637224
-0.57132
-0.496958
-0.415403
-0.32616
-0.228739
-0.121326
-0.00193037
0.125381
0.240299
0.33332