/*--------------------------------*- C++ -*----------------------------------*\
  =========                 |
  \\      /  F ield         | OpenFOAM: The Open Source CFD Toolbox
   \\    /   O peration     | Website:  https://openfoam.org
    \\  /    A nd           | Version:  9
     \\/     M anipulation  |
\*---------------------------------------------------------------------------*/
FoamFile
{
    format      ascii;
    class       surfaceScalarField;
    location    "10";
    object      phi;
}
// * * * * * * * * * * * * * * * * * * * * * * * * * * * * * * * * * * * * * //

dimensions      [0 3 -1 0 0 0 0];

internalField   nonuniform List<scalar> 
17370
(
-0.0910743
0.0935277
0.286557
-0.0749359
0.056953
0.364758
-0.0409663
0.030022
0.427112
-0.0212987
0.0156977
0.504853
-0.0114042
0.0086362
0.60217
-0.00643299
0.0049535
0.720537
-0.00373192
0.00287775
0.863761
-0.00213837
0.00159335
1.036
-0.00109455
0.000699423
1.2429
-0.000313595
-4.76028e-05
1.49155
0.000406845
-0.000795311
1.49158
0.00118458
-0.00167303
1.24318
0.00220788
-0.00294083
1.03637
0.00379063
-0.00500647
0.864122
0.00648054
-0.00867809
0.721255
0.0114418
-0.0157319
0.603505
0.0213299
-0.0300489
0.508158
0.040989
-0.0569716
0.432151
0.0749504
-0.0935364
0.365361
0.0910812
0.19793
-0.127463
0.0884129
0.0390496
-0.364839
0.354085
-0.072238
0.0829919
-0.446553
0.45455
-0.0809588
0.0729613
-0.520864
0.5296
-0.0646403
0.0559046
-0.612824
0.620956
-0.0480715
0.0399397
-0.727095
0.733697
-0.0331248
0.0265227
-0.867625
0.872329
-0.0213662
0.0166616
-1.03855
1.04176
-0.0131075
0.00990003
-1.24462
1.24689
-0.00745863
0.00518188
-1.49267
1.49454
-0.00334243
0.00146938
-1.49248
1.49419
0.000239999
-0.0019481
-1.24399
1.24582
0.00380115
-0.005625
-1.03755
1.03997
0.00787046
-0.0102842
-0.86622
0.869751
0.0134605
-0.0169913
-0.724605
0.729735
0.0216703
-0.0268007
-0.608958
0.615742
0.033377
-0.0401613
-0.514928
0.522738
0.0482596
-0.0560694
-0.439706
0.448011
0.0647848
-0.0730908
-0.375205
0.377214
0.0810688
-0.0830776
-0.257074
0.22385
0.0722957
-0.0390716
-0.0690651
0.0595335
0.0095316
-0.0508998
0.0573609
-0.374916
0.368454
-0.0563909
0.0525627
-0.454124
0.457952
-0.0472752
0.0429188
-0.527965
0.532321
-0.0386073
0.0347285
-0.621025
0.624903
-0.0305345
0.0265852
-0.734599
0.738549
-0.0222816
0.0184499
-0.873661
0.877492
-0.0145516
0.0112663
-1.04299
1.04628
-0.00798694
0.00519707
-1.24827
1.25106
-0.00226915
-0.000450307
-1.49654
1.49926
0.00315442
-0.00604782
-1.49699
1.49988
0.00879106
-0.0120242
-1.24969
1.25292
0.0152638
-0.019103
-1.04534
1.04918
0.0228789
-0.0271218
-0.877014
0.881257
0.0310213
-0.0351749
-0.739174
0.743328
0.0390156
-0.0432782
-0.626482
0.630744
0.0475941
-0.0528424
-0.535343
0.540591
0.0566271
-0.057548
-0.458339
0.459259
0.0510384
-0.0312555
-0.337084
0.317301
0.00955468
-0.068998
0.0594434
-0.0541009
0.0504497
0.00365116
-0.0304723
0.0400335
-0.359536
0.349975
-0.0432698
0.0426568
-0.459675
0.460288
-0.0399446
0.0370206
-0.536014
0.538938
-0.0336143
0.0305658
-0.628276
0.631325
-0.0272803
0.024338
-0.741775
0.744718
-0.0211845
0.0183352
-0.880865
0.883714
-0.0151669
0.0122247
-1.04958
1.05252
-0.00895675
0.00594371
-1.25407
1.25708
-0.0025678
-0.000664435
-1.50226
1.50549
0.00387403
-0.00720478
-1.50309
1.50642
0.0101579
-0.0133387
-1.2563
1.25948
0.0161941
-0.0192678
-1.05278
1.05585
0.0220189
-0.0250665
-0.884752
0.8878
0.0279207
-0.0311442
-0.746785
0.750009
0.0341511
-0.037501
-0.63462
0.63797
0.0403742
-0.0430345
-0.544571
0.547231
0.0435978
-0.0402953
-0.457628
0.454325
0.0306542
-0.0147556
-0.299008
0.283109
0.00367895
-0.0539858
0.0503069
-0.0477645
0.0458497
0.00191477
-0.0179007
0.0264393
-0.340584
0.332045
-0.0312162
0.031985
-0.460208
0.459439
-0.030878
0.0290069
-0.541258
0.543129
-0.0269391
0.0249731
-0.633986
0.635952
-0.0226469
0.0204301
-0.747389
0.749606
-0.0179493
0.015654
-0.886255
0.88855
-0.013083
0.0106859
-1.05511
1.0575
-0.00794732
0.00530114
-1.25991
1.26256
-0.00218948
-0.000894679
-1.50872
1.5118
0.00396216
-0.00700292
-1.50965
1.51269
0.009563
-0.0122069
-1.26234
1.26498
0.0145161
-0.0169765
-1.05854
1.061
0.0191681
-0.0215337
-0.890574
0.892939
0.0236393
-0.0258446
-0.752926
0.755131
0.0277261
-0.0296965
-0.640617
0.642588
0.0314885
-0.0325027
-0.549076
0.55009
0.0316461
-0.0267549
-0.450018
0.445127
0.0181061
-0.00767778
-0.269806
0.259377
0.00194852
-0.0475898
0.0456412
-0.044679
0.0440798
0.000599139
-0.00779856
0.0134806
-0.324898
0.319215
-0.0182365
0.0203457
-0.457932
0.455823
-0.0208944
0.020524
-0.544298
0.544669
-0.0198768
0.0190747
-0.637299
0.638101
-0.0180489
0.017028
-0.751141
0.752162
-0.01565
0.0141183
-0.890484
0.892016
-0.0121457
0.0100765
-1.05974
1.06181
-0.00753633
0.00496949
-1.26513
1.2677
-0.0018988
-0.00113396
-1.51484
1.51787
0.00413062
-0.00711974
-1.51565
1.51864
0.00958019
-0.0119825
-1.2675
1.2699
0.0139131
-0.0157261
-1.06316
1.06498
0.0171216
-0.0183505
-0.894703
0.895932
0.0192483
-0.0201936
-0.756536
0.757481
0.0208629
-0.021383
-0.643884
0.644405
0.0216503
-0.0209796
-0.550185
0.549515
0.018752
-0.0138593
-0.440067
0.435175
0.00805281
-0.00289803
-0.251867
0.246712
0.000640835
-0.0444346
0.0437938
-0.0437827
0.0436194
0.00016332
-0.00354337
0.00723732
-0.314689
0.310995
-0.011598
0.0146908
-0.453218
0.450125
-0.0168136
0.017809
-0.544364
0.543368
-0.0181795
0.0182883
-0.638267
0.638158
-0.0180224
0.0172183
-0.753068
0.753872
-0.0158991
0.014377
-0.893464
0.894986
-0.0123451
0.0101787
-1.06385
1.06601
-0.00748308
0.00480214
-1.27029
1.27297
-0.00162258
-0.00151557
-1.52091
1.52405
0.00463239
-0.00773493
-1.52167
1.52478
0.0102928
-0.0127935
-1.27229
1.27479
0.0147594
-0.016585
-1.06671
1.06854
0.0179283
-0.0190502
-0.897088
0.89821
0.0195945
-0.0195897
-0.757924
0.75792
0.0193857
-0.0188793
-0.644247
0.643741
0.0177479
-0.0154785
-0.548072
0.545802
0.0122433
-0.00771332
-0.430491
0.425961
0.00386011
-0.00120054
-0.243093
0.240433
0.000215518
-0.0434472
0.0432317
-0.043544
0.0435233
2.06587e-05
-0.00170652
0.00418689
-0.307961
0.305481
-0.00801609
0.0116186
-0.446675
0.443073
-0.0149004
0.0171085
-0.541678
0.53947
-0.0184231
0.0187833
-0.637969
0.637609
-0.0186001
0.0180426
-0.754529
0.755087
-0.0168876
0.0153482
-0.896508
0.898047
-0.0132124
0.0108936
-1.0683
1.07062
-0.00800348
0.00503528
-1.2758
1.27877
-0.00147178
-0.0020602
-1.52738
1.53091
0.00555387
-0.00895909
-1.52802
1.53142
0.0117226
-0.0143589
-1.2774
1.28004
0.016426
-0.018262
-1.07038
1.07222
0.0195083
-0.0203441
-0.899158
0.899994
0.0207101
-0.0206886
-0.757887
0.757865
0.020099
-0.0185533
-0.642745
0.6412
0.0161421
-0.0126459
-0.542813
0.539317
0.00883699
-0.00477817
-0.421622
0.417563
0.00209659
-0.000574686
-0.238444
0.236922
8.23631e-05
-0.0431029
0.0430205
-0.0435187
0.0435205
-1.75868e-06
-0.000850056
0.00239685
-0.303482
0.301935
-0.00524228
0.00840689
-0.439564
0.436399
-0.0117695
0.0143171
-0.536954
0.534407
-0.0162032
0.0171312
-0.636993
0.636065
-0.0172786
0.0168002
-0.755621
0.756099
-0.01577
0.0144097
-0.899548
0.900908
-0.0124802
0.0103611
-1.07288
1.075
-0.00763001
0.00467167
-1.28179
1.28475
-0.000995248
-0.00264994
-1.53457
1.53821
0.00620847
-0.00968723
-1.53493
1.53841
0.0124265
-0.0149033
-1.28262
1.2851
0.0167739
-0.0184002
-1.074
1.07562
0.0194808
-0.0201858
-0.900781
0.901486
0.0202874
-0.0197958
-0.7577
0.757208
0.0185184
-0.0162741
-0.639241
0.636997
0.0134198
-0.00974022
-0.535577
0.531898
0.00630024
-0.00316404
-0.413907
0.410771
0.00136027
-0.000408427
-0.23572
0.234768
8.02688e-05
-0.042943
0.0428628
-0.0435399
0.0435776
-3.77224e-05
-0.000237497
0.00100009
-0.300809
0.300046
-0.00263703
0.00469563
-0.433757
0.431699
-0.00713689
0.00913429
-0.532074
0.530077
-0.0108246
0.0118398
-0.635034
0.634019
-0.0123559
0.0123441
-0.756316
0.756328
-0.0118338
0.0109365
-0.902041
0.902939
-0.00949852
0.0077975
-1.07692
1.07862
-0.00550011
0.00298002
-1.28754
1.29006
0.000186175
-0.00334961
-1.54169
1.54485
0.0064061
-0.0093125
-1.54168
1.54459
0.0115651
-0.0136328
-1.28741
1.28948
0.015043
-0.0160339
-1.07697
1.07796
0.0164986
-0.0165436
-0.901905
0.90195
0.0161317
-0.0150878
-0.756348
0.755304
0.0136457
-0.0115086
-0.634714
0.632577
0.00913159
-0.00629999
-0.528562
0.525731
0.00390474
-0.00191057
-0.408217
0.406223
0.000834319
-0.000269946
-0.234032
0.233467
6.00939e-05
-0.042791
0.0427309
-0.0436273
0.0436875
-6.02142e-05
0.000125568
0.000150855
-0.299563
0.299286
-0.000893265
0.00194543
-0.430186
0.429133
-0.00331667
0.0045358
-0.528469
0.52725
-0.00567475
0.00644823
-0.633095
0.632321
-0.00695744
0.0070883
-0.756228
0.756097
-0.00684801
0.00628398
-0.903643
0.904207
-0.00528376
0.00402542
-1.0801
1.08135
-0.00227978
0.000418417
-1.29225
1.29411
0.00191363
-0.00424099
-1.54761
1.54994
0.0064626
-0.00847097
-1.54705
1.54906
0.00995571
-0.0113117
-1.29121
1.29257
0.0121147
-0.0124874
-1.07862
1.07899
0.012445
-0.0120348
-0.901722
0.901312
0.0113395
-0.0102493
-0.754204
0.753114
0.00897902
-0.00732893
-0.630664
0.629014
0.00567071
-0.00384686
-0.52343
0.521606
0.00239788
-0.00123349
-0.404699
0.403534
0.000592891
-0.000221251
-0.233022
0.23265
5.7106e-05
-0.0426756
0.0426185
-0.0437595
0.0438422
-8.26481e-05
0.000357679
-0.00036838
-0.299183
0.299193
0.000148066
0.000264675
-0.428443
0.428031
-0.00086391
0.00143499
-0.526382
0.525811
-0.0019977
0.00239883
-0.63173
0.631329
-0.0026638
0.00270345
-0.755992
0.755952
-0.00249889
0.00207764
-0.904679
0.9051
-0.00134416
0.000417435
-1.08243
1.08335
0.000860678
-0.00217489
-1.29568
1.297
0.00377283
-0.00534434
-1.55186
1.55343
0.0068068
-0.00803072
-1.55065
1.55187
0.00883269
-0.00941166
-1.29354
1.29412
0.00965705
-0.00960327
-1.07912
1.07907
0.00929416
-0.00871139
-0.90079
0.900207
0.00798675
-0.00702587
-0.752077
0.751117
0.00603051
-0.00485595
-0.627619
0.626444
0.00376073
-0.00262006
-0.520171
0.51903
0.00173339
-0.00100085
-0.402628
0.401895
0.000551645
-0.000237834
-0.232319
0.232006
6.92582e-05
-0.0425564
0.0424872
-0.0439351
0.0440395
-0.000104388
0.000558818
-0.000741635
-0.299286
0.299469
0.000820151
-0.00078446
-0.427831
0.427796
0.000662718
-0.000533302
-0.525483
0.525353
0.000416705
-0.000363769
-0.63111
0.631058
0.000396365
-0.000539496
-0.755998
0.756141
0.00084217
-0.00126259
-0.905508
0.905928
0.00189411
-0.00263077
-1.08417
1.0849
0.00359591
-0.00455414
-1.29811
1.29907
0.00567016
-0.00670904
-1.55471
1.55575
0.00760499
-0.00828835
-1.5528
1.55349
0.0086117
-0.00861413
-1.29435
1.29435
0.00841627
-0.00807471
-1.07887
1.07852
0.00761486
-0.00696466
-0.899588
0.898938
0.0062728
-0.00544444
-0.75023
0.749402
0.00465222
-0.0037758
-0.625443
0.624567
0.00299698
-0.00220433
-0.518098
0.517306
0.00157589
-0.00101445
-0.401272
0.400711
0.000616548
-0.00028871
-0.231691
0.231364
8.93092e-05
-0.0424088
0.0423194
-0.0441563
0.0442879
-0.000131584
0.000755024
-0.00108127
-0.299729
0.300056
0.00137285
-0.00157477
-0.42789
0.428092
0.00175501
-0.0019186
-0.525384
0.525547
0.00212146
-0.00234472
-0.631151
0.631374
0.00264615
-0.00298892
-0.756384
0.756727
0.00345019
-0.00395624
-0.906383
0.906889
0.00460897
-0.00528991
-1.0856
1.08628
0.00611185
-0.00688255
-1.29992
1.30069
0.00771244
-0.00840021
-1.5566
1.55728
0.00889477
-0.00914384
-1.55394
1.55418
0.00909858
-0.00880819
-1.29421
1.29392
0.00836825
-0.00781471
-1.07806
1.07751
0.00722326
-0.0065032
-0.898255
0.897535
0.00580634
-0.0050262
-0.748609
0.747829
0.00431812
-0.00356503
-0.623771
0.623018
0.00291194
-0.00224758
-0.516598
0.515933
0.00169956
-0.00116752
-0.400177
0.399645
0.00074576
-0.000362752
-0.231012
0.230629
0.00011531
-0.0422178
0.0421024
-0.0444369
0.0446036
-0.000166657
0.000983411
-0.00144355
-0.300448
0.300908
0.00191024
-0.00229974
-0.428389
0.428779
0.00270952
-0.00309687
-0.525827
0.526214
0.00355352
-0.00400832
-0.631716
0.632171
0.00455388
-0.00510098
-0.757171
0.757718
0.0057565
-0.0064057
-0.907461
0.90811
0.00716709
-0.00789476
-1.08697
1.0877
0.00870235
-0.00940507
-1.30141
1.30211
0.0100838
-0.0105493
-1.55785
1.55831
0.0107681
-0.0107084
-1.55427
1.55421
0.0104156
-0.00985348
-1.29348
1.29291
0.00923268
-0.0084891
-1.07686
1.07612
0.00776148
-0.00693455
-0.896768
0.895941
0.00617388
-0.00535402
-0.747039
0.746219
0.00463082
-0.00387692
-0.622277
0.621523
0.00322919
-0.00256533
-0.515282
0.514618
0.00199878
-0.00141675
-0.399095
0.398513
0.000925305
-0.000457476
-0.230207
0.22974
0.000147084
-0.0419721
0.041825
-0.0447927
0.045004
-0.00021129
0.00126293
-0.0018736
-0.30144
0.30205
0.00252114
-0.00309046
-0.429254
0.429823
0.00371228
-0.00430514
-0.526702
0.527295
0.00499795
-0.00567439
-0.632737
0.633413
0.0064644
-0.00723049
-0.758373
0.759139
0.00811381
-0.00895222
-0.908848
0.909687
0.00988955
-0.0107393
-1.08848
1.08933
0.0116264
-0.0123459
-1.30282
1.30354
0.0129656
-0.0132931
-1.5587
1.55903
0.0133068
-0.0129906
-1.55402
1.5537
0.0124638
-0.0116846
-1.29225
1.29147
0.0108703
-0.00991894
-1.07528
1.07432
0.00902188
-0.00803516
-0.895041
0.894054
0.00715019
-0.00621412
-0.745351
0.744414
0.00539944
-0.00455763
-0.620736
0.619894
0.00383622
-0.00309186
-0.513923
0.513179
0.00244335
-0.00175649
-0.397885
0.397199
0.00115833
-0.000576554
-0.229219
0.228637
0.000186203
-0.0416597
0.0414735
-0.0452462
0.0455167
-0.00027051
0.00162351
-0.00241883
-0.302746
0.303542
0.00327741
-0.00404689
-0.43048
0.431249
0.00489696
-0.00570863
-0.52799
0.528802
0.0066519
-0.00756673
-0.634209
0.635124
0.00862582
-0.00964172
-0.76003
0.761046
0.0107965
-0.0118732
-0.910638
0.911715
0.0130493
-0.0140851
-1.09026
1.0913
0.0151258
-0.015927
-1.30429
1.30509
0.0165529
-0.0167944
-1.55931
1.55955
0.0166403
-0.0160877
-1.55327
1.55272
0.0153258
-0.0142932
-1.29057
1.28954
0.0132476
-0.0120453
-1.07325
1.07205
0.0109316
-0.00972473
-0.892963
0.891757
0.00865484
-0.00753273
-0.743393
0.742271
0.00656181
-0.00556178
-0.618983
0.617983
0.00470497
-0.00381712
-0.512373
0.511486
0.00303545
-0.00219537
-0.396443
0.395603
0.00145345
-0.000725202
-0.227987
0.227259
0.000234551
-0.0412651
0.0410306
-0.0458286
0.046179
-0.000350455
0.0020989
-0.00313092
-0.304442
0.305474
0.00425281
-0.00526318
-0.432113
0.433124
0.00637831
-0.00743999
-0.529735
0.530796
0.00866729
-0.00985608
-0.636189
0.637378
0.0112306
-0.0125466
-0.762215
0.763531
0.0140358
-0.0154135
-0.912929
0.914306
0.0168998
-0.0181868
-1.09244
1.09373
0.019449
-0.020386
-1.30595
1.30688
0.0210652
-0.0212479
-1.55976
1.55994
0.020933
-0.0201296
-1.55204
1.55124
0.0191012
-0.0177605
-1.28835
1.28701
0.0164258
-0.0149087
-1.0707
1.06918
0.0135178
-0.0120223
-0.890409
0.888913
0.0107041
-0.00932651
-0.741027
0.739649
0.0081366
-0.00691098
-0.616883
0.615658
0.00585916
-0.00476566
-0.510512
0.509419
0.00379833
-0.00275292
-0.394671
0.393626
0.0018252
-0.000911491
-0.226445
0.225531
0.000295095
-0.04077
0.0404749
-0.0465818
0.0470422
-0.000460357
0.00273503
-0.00407562
-0.306633
0.307974
0.00553155
-0.0068347
-0.434248
0.435552
0.00825929
-0.00960934
-0.532032
0.533382
0.0111677
-0.0126846
-0.638779
0.640296
0.014448
-0.0161424
-0.76504
0.766734
0.0180587
-0.0198239
-0.91584
0.917605
0.0217115
-0.0233243
-1.09514
1.09675
0.024878
-0.0259995
-1.30789
1.30901
0.0267648
-0.0268948
-1.56009
1.56022
0.0263997
-0.0253017
-1.55029
1.54919
0.0239509
-0.0222273
-1.28549
1.28376
0.020531
-0.0186183
-1.06747
1.06555
0.0168765
-0.0150133
-0.887227
0.885364
0.0133772
-0.0116706
-0.738105
0.736399
0.0101962
-0.0086742
-0.614303
0.612781
0.00736297
-0.00599373
-0.508224
0.506855
0.00477888
-0.0034642
-0.392469
0.391154
0.00229788
-0.00114851
-0.224513
0.223364
0.000372798
-0.0401515
0.0397787
-0.0475647
0.0481765
-0.000611771
0.00359224
-0.00533595
-0.309474
0.311218
0.00721183
-0.00886544
-0.437027
0.438681
0.0106484
-0.0123366
-0.535028
0.536717
0.0142992
-0.0162362
-0.642125
0.644062
0.0185167
-0.0207149
-0.768651
0.770849
0.0231873
-0.0254437
-0.919521
0.921777
0.0278361
-0.0298567
-1.09848
1.1005
0.0317705
-0.0331169
-1.31019
1.31153
0.0339826
-0.034042
-1.56029
1.56035
0.0333199
-0.0318543
-1.54791
1.54644
0.030101
-0.027898
-1.2818
1.2796
0.0257494
-0.0233419
-1.06338
1.06097
0.0211615
-0.0188398
-0.883241
0.880919
0.0168083
-0.0146934
-0.73446
0.732345
0.0128648
-0.0109704
-0.611092
0.609198
0.0093274
-0.00759766
-0.50538
0.50365
0.00605495
-0.0043838
-0.389719
0.388048
0.00290726
-0.00145475
-0.222094
0.220641
0.000474642
-0.0393825
0.0389078
-0.048864
0.0496831
-0.000819084
0.0047502
-0.00702549
-0.313176
0.315451
0.00943921
-0.0115292
-0.440642
0.442732
0.013754
-0.0158718
-0.538917
0.541035
0.0183714
-0.0208817
-0.646416
0.648926
0.0238618
-0.0267303
-0.773245
0.776113
0.0299224
-0.0327891
-0.924158
0.927024
0.0357856
-0.0382831
-1.10261
1.1051
0.0406049
-0.04219
-1.31291
1.31449
0.0431347
-0.0430688
-1.5603
1.56023
0.0420377
-0.0400975
-1.54472
1.54278
0.0378358
-0.0350313
-1.27709
1.27428
0.0323176
-0.0292935
-1.05823
1.05521
0.0265675
-0.0236783
-0.878239
0.87535
0.0211615
-0.0185507
-0.729895
0.727284
0.0162953
-0.0139518
-0.607076
0.604732
0.0119017
-0.00971552
-0.501827
0.49964
0.00774313
-0.00559444
-0.386283
0.384135
0.00370521
-0.00185447
-0.21907
0.217219
0.000608589
-0.0384296
0.037821
-0.0506077
0.051724
-0.00111638
0.00638347
-0.00939595
-0.318029
0.321042
0.0125375
-0.0152077
-0.445347
0.448017
0.0180198
-0.0207201
-0.543958
0.546658
0.0239591
-0.0272336
-0.651934
0.655208
0.0311128
-0.0348042
-0.779088
0.782779
0.0388729
-0.042489
-0.929961
0.933577
0.0462031
-0.0492283
-1.10765
1.11068
0.0519676
-0.0537615
-1.31605
1.31785
0.0547094
-0.0544114
-1.55998
1.55969
0.0529415
-0.0503792
-1.54051
1.53794
0.0474731
-0.043917
-1.27109
1.26753
0.0405025
-0.0367153
-1.05175
1.04796
0.0333125
-0.0297192
-0.871977
0.868384
0.0266027
-0.0233867
-0.72418
0.720964
0.0206186
-0.017745
-0.602039
0.599165
0.0152143
-0.0124777
-0.497369
0.494632
0.00996493
-0.00719046
-0.381983
0.379209
0.00475011
-0.00236903
-0.215296
0.212915
0.00077762
-0.0372486
0.0364709
-0.0529846
0.0545755
-0.00159085
0.00890683
-0.0129841
-0.324448
0.328525
0.0171
-0.0205213
-0.451518
0.45494
0.0241078
-0.0276025
-0.550511
0.554005
0.0318607
-0.0361652
-0.65901
0.663315
0.041196
-0.0458894
-0.786518
0.791212
0.0509636
-0.0553793
-0.937197
0.941612
0.0598289
-0.0633731
-1.11371
1.11726
0.0664804
-0.0683959
-1.31955
1.32147
0.069209
-0.0685152
-1.55911
1.55842
0.0664301
-0.0630599
-1.53495
1.53158
0.059347
-0.054869
-1.26349
1.25902
0.0506013
-0.0458848
-1.04365
1.03893
0.0416525
-0.0371867
-0.864176
0.859711
0.0333202
-0.0293451
-0.717058
0.713083
0.02594
-0.0224217
-0.595737
0.592218
0.0193188
-0.0159359
-0.491763
0.48838
0.0127774
-0.00923142
-0.376574
0.373028
0.00608289
-0.00301312
-0.210573
0.207503
0.000980182
-0.0357765
0.0347964
-0.0563089
0.0587228
-0.00241387
0.0130835
-0.018693
-0.333091
0.3387
0.0240817
-0.0284865
-0.459727
0.464131
0.0331358
-0.0377466
-0.559083
0.563694
0.04338
-0.0489755
-0.668147
0.673742
0.0553495
-0.06114
-0.795912
0.801703
0.067261
-0.0724784
-0.946011
0.951229
0.0776135
-0.0815755
-1.12072
1.12468
0.0848834
-0.0867258
-1.32315
1.32499
0.0871594
-0.0858314
-1.5573
1.55597
0.082904
-0.0785105
-1.52765
1.52326
0.0738185
-0.0682487
-1.25397
1.2484
0.0629821
-0.0571801
-1.03362
1.02781
0.0519729
-0.0464669
-0.85453
0.849024
0.0416875
-0.0367697
-0.708233
0.703315
0.0325617
-0.0282279
-0.58789
0.583556
0.0244115
-0.0202433
-0.484717
0.480549
0.016305
-0.0118297
-0.369719
0.365244
0.00779549
-0.00383735
-0.204617
0.200659
0.00123277
-0.0339326
0.0326999
-0.0611851
0.0651032
-0.00391812
0.0202383
-0.0281036
-0.345045
0.35291
0.0352754
-0.0410416
-0.470782
0.476549
0.0472059
-0.0533886
-0.570346
0.576529
0.0608092
-0.067918
-0.679874
0.686983
0.0757268
-0.082596
-0.807514
0.814383
0.089648
-0.095475
-0.956354
0.962181
0.100996
-0.105044
-1.12837
1.13242
0.108144
-0.109531
-1.32639
1.32777
0.10917
-0.106853
-1.554
1.55168
0.102782
-0.097116
-1.51815
1.51248
0.0912719
-0.0844588
-1.24217
1.23536
0.0780803
-0.0710839
-1.02135
1.01435
0.0648078
-0.0581537
-0.842736
0.836082
0.0523545
-0.0463601
-0.697383
0.691389
0.0412115
-0.035904
-0.57816
0.572852
0.0312291
-0.0260886
-0.47586
0.47072
0.0211381
-0.0154174
-0.360995
0.355274
0.0101741
-0.00499098
-0.197029
0.191846
0.00158364
-0.031613
0.0300294
-0.0688177
0.0760668
-0.00724913
0.034047
-0.0455024
-0.362437
0.373893
0.0550683
-0.0624863
-0.48588
0.493298
0.0704974
-0.0785327
-0.585064
0.593099
0.0878269
-0.096282
-0.694463
0.702918
0.105173
-0.112696
-0.821094
0.828618
0.120131
-0.126
-0.967652
0.973521
0.13126
-0.134789
-1.13591
1.13944
0.137056
-0.137425
-1.32842
1.32879
0.135728
-0.131965
-1.54847
1.54471
0.126387
-0.119179
-1.50593
1.49872
0.112006
-0.103831
-1.22779
1.21961
0.0962696
-0.0880371
-1.00663
0.9984
0.080674
-0.0728684
-0.828599
0.820794
0.0660457
-0.0589563
-0.684265
0.677176
0.0528347
-0.04651
-0.56621
0.559885
0.0409377
-0.0347423
-0.464718
0.458522
0.0285297
-0.020978
-0.349717
0.342165
0.0137767
-0.00658429
-0.187127
0.179935
0.00198462
-0.0286766
0.026692
-0.0831733
0.0862874
-0.00311406
0.0224116
-0.0322216
-0.388557
0.398367
0.0411801
-0.0489477
-0.506051
0.513818
0.0581975
-0.0679638
-0.603
0.612766
0.0787145
-0.0882983
-0.711048
0.720632
0.0989559
-0.108373
-0.835426
0.844844
0.118156
-0.126546
-0.978504
0.986894
0.134893
-0.141582
-1.14193
1.14862
0.147542
-0.15144
-1.32803
1.33193
0.153513
-0.152884
-1.53976
1.53913
0.149419
-0.143502
-1.49047
1.48455
0.136528
-0.127643
-1.21061
1.20172
0.118914
-0.108398
-0.98944
0.978924
0.0986994
-0.0879793
-0.812172
0.801452
0.07834
-0.068052
-0.66894
0.658652
0.0587295
-0.0491666
-0.551991
0.542428
0.0409298
-0.0316301
-0.450895
0.441595
0.0229355
-0.0139018
-0.334719
0.325685
0.00712301
-0.00228483
-0.173369
0.168531
0.0001837
-0.0248283
0.0246446
-0.0937027
0.0897693
0.00393334
-0.00123033
-0.00441588
-0.41123
0.416877
0.0119523
-0.0189415
-0.525759
0.532748
0.0277518
-0.0362279
-0.62268
0.631156
0.0458629
-0.0546539
-0.7302
0.738991
0.0640344
-0.0725426
-0.853863
0.862371
0.0814012
-0.0887282
-0.995076
1.0024
0.0962315
-0.10194
-1.15523
1.16094
0.107016
-0.110105
-1.33566
1.33875
0.111215
-0.109955
-1.53786
1.5366
0.106043
-0.0998923
-1.47805
1.4719
0.0927014
-0.0838321
-1.19255
1.18368
0.0752853
-0.0655017
-0.968345
0.958561
0.0563309
-0.0461462
-0.790186
0.780001
0.0370178
-0.0276335
-0.646794
0.63741
0.0196068
-0.0113646
-0.530473
0.522231
0.00432684
0.00237365
-0.429786
0.423086
-0.00702274
0.00953496
-0.31538
0.312868
-0.00891404
0.00581736
-0.161754
0.16485
-0.00245921
-0.0231786
0.0256378
-0.0920325
0.0881037
0.00392884
-0.00856751
0.00630807
-0.42615
0.42841
-0.00154936
-0.00420308
-0.542416
0.548168
0.0114185
-0.0186215
-0.639863
0.647066
0.0267739
-0.034259
-0.747305
0.75479
0.0424736
-0.0497923
-0.870247
0.877565
0.0572169
-0.0637353
-1.00961
1.01613
0.0702679
-0.0753731
-1.16636
1.17147
0.07956
-0.0819711
-1.34139
1.3438
0.0828488
-0.0814477
-1.53494
1.53354
0.0776961
-0.0720517
-1.46557
1.45992
0.0656707
-0.0581201
-1.17521
1.16766
0.0506426
-0.0424658
-0.949068
0.940891
0.0349498
-0.0267687
-0.770633
0.762452
0.0197787
-0.0126391
-0.627976
0.620837
0.00678745
-0.000858498
-0.512734
0.506805
-0.0036833
0.00756492
-0.414474
0.410592
-0.00978379
0.00981195
-0.306422
0.306394
-0.00765633
0.00441641
-0.163074
0.166314
-0.00175106
-0.025761
0.027512
-0.0889548
0.0853248
0.00363001
-0.0106728
0.0102863
-0.435385
0.435771
-0.00716187
0.00253619
-0.555488
0.560113
0.00358648
-0.0094841
-0.654016
0.659914
0.0163225
-0.0226325
-0.762009
0.768319
0.02953
-0.0357141
-0.884454
0.890638
0.0423857
-0.0479107
-1.02228
1.0278
0.0536838
-0.0578287
-1.17629
1.18044
0.0615893
-0.0637897
-1.34621
1.34841
0.0645276
-0.0631029
-1.53207
1.53065
0.0599849
-0.0553033
-1.45426
1.44958
0.0499797
-0.043451
-1.16049
1.15396
0.0373825
-0.0308563
-0.933129
0.926603
0.0247998
-0.0185772
-0.754993
0.74877
0.0129755
-0.00751018
-0.613569
0.608104
0.00307486
0.001005
-0.499954
0.495874
-0.00390487
0.00621191
-0.404255
0.401948
-0.00737011
0.00673608
-0.301803
0.302437
-0.00505453
0.00285841
-0.164799
0.166995
-0.00116454
-0.0271488
0.0283134
-0.0861341
0.0832039
0.00293028
-0.0103261
0.0111199
-0.441274
0.440481
-0.00868265
0.00503018
-0.566225
0.569878
-0.00011935
-0.00508712
-0.665804
0.671011
0.0107313
-0.0161978
-0.77424
0.779707
0.022088
-0.0274076
-0.89647
0.90179
0.033115
-0.0380532
-1.03325
1.03818
0.0430077
-0.0469375
-1.18455
1.18848
0.0503367
-0.0523744
-1.35046
1.3525
0.0531476
-0.0520063
-1.52936
1.52822
0.0494279
-0.0453489
-1.44469
1.44061
0.0408861
-0.0355591
-1.14789
1.14256
0.0305343
-0.0250432
-0.920314
0.914823
0.0201707
-0.0150974
-0.742794
0.737721
0.0107478
-0.00643171
-0.602679
0.598363
0.00304741
1.66879e-06
-0.490715
0.487666
-0.00227525
0.00392526
-0.39722
0.39557
-0.00459209
0.00441935
-0.29865
0.298823
-0.00343981
0.00189421
-0.164811
0.166357
-0.000844657
-0.0276173
0.0284619
-0.0840135
0.0816337
0.00237983
-0.00915341
0.0100842
-0.445018
0.444088
-0.00871884
0.00561415
-0.574502
0.577607
-0.00108154
-0.00328284
-0.67572
0.680084
0.00807152
-0.0127652
-0.784663
0.789357
0.0179437
-0.0226647
-0.90686
0.911581
0.0278772
-0.0322211
-1.04291
1.04725
0.0367396
-0.0403793
-1.19222
1.19586
0.0435463
-0.0455187
-1.35443
1.3564
0.0463819
-0.045862
-1.52724
1.52672
0.0436873
-0.040335
-1.43643
1.43307
0.0364615
-0.0318267
-1.13738
1.13275
0.0276717
-0.0228144
-0.909535
0.904678
0.0185749
-0.0143118
-0.732841
0.728578
0.0105972
-0.00690106
-0.594114
0.590418
0.00394881
-0.00111338
-0.483612
0.480777
-0.000697448
0.00213891
-0.391665
0.390224
-0.00306642
0.0031356
-0.295283
0.295214
-0.00249127
0.00147376
-0.163761
0.164779
-0.000669891
-0.0275663
0.0282362
-0.0825559
0.0807507
0.00180524
-0.00754072
0.00857534
-0.447682
0.446647
-0.00735723
0.00492979
-0.58175
0.584177
-0.000920174
-0.00293279
-0.684226
0.688079
0.0074256
-0.0114274
-0.793869
0.797871
0.0159429
-0.0201087
-0.916353
0.920519
0.0250493
-0.0290171
-1.05168
1.05565
0.0330898
-0.0366173
-1.1994
1.20293
0.0400467
-0.0420283
-1.3585
1.36048
0.0431673
-0.0428524
-1.52599
1.52567
0.0413332
-0.0382026
-1.4297
1.42657
0.0349125
-0.0309018
-1.12814
1.12413
0.0270594
-0.0228418
-0.900017
0.8958
0.0189607
-0.014906
-0.724191
0.720137
0.0117225
-0.00823039
-0.586571
0.583079
0.00535247
-0.00280388
-0.477228
0.474679
0.00088802
0.000765426
-0.386832
0.385178
-0.00169017
0.00200119
-0.292019
0.291708
-0.00169472
0.00106807
-0.16218
0.162807
-0.000522819
-0.0272694
0.0277922
-0.0817805
0.0803748
0.00140565
-0.00600168
0.00701672
-0.449732
0.448717
-0.00583219
0.00354469
-0.587956
0.590244
4.5142e-06
-0.00339263
-0.69175
0.695138
0.00719653
-0.0110249
-0.801972
0.8058
0.0151607
-0.0194371
-0.92457
0.928846
0.0236711
-0.0274594
-1.05976
1.06355
0.0316685
-0.0350054
-1.20641
1.20975
0.0380568
-0.0405328
-1.36247
1.36494
0.0419904
-0.0421017
-1.52552
1.52563
0.0408801
-0.0383946
-1.42371
1.42123
0.0354488
-0.0317452
-1.11987
1.11617
0.0282258
-0.0242289
-0.8915
0.887503
0.0205562
-0.0168261
-0.716143
0.712413
0.0134633
-0.0101261
-0.579406
0.576069
0.00738918
-0.00463841
-0.471402
0.468651
0.00254329
-0.000975526
-0.381916
0.380348
-0.000157939
0.000826691
-0.288535
0.287866
-0.000948292
0.000687776
-0.160226
0.160486
-0.000398957
-0.026809
0.0272079
-0.0816136
0.0804349
0.00117875
-0.0044493
0.00513693
-0.451642
0.450954
-0.00414748
0.00194755
-0.593514
0.595714
0.00119329
-0.00437868
-0.698632
0.701817
0.00796495
-0.0113761
-0.809541
0.812952
0.0155851
-0.019087
-0.932619
0.936121
0.023271
-0.026883
-1.06754
1.07115
0.0309952
-0.0345475
-1.21315
1.2167
0.0379307
-0.040273
-1.36728
1.36963
0.0421519
-0.0427326
-1.52574
1.52632
0.0421784
-0.0399923
-1.41867
1.41648
0.0373949
-0.033925
-1.11253
1.10906
0.0305869
-0.0266426
-0.883264
0.879319
0.0231191
-0.0192912
-0.708422
0.704594
0.0159266
-0.0124761
-0.572486
0.569035
0.0095358
-0.0068544
-0.465378
0.462697
0.00454232
-0.00270873
-0.37694
0.375107
0.00126869
-0.000311649
-0.284725
0.283768
-0.000142235
0.000379521
-0.157788
0.157551
-0.000287575
-0.0261463
0.0264339
-0.081729
0.0808766
0.000852326
-0.00319193
0.00336088
-0.453779
0.45361
-0.00257156
0.000457031
-0.59827
0.600385
0.00229619
-0.0053055
-0.704886
0.707896
0.0086793
-0.012169
-0.816318
0.819807
0.0157573
-0.0193777
-0.939845
0.943466
0.0235023
-0.026909
-1.07521
1.07862
0.0311181
-0.0346514
-1.22014
1.22367
0.0381353
-0.0410443
-1.37246
1.37537
0.0434717
-0.044395
-1.52704
1.52796
0.0441216
-0.0426036
-1.41446
1.41295
0.0404366
-0.0371364
-1.10542
1.10212
0.0338083
-0.030076
-0.875223
0.871491
0.026195
-0.0224361
-0.700455
0.696696
0.0189838
-0.0153255
-0.565513
0.561855
0.0123709
-0.00936404
-0.459168
0.456161
0.00692125
-0.00462561
-0.371886
0.369591
0.0030121
-0.00170748
-0.280509
0.279205
0.00069616
2.11936e-06
-0.154866
0.154168
-0.000199178
-0.0252489
0.0254481
-0.0822267
0.0815098
0.000716821
-0.00224595
0.00239608
-0.456142
0.455992
-0.00112088
-0.000716402
-0.602946
0.604783
0.00351718
-0.00633204
-0.71056
0.713375
0.00950568
-0.0125787
-0.823045
0.826118
0.0162419
-0.0195302
-0.947104
0.950392
0.0235783
-0.0273812
-1.08248
1.08628
0.031245
-0.0351133
-1.22731
1.23118
0.0390455
-0.0421054
-1.3783
1.38136
0.0449851
-0.0467497
-1.52924
1.531
0.0469675
-0.0460679
-1.41133
1.41043
0.044055
-0.0410547
-1.0988
1.0958
0.0379146
-0.0340621
-0.867299
0.863446
0.0302495
-0.0262669
-0.692364
0.688381
0.0226516
-0.0187183
-0.557934
0.554001
0.0154357
-0.0122439
-0.452598
0.449406
0.00938853
-0.00679086
-0.366222
0.363624
0.00479078
-0.00306882
-0.275707
0.273985
0.00168421
-0.000476064
-0.151406
0.150198
-5.02249e-05
-0.0241825
0.0242328
-0.082926
0.0823527
0.000573266
-0.00130623
0.001242
-0.458638
0.458702
-0.000206
-0.00186372
-0.607093
0.609162
0.00449829
-0.00709549
-0.715893
0.71849
0.0102922
-0.0131805
-0.829205
0.832093
0.0166547
-0.0200243
-0.954137
0.957507
0.0239495
-0.0276959
-1.08996
1.09371
0.0317582
-0.0356616
-1.23501
1.23892
0.0398113
-0.0436574
-1.38481
1.38866
0.0470722
-0.0492505
-1.53288
1.53506
0.0502471
-0.0497235
-1.40952
1.40899
0.0482549
-0.045704
-1.09272
1.09016
0.0425023
-0.0386545
-0.859273
0.855425
0.0347783
-0.030472
-0.683949
0.679642
0.0267189
-0.0224794
-0.550007
0.545767
0.0189618
-0.0153087
-0.44552
0.441866
0.0122805
-0.00934649
-0.359958