/*--------------------------------*- C++ -*----------------------------------*\
  =========                 |
  \\      /  F ield         | OpenFOAM: The Open Source CFD Toolbox
   \\    /   O peration     | Website:  https://openfoam.org
    \\  /    A nd           | Version:  9
     \\/     M anipulation  |
\*---------------------------------------------------------------------------*/
FoamFile
{
    format      ascii;
    class       volVectorField;
    location    "10";
    object      U;
}
// * * * * * * * * * * * * * * * * * * * * * * * * * * * * * * * * * * * * * //

dimensions      [0 1 -1 0 0 0 0];

internalField   nonuniform List<vector> 
8800
(
(0.984849 -0.0884227 0)
(1.002 -0.0568138 0)
(0.99977 -0.0306037 0)
(1.00023 -0.0159646 0)
(1.00014 -0.00874957 0)
(0.999988 -0.00499496 0)
(0.999958 -0.00290612 0)
(0.999957 -0.00164314 0)
(0.999952 -0.000790358 0)
(1.00005 -0.00013894 0)
(0.999956 0.00052343 0)
(0.999958 0.00125885 0)
(0.999965 0.00226501 0)
(0.999984 0.00386754 0)
(1.00003 0.00662675 0)
(1.00024 0.0117908 0)
(1.00011 0.0221146 0)
(0.999138 0.0411716 0)
(1.00729 0.0768905 0)
(0.773635 0.04506 0)
(0.361681 -0.015102 0)
(1.04605 -0.0737719 0)
(1.08713 -0.0671797 0)
(1.04757 -0.0512039 0)
(1.02444 -0.0371606 0)
(1.01228 -0.0251209 0)
(1.00625 -0.016108 0)
(1.0033 -0.00987217 0)
(1.00186 -0.00545292 0)
(1.00125 -0.0020665 0)
(1.00118 0.000938182 0)
(1.00145 0.00407478 0)
(1.00242 0.00782413 0)
(1.00449 0.0130072 0)
(1.00873 0.0204564 0)
(1.01736 0.031007 0)
(1.03435 0.0442972 0)
(1.06548 0.0587569 0)
(1.09431 0.0723313 0)
(0.843147 0.0554601 0)
(0.218754 -0.00157683 0)
(1.07722 -0.0492675 0)
(1.10067 -0.0473986 0)
(1.06513 -0.0388874 0)
(1.03966 -0.0316091 0)
(1.02314 -0.0244121 0)
(1.01335 -0.0172672 0)
(1.00802 -0.010916 0)
(1.00539 -0.0055783 0)
(1.00448 -0.000734458 0)
(1.00467 0.00389997 0)
(1.00631 0.00881297 0)
(1.0101 0.0145579 0)
(1.01735 0.021262 0)
(1.03014 0.0283947 0)
(1.05095 0.0355202 0)
(1.0814 0.0429978 0)
(1.10744 0.0503024 0)
(0.945378 0.040413 0)
(0.218483 0.0015851 0)
(0.179723 -0.000530656 0)
(1.02303 -0.0326864 0)
(1.10584 -0.0378722 0)
(1.07779 -0.0330753 0)
(1.05249 -0.0275509 0)
(1.03555 -0.0222109 0)
(1.0237 -0.017017 0)
(1.0157 -0.0117108 0)
(1.01085 -0.00633383 0)
(1.00863 -0.00080482 0)
(1.00933 0.00472879 0)
(1.01273 0.0100226 0)
(1.01897 0.0152127 0)
(1.02873 0.0202602 0)
(1.04283 0.0253469 0)
(1.06348 0.0307591 0)
(1.09386 0.0361935 0)
(1.09636 0.0380719 0)
(0.837404 0.020879 0)
(0.179277 0.000540297 0)
(0.161302 -0.000344027 0)
(0.969118 -0.0204285 0)
(1.10542 -0.0281343 0)
(1.08595 -0.0258948 0)
(1.0592 -0.0224114 0)
(1.04116 -0.0185392 0)
(1.0288 -0.0144181 0)
(1.02054 -0.010202 0)
(1.01539 -0.00566729 0)
(1.01307 -0.00054991 0)
(1.01367 0.00469554 0)
(1.01721 0.00934079 0)
(1.0237 0.0135045 0)
(1.03378 0.0174872 0)
(1.04873 0.0213085 0)
(1.07046 0.0247807 0)
(1.10082 0.0280151 0)
(1.07586 0.0269962 0)
(0.760959 0.0108185 0)
(0.160642 0.000356843 0)
(0.153315 -7.24601e-05 0)
(0.927944 -0.00951708 0)
(1.09836 -0.0173226 0)
(1.09129 -0.0179874 0)
(1.06426 -0.0168926 0)
(1.04519 -0.0152279 0)
(1.03225 -0.0128987 0)
(1.02369 -0.00958614 0)
(1.01848 -0.00537973 0)
(1.01614 -0.000317074 0)
(1.01665 0.00483771 0)
(1.02015 0.00928907 0)
(1.02675 0.0128278 0)
(1.03719 0.0153668 0)
(1.05284 0.017074 0)
(1.07561 0.0183228 0)
(1.10157 0.0187396 0)
(1.05162 0.0151133 0)
(0.717672 0.00413932 0)
(0.1524 8.59187e-05 0)
(0.151117 6.82824e-06 0)
(0.901628 -0.00456889 0)
(1.08563 -0.0117827 0)
(1.08988 -0.0151524 0)
(1.06494 -0.0158775 0)
(1.04839 -0.0153451 0)
(1.03707 -0.0131517 0)
(1.02928 -0.00977344 0)
(1.02423 -0.0052988 0)
(1.02175 -2.17917e-05 0)
(1.02227 0.00533199 0)
(1.02564 0.00998947 0)
(1.0317 0.0135917 0)
(1.04089 0.0160996 0)
(1.0543 0.0170414 0)
(1.07505 0.0166762 0)
(1.09559 0.0147657 0)
(1.0289 0.00902321 0)
(0.696609 0.0017519 0)
(0.149868 1.09676e-05 0)
(0.150594 2.35613e-05 0)
(0.884103 -0.00232586 0)
(1.06895 -0.00868497 0)
(1.08289 -0.0140316 0)
(1.06396 -0.0162784 0)
(1.04946 -0.016023 0)
(1.03937 -0.0140323 0)
(1.03234 -0.0104703 0)
(1.02744 -0.00565089 0)
(1.02486 0.00025915 0)
(1.02524 0.00628995 0)
(1.02844 0.0113111 0)
(1.03392 0.015072 0)
(1.04213 0.0173677 0)
(1.05393 0.0179496 0)
(1.07142 0.0170162 0)
(1.08346 0.0128641 0)
(1.00798 0.00590754 0)
(0.685106 0.000853166 0)
(0.148966 -3.69282e-06 0)
(0.150561 1.48079e-05 0)
(0.872595 -0.00119658 0)
(1.05215 -0.00595631 0)
(1.07296 -0.0115019 0)
(1.06216 -0.0146202 0)
(1.05143 -0.0148062 0)
(1.04355 -0.0131519 0)
(1.03746 -0.00993304 0)
(1.03308 -0.00538891 0)
(1.03057 0.000714805 0)
(1.03077 0.00687576 0)
(1.03342 0.0118908 0)
(1.03813 0.0153205 0)
(1.04457 0.0172576 0)
(1.05364 0.0176234 0)
(1.06506 0.0153009 0)
(1.06858 0.0102592 0)
(0.990446 0.00397482 0)
(0.678192 0.000576193 0)
(0.148431 1.18642e-05 0)
(0.150707 1.96472e-05 0)
(0.866107 -0.000399319 0)
(1.03944 -0.00315755 0)
(1.06354 -0.00718636 0)
(1.05855 -0.00995406 0)
(1.05184 -0.0107946 0)
(1.04588 -0.00994156 0)
(1.04088 -0.00754602 0)
(1.03727 -0.00373339 0)
(1.03493 0.00152674 0)
(1.03484 0.00682787 0)
(1.0368 0.0109542 0)
(1.04039 0.0135637 0)
(1.04524 0.0144203 0)
(1.0511 0.0136976 0)
(1.05734 0.0110476 0)
(1.05519 0.00677067 0)
(0.978177 0.00239193 0)
(0.673958 0.000371991 0)
(0.147948 1.16701e-05 0)
(0.151049 2.45683e-05 0)
(0.863324 5.71666e-05 0)
(1.03218 -0.00119767 0)
(1.05712 -0.003461 0)
(1.05551 -0.00533149 0)
(1.05163 -0.0061628 0)
(1.0476 -0.00575552 0)
(1.0438 -0.00409201 0)
(1.04087 -0.00119257 0)
(1.0387 0.00265675 0)
(1.03821 0.00651515 0)
(1.03968 0.00923873 0)
(1.04175 0.0107499 0)
(1.04479 0.0106976 0)
(1.04811 0.00944713 0)
(1.05099 0.00714987 0)
(1.04598 0.00414761 0)
(0.970851 0.00148928 0)
(0.671386 0.000296993 0)
(0.147562 1.41631e-05 0)
(0.151546 2.88546e-05 0)
(0.862722 0.000364921 0)
(1.02886 -2.16465e-05 0)
(1.05364 -0.00101567 0)
(1.05353 -0.00194263 0)
(1.05132 -0.00237531 0)
(1.04868 -0.0020302 0)
(1.04586 -0.000807563 0)
(1.04339 0.00129759 0)
(1.04128 0.00394353 0)
(1.04033 0.00647499 0)
(1.04124 0.00793379 0)
(1.04199 0.00838955 0)
(1.04356 0.00786591 0)
(1.04521 0.0065581 0)
(1.04633 0.00475559 0)
(1.04023 0.00276705 0)
(0.966492 0.00113913 0)
(0.669477 0.000311727 0)
(0.147132 1.97259e-05 0)
(0.152191 3.44948e-05 0)
(0.863254 0.000576958 0)
(1.0279 0.000706909 0)
(1.05233 0.000511624 0)
(1.0528 0.000320056 0)
(1.05146 0.000376076 0)
(1.04962 0.000877947 0)
(1.04744 0.00192265 0)
(1.04518 0.00351449 0)
(1.04298 0.00535477 0)
(1.04158 0.00690505 0)
(1.04158 0.00755956 0)
(1.04159 0.00717601 0)
(1.04212 0.00635108 0)
(1.04274 0.00510436 0)
(1.04298 0.00366784 0)
(1.0365 0.00225114 0)
(0.963497 0.00109921 0)
(0.667664 0.000373348 0)
(0.146589 2.69912e-05 0)
(0.153002 4.29257e-05 0)
(0.864762 0.000807843 0)
(1.02836 0.00128512 0)
(1.05246 0.00158943 0)
(1.05312 0.00192642 0)
(1.05213 0.00242503 0)
(1.05068 0.0031868 0)
(1.04878 0.00426224 0)
(1.04654 0.00561343 0)
(1.04412 0.00697445 0)
(1.04218 0.00783515 0)
(1.04138 0.00777877 0)
(1.0407 0.00702755 0)
(1.04053 0.00596718 0)
(1.04053 0.00470717 0)
(1.04032 0.0034229 0)
(1.03366 0.00223356 0)
(0.960929 0.00123106 0)
(0.665637 0.000466028 0)
(0.145885 3.5743e-05 0)
(0.154031 5.38528e-05 0)
(0.867019 0.00105893 0)
(1.02978 0.00182904 0)
(1.05357 0.00251542 0)
(1.05426 0.00327232 0)
(1.05337 0.00417372 0)
(1.052 0.0052547 0)
(1.05012 0.00650679 0)
(1.04771 0.00783037 0)
(1.04487 0.00893551 0)
(1.04229 0.00931639 0)
(1.04063 0.00879923 0)
(1.03944 0.00768586 0)
(1.03875 0.00637846 0)
(1.03833 0.00500209 0)
(1.03785 0.00369 0)
(1.03105 0.00250988 0)
(0.958287 0.00147488 0)
(0.663202 0.000586059 0)
(0.144982 4.60506e-05 0)
(0.155334 6.79621e-05 0)
(0.870075 0.001364 0)
(1.03205 0.00243491 0)
(1.05551 0.00347357 0)
(1.05612 0.00462226 0)
(1.05517 0.00592731 0)
(1.0537 0.00738325 0)
(1.05161 0.00892305 0)
(1.04882 0.0103732 0)
(1.04537 0.0113742 0)
(1.04201 0.0114016 0)
(1.03954 0.0104721 0)
(1.0378 0.00901243 0)
(1.03665 0.00739628 0)
(1.0359 0.00579472 0)
(1.03521 0.00431678 0)
(1.02826 0.003002 0)
(0.955265 0.00181828 0)
(0.660195 0.000737861 0)
(0.143836 5.8492e-05 0)
(0.156998 8.69364e-05 0)
(0.874064 0.00175523 0)
(1.03517 0.00317672 0)
(1.05824 0.004594 0)
(1.05872 0.00615942 0)
(1.0576 0.00790921 0)
(1.05586 0.00981241 0)
(1.05337 0.0117432 0)
(1.04999 0.0134419 0)
(1.04571 0.0144465 0)
(1.0414 0.0141854 0)
(1.03807 0.0128373 0)
(1.0357 0.0109616 0)
(1.03411 0.00895328 0)
(1.03305 0.00701663 0)
(1.03216 0.00525525 0)
(1.02503 0.00369352 0)
(0.951622 0.00226726 0)
(0.656438 0.000927912 0)
(0.14239 7.37183e-05 0)
(0.159141 0.000112943 0)
(0.879218 0.00226913 0)
(1.03925 0.00412775 0)
(1.06187 0.00598501 0)
(1.06216 0.00802349 0)
(1.06075 0.010295 0)
(1.05859 0.0127487 0)
(1.05549 0.0151883 0)
(1.05129 0.0172471 0)
(1.04591 0.0183321 0)
(1.04043 0.0177956 0)
(1.03611 0.0159731 0)
(1.03305 0.0135776 0)
(1.03095 0.0110677 0)
(1.02957 0.00868149 0)
(1.02847 0.0065227 0)
(1.02111 0.00460553 0)
(0.947119 0.00284074 0)
(0.651723 0.00116624 0)
(0.140573 9.27396e-05 0)
(0.161928 0.00014943 0)
(0.885886 0.00295454 0)
(1.04456 0.00536735 0)
(1.06664 0.00773817 0)
(1.06664 0.0103283 0)
(1.0648 0.0132432 0)
(1.06202 0.0164008 0)
(1.05809 0.019498 0)
(1.05277 0.0220315 0)
(1.04598 0.023251 0)
(1.03905 0.0224069 0)
(1.03357 0.0200089 0)
(1.02968 0.0169626 0)
(1.02702 0.0138181 0)
(1.02526 0.0108555 0)
(1.02393 0.00818101 0)
(1.01626 0.00579131 0)
(0.941481 0.00357483 0)
(0.645781 0.00146885 0)
(0.138295 0.000117395 0)
(0.165591 0.000200611 0)
(0.894577 0.00387515 0)
(1.05153 0.0069839 0)
(1.07296 0.00994787 0)
(1.07252 0.0132128 0)
(1.07007 0.0169835 0)
(1.06641 0.0210557 0)
(1.06132 0.0249797 0)
(1.05452 0.0281011 0)
(1.04593 0.0294788 0)
(1.03719 0.028248 0)
(1.03031 0.0251305 0)
(1.02542 0.0212688 0)
(1.02207 0.0173309 0)
(1.01988 0.0136516 0)
(1.01826 0.010335 0)
(1.01022 0.00734195 0)
(0.93437 0.00452752 0)
(0.63826 0.00185821 0)
(0.135439 0.000150316 0)
(0.170466 0.000271511 0)
(0.905994 0.00511612 0)
(1.06076 0.009116 0)
(1.08136 0.0128085 0)
(1.08027 0.0169641 0)
(1.07697 0.0219091 0)
(1.0721 0.0271514 0)
(1.06544 0.0320699 0)
(1.05668 0.035859 0)
(1.04576 0.0373616 0)
(1.03479 0.035603 0)
(1.02619 0.0315741 0)
(1.02008 0.0266921 0)
(1.0159 0.0217658 0)
(1.01314 0.0172061 0)
(1.01116 0.0131157 0)
(1.00265 0.00938442 0)
(0.92539 0.00578778 0)
(0.628726 0.00236539 0)
(0.131861 0.000194255 0)
(0.177074 0.000374762 0)
(0.921044 0.00686677 0)
(1.07281 0.0120716 0)
(1.09238 0.0167312 0)
(1.09039 0.0221273 0)
(1.08585 0.0285356 0)
(1.07943 0.0352265 0)
(1.07069 0.0413199 0)
(1.05935 0.0457975 0)
(1.04548 0.0473039 0)
(1.03175 0.0447956 0)
(1.02105 0.0396052 0)
(1.01345 0.0334536 0)
(1.00822 0.0273002 0)
(1.00473 0.0216524 0)
(1.00225 0.0166317 0)
(0.99314 0.0120301 0)
(0.914146 0.00745407 0)
(0.616728 0.00302365 0)
(0.127399 0.000248861 0)
(0.186242 0.000542652 0)
(0.9409 0.00956248 0)
(1.08842 0.016368 0)
(1.10661 0.0223187 0)
(1.10337 0.0294061 0)
(1.0972 0.037702 0)
(1.08857 0.0460354 0)
(1.07702 0.053345 0)
(1.06238 0.0584363 0)
(1.04489 0.0597231 0)
(1.02784 0.0561585 0)
(1.01465 0.0495066 0)
(1.00524 0.0418043 0)
(0.998711 0.0341436 0)
(0.99429 0.0271337 0)
(0.991127 0.0209567 0)
(0.981275 0.0153168 0)
(0.900246 0.00957728 0)
(0.601876 0.00385968 0)
(0.121872 0.000310673 0)
(0.199288 0.000835907 0)
(0.967465 0.0139526 0)
(1.109 0.0228264 0)
(1.12509 0.0305945 0)
(1.11984 0.0399388 0)
(1.11112 0.0504204 0)
(1.09928 0.0604872 0)
(1.08402 0.0689445 0)
(1.06531 0.0743814 0)
(1.04354 0.0750495 0)
(1.02268 0.070031 0)
(1.00662 0.0615957 0)
(0.995101 0.0520707 0)
(0.986998 0.0426339 0)
(0.981409 0.0339635 0)
(0.977371 0.026329 0)
(0.966577 0.0193869 0)
(0.883097 0.0122531 0)
(0.583671 0.00494084 0)
(0.115063 0.00038346 0)
(0.218465 0.00137207 0)
(1.00383 0.0212716 0)
(1.13653 0.0330198 0)
(1.14926 0.0434742 0)
(1.1406 0.0556837 0)
(1.12786 0.0685304 0)
(1.11145 0.0801672 0)
(1.09132 0.0892914 0)
(1.06764 0.0944083 0)
(1.04095 0.0937727 0)
(1.01588 0.0867674 0)
(0.996642 0.0762207 0)
(0.982715 0.0646586 0)
(0.972729 0.0532673 0)
(0.965656 0.0427324 0)
(0.960437 0.0333875 0)
(0.948342 0.0248591 0)
(0.861621 0.0159263 0)
(0.561164 0.00644647 0)
(0.106664 0.000481373 0)
(0.247311 0.0026145 0)
(1.0556 0.0348665 0)
(1.17318 0.0505231 0)
(1.18024 0.064499 0)
(1.16586 0.0797357 0)
(1.14716 0.0944111 0)
(1.12464 0.106714 0)
(1.09844 0.115422 0)
(1.06894 0.119158 0)
(1.03681 0.116292 0)
(1.00723 0.106653 0)
(0.984595 0.0936616 0)
(0.968004 0.0799318 0)
(0.955789 0.0665513 0)
(0.946789 0.0541457 0)
(0.939818 0.0430069 0)
(0.925679 0.0328317 0)
(0.834314 0.0215801 0)
(0.533065 0.00862278 0)
(0.0968502 0.000557587 0)
(0.288167 0.0099678 -2.32707e-20)
(1.12419 0.0632293 -1.77409e-20)
(1.21851 0.0822283 4.74675e-21)
(1.21538 0.099907 0)
(1.193 0.116258 -1.03053e-35)
(1.1668 0.130603 4.64548e-22)
(1.13714 0.141715 -2.73561e-21)
(1.1042 0.148555 0)
(1.06839 0.149872 9.87193e-35)
(1.03032 0.144102 -7.40145e-21)
(0.995729 0.131521 0)
(0.969181 0.116057 -1.05626e-20)
(0.949325 0.100308 -3.22882e-20)
(0.934172 0.0852258 -1.56175e-20)
(0.922367 0.0714155 -4.91506e-21)
(0.912504 0.0591493 -2.97533e-21)
(0.895088 0.0479884 0)
(0.798649 0.0344815 2.13559e-21)
(0.497119 0.0175464 2.51492e-21)
(0.087069 0.00270999 4.42526e-20)
(0.312009 0.0275585 -4.57943e-20)
(1.17924 0.110625 1.00442e-21)
(1.26013 0.132078 -2.4925e-21)
(1.24733 0.148885 0)
(1.21713 0.16348 3.43785e-21)
(1.18356 0.175966 1.46578e-21)
(1.14699 0.185125 -1.82509e-21)
(1.1074 0.189807 -1.28429e-20)
(1.06504 0.188735 0)
(1.02035 0.180383 3.13306e-20)
(0.979622 0.16542 3.45858e-20)
(0.947864 0.148197 1.10964e-20)
(0.923429 0.131258 4.38515e-20)
(0.904035 0.115388 6.47138e-20)
(0.88813 0.101084 0)
(0.874086 0.0887553 9.63671e-20)
(0.851773 0.0778381 1.41321e-19)
(0.75789 0.0624002 1.5687e-19)
(0.473503 0.038895 -1.82602e-19)
(0.085179 0.00735652 -3.28746e-21)
(0.303995 0.0446052 0)
(1.21067 0.171311 -1.40319e-20)
(1.2915 0.194844 0)
(1.27236 0.20782 2.19447e-20)
(1.23591 0.218693 0)
(1.19609 0.227591 1.01538e-20)
(1.15333 0.233422 2.10234e-21)
(1.10769 0.234956 -1.91377e-20)
(1.05936 0.230809 -3.06489e-21)
(1.00869 0.219479 1.51065e-20)
(0.962504 0.202151 8.02694e-20)
(0.926265 0.183566 -5.06998e-22)
(0.898102 0.166169 -3.28678e-20)
(0.875472 0.150597 -6.37603e-20)
(0.856746 0.137167 7.74692e-20)
(0.840365 0.126057 -1.39051e-19)
(0.817685 0.116535 -1.90677e-20)
(0.733864 0.100279 0)
(0.47501 0.0662314 6.61529e-22)
(0.092706 0.0133824 0)
(0.291639 0.0590031 -3.49996e-19)
(1.22419 0.235088 1.45371e-19)
(1.31103 0.261956 7.755e-20)
(1.28831 0.271593 -1.45871e-20)
(1.24763 0.278178 2.22809e-20)
(1.20322 0.282823 -2.53212e-20)
(1.15564 0.284677 2.45841e-21)
(1.10507 0.282491 0)
(1.05171 0.274866 -5.90638e-20)
(0.995907 0.260311 0)
(0.945232 0.240521 -4.07042e-20)
(0.90567 0.220564 -5.7357e-20)
(0.875104 0.202728 -3.66567e-20)
(0.850788 0.187327 -4.72884e-20)
(0.830979 0.174422 0)
(0.814047 0.164051 0)
(0.7927 0.155241 -1.27316e-19)
(0.71731 0.137951 2.53672e-20)
(0.473571 0.0924984 -1.47474e-20)
(0.095262 0.0189266 -1.70872e-20)
(0.280309 0.0716933 2.57858e-19)
(1.22612 0.298084 0)
(1.32094 0.329467 -2.17055e-19)
(1.29625 0.336136 -5.5264e-20)
(1.25285 0.338642 -4.15824e-20)
(1.20523 0.339208 0)
(1.15405 0.337073 -4.69524e-21)
(1.09957 0.331055 1.66235e-20)
(1.04217 0.319796 2.56456e-20)
(0.982249 0.301809 7.52831e-20)
(0.92798 0.279335 0)
(0.885858 0.257727 -1.24279e-19)
(0.853668 0.239017 -7.94898e-20)
(0.828392 0.223304 -4.78624e-20)
(0.808087 0.210435 3.13634e-19)
(0.791127 0.200276 3.84247e-20)
(0.771083 0.191465 1.83647e-19)
(0.701266 0.172205 -8.87076e-19)
(0.467112 0.115704 5.25576e-19)
(0.0950403 0.0237644 -6.27417e-19)
(0.271038 0.0831815 2.71377e-19)
(1.22076 0.358224 -5.08548e-20)
(1.32363 0.3954 3.82184e-20)
(1.29797 0.399582 1.03608e-19)
(1.25264 0.398335 6.32531e-20)
(1.2027 0.395101 3.1908e-21)
(1.14888 0.389186 4.11927e-21)
(1.09138 0.379454 1.20054e-20)
(1.03062 0.364603 -5.57372e-20)
(0.967149 0.343161 0)
(0.909841 0.317764 -5.32886e-20)
(0.865765 0.294107 -2.94444e-21)
(0.832496 0.274073 -8.88114e-20)
(0.806758 0.257548 0)
(0.786452 0.244164 -6.83061e-20)
(0.769861 0.233594 -1.65848e-19)
(0.750864 0.224226 4.58524e-19)
(0.684394 0.202506 -4.57121e-19)
(0.45752 0.135908 6.46584e-19)
(0.0933257 0.0278949 -6.65359e-19)
(0.263807 0.0938281 -9.19057e-22)
(1.21104 0.414979 6.21557e-20)
(1.32106 0.458751 1.83124e-19)
(1.29504 0.460895 -6.36141e-20)
(1.24839 0.456323 3.62542e-20)
(1.19675 0.449628 0)
(1.14084 0.440207 1.61699e-20)
(1.08088 0.426989 -8.88224e-21)
(1.01735 0.408677 -2.52204e-20)
(0.950966 0.3838 0)
(0.89116 0.355314 -5.17175e-20)
(0.845487 0.3293 -7.28156e-20)
(0.811421 0.30755 9.69858e-20)
(0.785452 0.289766 -6.20791e-20)
(0.765276 0.275432 -3.00476e-19)
(0.749071 0.264063 1.84526e-19)
(0.730861 0.253801 5.84623e-20)
(0.666746 0.229511 0)
(0.446187 0.153691 -6.26991e-19)
(0.0908038 0.031409 -2.27583e-20)
(0.258253 0.10398 4.42893e-20)
(1.19883 0.46826 -7.13957e-20)
(1.31455 0.518958 -9.98969e-20)
(1.2885 0.519487 -1.95559e-19)
(1.24099 0.511999 1.76481e-19)
(1.18812 0.502218 -9.37319e-20)
(1.13065 0.489619 -3.4543e-20)
(1.06881 0.473195 -1.21503e-20)
(1.00302 0.451658 2.50532e-20)
(0.934006 0.423431 -1.81769e-19)
(0.871858 0.391776 -6.36448e-20)
(0.824718 0.363141 0)
(0.789967 0.339319 1.06055e-19)
(0.76386 0.319908 1.31147e-19)
(0.743889 0.304288 1.61349e-19)
(0.7281 0.291833 -2.01455e-19)
(0.710571 0.280426 -6.06113e-20)
(0.64828 0.253599 7.18724e-20)
(0.433517 0.169164 0)
(0.0877239 0.0343082 -4.9676e-20)
(0.254028 0.11378 -5.12375e-19)
(1.18546 0.518233 3.27576e-19)
(1.30519 0.575797 1.09583e-19)
(1.27932 0.574994 -1.49356e-19)
(1.23127 0.564979 1.0573e-19)
(1.17759 0.552462 -7.52917e-21)
(1.11894 0.537056 3.42055e-20)
(1.05553 0.517771 -5.28943e-21)
(0.987769 0.493305 -4.45671e-20)
(0.916365 0.461902 2.47088e-22)
(0.851978 0.427062 -1.89195e-19)
(0.803379 0.3956 1.85551e-19)
(0.767941 0.369397 -1.19013e-19)
(0.741709 0.348029 1.4809e-19)
(0.721964 0.330822 0)
(0.706601 0.317057 -1.0963e-19)
(0.6897 0.304315 -2.65591e-21)
(0.629044 0.274768 -3.14853e-19)
(0.41966 0.182456 -4.62006e-20)
(0.0841114 0.0365844 0)
(0.250838 0.12327 0)
(1.17167 0.565101 3.53237e-19)
(1.29385 0.629174 2.55627e-19)
(1.26822 0.627276 1.68552e-19)
(1.21986 0.61505 1.01904e-19)
(1.16562 0.600148 0)
(1.10611 0.5823 3.31548e-20)
(1.04143 0.560534 -2.55446e-21)
(0.971945 0.533472 9.35111e-20)
(0.89834 0.499184 -2.20162e-20)
(0.83166 0.461195 -1.38726e-19)
(0.781464 0.426765 9.27853e-20)
(0.745219 0.397893 -3.99243e-21)
(0.718792 0.374244 1.56291e-19)
(0.699257 0.355173 1.02097e-19)
(0.684342 0.339866 -2.39065e-19)
(0.668044 0.325605 2.89359e-19)
(0.60872 0.293034 8.66095e-20)
(0.404484 0.193429 3.55338e-19)
(0.0798743 0.0380699 -9.37568e-19)
(0.248459 0.13256 -1.30741e-19)
(1.15794 0.609009 2.03792e-19)
(1.28117 0.679098 -1.59273e-19)
(1.25584 0.676325 -1.95557e-19)
(1.20732 0.662174 0)
(1.15274 0.645211 8.265e-20)
(1.09264 0.625272 -9.64866e-20)
(1.02694 0.60138 7.06667e-22)
(0.95588 0.572096 0)
(0.88011 0.535272 -3.41318e-19)
(0.811046 0.49429 3.78338e-19)
(0.759001 0.456811 0)
(0.72174 0.425023 1.41547e-19)
(0.694982 0.398766 -4.10394e-21)
(0.6756 0.377504 -3.24465e-19)
(0.661135 0.360375 1.27268e-19)
(0.645415 0.344376 0)
(0.587258 0.308579 4.7001e-19)
(0.387906 0.202079 0)
(0.0751148 0.0388668 -4.48326e-19)
(0.246643 0.141634 1.45259e-19)
(1.1445 0.650158 2.32883e-19)
(1.26769 0.725672 -1.66579e-19)
(1.24263 0.722181 0)
(1.19411 0.706378 1.40571e-19)
(1.13938 0.687651 0)
(1.07885 0.665934 1.27145e-19)
(1.01234 0.640252 1.40566e-20)
(0.939866 0.609144 9.06501e-21)
(0.861894 0.570178 -1.68246e-19)
(0.790279 0.526505 3.65816e-20)
(0.73609 0.48596 0)
(0.697484 0.45106 -3.02113e-19)
(0.670163 0.421859 4.27949e-21)
(0.650827 0.398038 0)
(0.63675 0.378761 4.89246e-21)
(0.621541 0.360744 4.28813e-19)
(0.56441 0.321432 -4.13796e-19)
(0.369831 0.208314 1.21091e-19)
(0.0697214 0.038908 0)
(0.245 0.150332 0)
(1.13138 0.688763 2.59744e-19)
(1.25388 0.769015 1.9506e-19)
(1.22894 0.764975 -4.08316e-21)
(1.18052 0.747726 8.77797e-20)
(1.1258 0.727487 1.95968e-19)
(1.06504 0.704274 -4.13096e-20)
(0.997888 0.677127 5.53226e-21)
(0.924158 0.644578 5.4542e-20)
(0.843947 0.603945 -2.60929e-19)
(0.769538 0.557949 -6.51369e-21)
(0.712888 0.514476 -1.23187e-19)
(0.672444 0.476316 4.96864e-19)
(0.644202 0.443877 -5.21463e-21)
(0.624635 0.417025 -2.58313e-19)
(0.610956 0.39527 -4.70996e-19)
(0.596277 0.374838 0)
(0.540064 0.331646 0)
(0.350038 0.212003 1.34406e-19)
(0.0636671 0.0380873 -7.72885e-20)
(0.243778 0.15874 1.79619e-19)
(1.1187 0.724731 -5.66764e-19)
(1.2399 0.809319 -2.08357e-19)
(1.21504 0.80484 0)
(1.16685 0.786321 -2.88177e-21)
(1.11226 0.76478 2.3515e-19)
(1.05142 0.740311 -1.38194e-19)
(0.983815 0.712009 -6.30061e-20)
(0.908961 0.678402 5.40333e-20)
(0.826571 0.636564 -1.99536e-19)
(0.749123 0.588701 -3.19993e-19)
(0.68955 0.542593 3.28775e-19)
(0.646682 0.501092 0)
(0.616872 0.465148 -1.16903e-19)
(0.596785 0.434772 -2.84793e-19)
(0.583607 0.410116 -3.43364e-19)
(0.569593 0.386701 -4.16937e-19)
(0.513859 0.339047 1.24947e-19)
(0.328212 0.212831 -7.2868e-20)
(0.0569594 0.0363147 1.10958e-21)
(0.242482 0.166746 0)
(1.10656 0.758266 0)
(1.22592 0.84682 4.54146e-21)
(1.20114 0.841915 0)
(1.15325 0.822279 -3.29291e-19)
(1.09892 0.799611 -2.07501e-19)
(1.03816 0.774085 0)
(0.970274 0.744917 -1.52066e-20)
(0.894475 0.710624 6.2945e-20)
(0.809996 0.668057 -4.57445e-19)
(0.729279 0.61892 0)
(0.666236 0.570514 -2.11102e-19)
(0.62038 0.525632 -6.30436e-21)
(0.588256 0.485868 -5.21362e-21)
(0.567509 0.451776 3.0589e-19)
(0.554455 0.423426 -6.05091e-22)
(0.540785 0.396617 -9.11022e-19)
(0.485056 0.343651 2.74405e-19)
(0.303984 0.210469 8.12965e-20)
(0.0494962 0.033478 0)
(0.241119 0.174316 -6.57054e-19)
(1.09494 0.789625 -3.46583e-19)
(1.21202 0.881664 -5.19095e-19)
(1.18739 0.876346 7.27435e-19)
(1.1399 0.855699 -6.16386e-19)
(1.08591 0.83206 0)
(1.02537 0.805655 -1.17875e-19)
(0.957379 0.77587 2.88909e-20)
(0.880823 0.741255 7.32424e-21)
(0.794347 0.698475 3.63138e-20)
(0.710155 0.648691 4.00305e-19)
(0.643119 0.598394 -7.20688e-20)
(0.593889 0.550337 -3.08618e-19)
(0.55907 0.506673 -1.40356e-19)
(0.536866 0.468307 1.71222e-19)
(0.523311 0.435413 -4.87065e-22)
(0.509374 0.404213 2.52161e-19)
(0.453299 0.344938 -5.98059e-19)
(0.276798 0.204487 7.13474e-19)
(0.0413451 0.0296015 1.01271e-19)
(0.239583 0.181423 2.40381e-19)
(1.08363 0.81894 -1.88898e-19)
(1.19835 0.914016 1.08669e-20)
(1.1739 0.908278 4.09645e-19)
(1.12688 0.886715 1.43493e-19)
(1.07332 0.862217 4.13757e-19)
(1.01313 0.835084 -5.17343e-20)
(0.945208 0.804889 1.38401e-19)
(0.868072 0.770286 -2.25759e-20)
(0.779734 0.727815 -2.46674e-19)
(0.692014 0.677951 0)
(0.620611 0.626353 -3.25568e-19)
(0.567438 0.575802 4.49346e-19)
(0.529279 0.528372 0)
(0.504101 0.484748 -3.67411e-19)
(0.489409 0.446827 2.29077e-19)
(0.475177 0.410165 -2.73979e-19)
(0.41823 0.342823 -3.31483e-19)
(0.245917 0.194232 -5.84998e-19)
(0.03233 0.0245075 -4.49546e-19)
(0.238116 0.188192 -2.62985e-19)
(1.07248 0.846267 2.02061e-19)
(1.18497 0.94401 4.80869e-19)
(1.16073 0.937844 5.61551e-19)
(1.11426 0.915442 -3.0031e-19)
(1.06122 0.890185 2.84908e-19)
(1.00152 0.862443 -1.61376e-19)
(0.933815 0.832022 1.70685e-19)
(0.856271 0.797725 -2.54608e-22)
(0.766279 0.75604 2.32885e-19)
(0.675173 0.706679 8.48433e-19)
(0.599082 0.65459 0)
(0.540795 0.602374 0)
(0.497718 0.551065 -1.6242e-19)
(0.468948 0.50235 0)
(0.451818 0.457136 5.00949e-19)
(0.437294 0.413493 6.03317e-19)
(0.379483 0.336408 0)
(0.212016 0.179398 0)
(0.0229899 0.0184494 4.95032e-19)
(0.236414 0.194335 2.88955e-19)
(1.06159 0.871903 2.40745e-19)
(1.17195 0.9718 3.44476e-19)
(1.14794 0.965189 -4.99285e-19)
(1.10205 0.942003 -3.33738e-19)
(1.04966 0.916059 -3.76519e-19)
(0.990553 0.887818 2.3916e-19)
(0.923235 0.857332 1.37037e-21)
(0.845482 0.823584 -9.38144e-21)
(0.754071 0.783109 -1.20559e-20)
(0.65969 0.734956 4.29277e-19)
(0.578713 0.683132 0)
(0.514262 0.629917 4.54281e-19)
(0.464666 0.575486 3.42136e-19)
(0.430808 0.521604 8.7984e-19)
(0.409491 0.468669 2.7043e-19)
(0.393663 0.413457 -3.37488e-19)
(0.33619 0.322693 -1.99563e-19)
(0.177361 0.158621 0)
(0.0149934 0.0121499 5.43704e-19)
(0.234923 0.200309 -6.32268e-19)
(1.05094 0.895787 0)
(1.15926 0.99751 3.8282e-19)
(1.13555 0.990433 -4.07518e-19)
(1.0903 0.966511 3.76099e-19)
(1.03864 0.939945 5.47599e-19)
(0.980252 0.911291 -5.52591e-19)
(0.913468 0.880904 5.86322e-21)
(0.835747 0.847908 0)
(0.743144 0.808982 -2.12306e-19)
(0.645517 0.762698 -8.87271e-19)
(0.559675 0.712075 4.41145e-20)
(0.488941 0.658459 6.16539e-19)
(0.431395 0.601691 0)
(0.390415 0.544232 5.92152e-19)
(0.361828 0.482128 0)
(0.340118 0.41081 0)
(0.284986 0.295036 -2.24957e-19)
(0.150794 0.123387 0)
(0.0260516 0.0129286 1.47668e-19)
(0.233196 0.205607 -6.8798e-19)
(1.04054 0.91806 0)
(1.1469 1.02134 6.17154e-19)
(1.12352 1.0138 0)
(1.07896 0.989219 -2.03053e-19)
(1.02807 0.962112 0)
(0.970506 0.933156 -4.08798e-20)
(0.904398 0.903035 -2.96517e-20)
(0.826928 0.871018 -2.36654e-21)
(0.733324 0.83401 -2.04741e-19)
(0.632619 0.790194 2.29532e-20)
(0.541981 0.741545 3.65166e-19)
(0.464953 0.68869 5.95503e-19)
(0.398354 0.631651 8.54943e-20)
(0.347502 0.572974 4.60888e-19)
(0.307073 0.503371 0)
(0.266989 0.40964 7.38821e-19)
(0.208018 0.244607 -4.44371e-19)
(0.0845443 0.102311 5.07348e-19)
(-0.0535266 0.368969 -6.05755e-19)
(0.231506 0.210638 5.5907e-19)
(1.0302 0.938817 8.99789e-19)
(1.13478 1.04361 0)
(1.11172 1.03568 8.35181e-21)
(1.06786 1.01061 5.49674e-19)
(1.01774 0.983131 -1.05265e-18)
(0.961077 0.954067 -2.42273e-19)
(0.895775 0.924479 0)
(0.818744 0.893839 -6.14139e-20)
(0.724351 0.859418 -5.41178e-21)
(0.620638 0.818953 0)
(0.52489 0.773411 0)
(0.441428 0.722315 5.21357e-19)
(0.365939 0.666477 -2.66702e-19)
(0.301414 0.611154 -4.5667e-19)
(0.244752 0.541052 0)
(0.158673 0.41971 3.70008e-19)
(0.0536577 0.483144 -4.40599e-19)
(0.0500793 1.68148 -2.36057e-19)
(0.0913587 2.70469 -3.08617e-19)
(0.229663 0.21487 -4.04955e-19)
(1.02012 0.958244 -1.1286e-18)
(1.12288 1.06432 3.52422e-19)
(1.10015 1.05596 3.41255e-19)
(1.05704 1.03053 0)
(1.00766 1.00278 -7.51359e-19)
(0.952093 0.973752 -4.04198e-19)
(0.887677 0.944835 1.95712e-20)
(0.811298 0.915855 -8.28658e-21)
(0.716477 0.884571 1.5e-19)
(0.61007 0.848338 3.92653e-19)
(0.509293 0.807183 3.74115e-19)
(0.418939 0.758829 5.09666e-19)
(0.33584 0.704763 -6.05293e-19)
(0.25911 0.660264 -6.70478e-19)
(0.183826 0.598004 0)
(0.0942546 0.829315 0)
(0.148761 2.38529 1.92607e-19)
(0.159395 3.13668 0)
(0.159176 3.36091 4.21082e-19)
(0.230794 0.219112 0)
(1.01056 0.976425 0)
(1.11099 1.08336 0)
(1.08858 1.07444 9.44004e-20)
(1.04623 1.04878 4.87969e-19)
(0.997628 1.02094 -5.71291e-19)
(0.943432 0.992115 -2.88865e-19)
(0.880046 0.964005 2.21462e-20)
(0.804601 0.936935 -1.41493e-19)
(0.709732 0.909319 -1.98352e-20)
(0.600908 0.878159 7.06253e-19)
(0.495418 0.842332 -4.38251e-20)
(0.398288 0.798317 5.67663e-20)
(0.308767 0.743323 8.57267e-20)
(0.230105 0.71378 3.6635e-21)
(0.155982 0.932691 2.87718e-21)
(0.199906 2.48562 -9.17045e-19)
(0.231051 3.25372 -3.48497e-19)
(0.211098 3.42081 1.5661e-19)
(0.189482 3.45086 -1.58557e-19)
(0.146273 0.169828 2.21392e-19)
(0.993844 0.996372 0)
(1.09915 1.10094 -6.87605e-19)
(1.07765 1.09173 -8.81988e-19)
(1.03603 1.06604 1.01373e-18)
(0.988367 1.03815 6.06632e-19)
(0.934955 1.00922 3.33104e-19)
(0.872936 0.98208 -3.68264e-19)
(0.798807 0.957251 1.4648e-19)
(0.704441 0.933837 0)
(0.5937 0.908135 2.98193e-19)
(0.484031 0.877454 -2.74775e-19)
(0.380877 0.840978 0)
(0.285931 0.788782 7.30824e-20)
(0.223786 0.876511 1.76004e-19)
(0.198772 2.07239 -2.20975e-19)
(0.305351 3.28191 2.38898e-19)
(0.284036 3.44423 1.13113e-19)
(0.238346 3.47678 1.27675e-19)
(0.207504 3.49042 1.48023e-19)
(0.268004 0.252622 -3.96606e-19)
(0.971463 0.997235 0)
(1.07775 1.11862 6.8795e-19)
(1.06204 1.11664 8.95545e-19)
(1.02016 1.09052 -1.02989e-18)
(0.973621 1.06278 -6.37513e-19)
(0.921986 1.03501 -5.14797e-19)
(0.862095 1.00931 -2.78718e-20)
(0.789887 0.988149 -2.1206e-19)
(0.695707 0.972127 -5.68683e-21)
(0.581828 0.957715 1.14335e-20)
(0.464471 0.938105 2.12569e-19)
(0.351601 0.916887 4.59801e-20)
(0.266019 0.988435 -6.55164e-20)
(0.309549 2.00558 -1.52111e-19)
(0.393227 3.27007 9.32847e-20)
(0.387069 3.48668 -7.46108e-20)
(0.338799 3.52016 -4.12315e-20)
(0.290324 3.5567 3.89431e-20)
(0.221174 3.5463 1.24627e-21)
(0.254986 0.247967 0)
(0.965671 1.01459 1.80053e-19)
(1.06766 1.13657 -1.36652e-19)
(1.05088 1.1338 -9.98863e-20)
(1.00985 1.10751 -6.76983e-19)
(0.964361 1.0796 6.23388e-19)
(0.91385 1.05179 3.46762e-19)
(0.855831 1.02709 -2.9252e-20)
(0.785669 1.00835 2.61883e-19)
(0.692677 0.997382 -2.71414e-20)
(0.577688 0.990745 -3.89573e-19)
(0.457718 0.97959 3.00961e-20)
(0.347698 0.976289 -3.94456e-20)
(0.318861 1.32386 -5.32505e-20)
(0.433519 2.85636 3.98933e-20)
(0.488881 3.4665 1.69588e-21)
(0.432606 3.56641 -1.47643e-19)
(0.388137 3.59763 -1.59848e-19)
(0.314115 3.63172 2.00062e-19)
(0.239341 3.62116 7.13327e-20)
(0.237053 0.243344 4.38835e-19)
(0.957521 1.03396 1.21832e-18)
(1.05657 1.15558 -3.90369e-19)
(1.03897 1.15182 -3.80106e-19)
(0.998842 1.12503 0)
(0.954563 1.09671 9.10266e-19)
(0.905585 1.06881 5.28352e-19)
(0.849918 1.04496 -3.07548e-20)
(0.782579 1.02887 2.71652e-20)
(0.692142 1.02395 1.34361e-19)
(0.576699 1.02579 -1.18788e-19)
(0.454072 1.02294 -2.03194e-19)
(0.35719 1.06189 -2.52637e-19)
(0.408422 1.82975 2.72838e-19)
(0.549172 3.29 9.00622e-20)
(0.562844 3.55571 0)
(0.492275 3.62262 0)
(0.43829 3.68772 1.94148e-19)
(0.350296 3.75679 0)
(0.256036 3.72592 3.53682e-19)
(0.224046 0.242166 -6.40699e-19)
(0.94726 1.05403 -1.01401e-18)
(1.04369 1.17507 0)
(1.02557 1.17002 8.66279e-21)
(0.986478 1.14242 -6.58286e-19)
(0.943622 1.11347 1.35156e-18)
(0.896677 1.08544 3.55256e-19)
(0.843776 1.06212 -3.76903e-20)
(0.77994 1.04872 2.90988e-19)
(0.692954 1.05015 -1.49734e-20)
(0.577513 1.06159 0)
(0.452928 1.0678 0)
(0.38546 1.204 -1.78588e-19)
(0.522714 2.39945 4.72181e-20)
(0.657085 3.46844 -6.07015e-20)
(0.628318 3.61037 0)
(0.576739 3.68818 4.53167e-19)
(0.502272 3.7888 -6.72893e-19)