/*--------------------------------*- C++ -*----------------------------------*\
  =========                 |
  \\      /  F ield         | OpenFOAM: The Open Source CFD Toolbox
   \\    /   O peration     | Website:  https://openfoam.org
    \\  /    A nd           | Version:  9
     \\/     M anipulation  |
\*---------------------------------------------------------------------------*/
FoamFile
{
    format      ascii;
    class       volScalarField;
    location    "10";
    object      p;
}
// * * * * * * * * * * * * * * * * * * * * * * * * * * * * * * * * * * * * * //

dimensions      [0 2 -2 0 0 0 0];

internalField   nonuniform List<scalar> 
2200
(
0.432308
0.410851
0.395118
0.379531
0.365263
0.353215
0.343267
0.335608
0.330198
0.327431
0.32764
0.330832
0.336537
0.344414
0.354519
0.366678
0.381023
0.396654
0.412415
0.433885
0.364348
0.361207
0.358592
0.354938
0.350067
0.343942
0.337714
0.33216
0.327894
0.325498
0.32574
0.32858
0.333161
0.338944
0.34533
0.351556
0.356498
0.360207
0.362856
0.366009
0.322954
0.323516
0.3263
0.32846
0.329614
0.329424
0.32812
0.325876
0.323598
0.321998
0.322313
0.324365
0.326971
0.329461
0.330942
0.331262
0.330203
0.32811
0.32537
0.324823
0.30004
0.301598
0.30496
0.308167
0.311169
0.313866
0.31574
0.316558
0.316669
0.316496
0.316808
0.317521
0.317805
0.317279
0.315612
0.313054
0.310133
0.307017
0.30373
0.302182
0.288455
0.290156
0.293266
0.296477
0.299546
0.302487
0.304922
0.306975
0.308447
0.309389
0.309745
0.309484
0.308542
0.306844
0.304641
0.301853
0.298888
0.295707
0.292623
0.290939
0.285983
0.287193
0.289535
0.292308
0.295192
0.297648
0.299574
0.301365
0.302912
0.304053
0.304493
0.304143
0.303205
0.301872
0.300236
0.297975
0.295249
0.292562
0.290252
0.28905
0.287797
0.288447
0.289695
0.291605
0.293749
0.295664
0.297429
0.298927
0.300143
0.3011
0.301591
0.301499
0.300997
0.300063
0.298718
0.297113
0.295164
0.293371
0.292163
0.291574
0.288681
0.288857
0.289301
0.290155
0.291317
0.29257
0.293973
0.295371
0.296598
0.297638
0.298294
0.298376
0.298043
0.297346
0.296436
0.295503
0.294543
0.293817
0.293434
0.293267
0.286483
0.286525
0.286569
0.286804
0.28726
0.287879
0.288799
0.289971
0.291251
0.292487
0.293439
0.293811
0.293674
0.293239
0.29281
0.292527
0.292289
0.292185
0.292209
0.292169
0.282952
0.282922
0.282973
0.283145
0.283462
0.283892
0.284538
0.285399
0.286498
0.287793
0.288942
0.289689
0.289952
0.290037
0.290055
0.290058
0.290031
0.290035
0.290068
0.290083
0.279396
0.279408
0.279532
0.279791
0.280174
0.280683
0.281376
0.282253
0.283362
0.284717
0.286036
0.28708
0.287732
0.288108
0.288325
0.288429
0.288434
0.288414
0.288402
0.288399
0.27568
0.275713
0.275817
0.276035
0.27643
0.276969
0.277766
0.27879
0.280105
0.28172
0.283381
0.284683
0.285638
0.286257
0.286612
0.286813
0.286911
0.286959
0.286977
0.286974
0.271302
0.271313
0.271436
0.271631
0.271972
0.272522
0.27335
0.274517
0.276091
0.278093
0.280257
0.282008
0.283256
0.284107
0.284667
0.285033
0.285267
0.285413
0.285489
0.285494
0.266263
0.266262
0.266403
0.266658
0.267064
0.267692
0.268639
0.270007
0.271903
0.274383
0.277137
0.279428
0.281062
0.282228
0.283015
0.283539
0.283876
0.284084
0.284187
0.284197
0.260708
0.260717
0.260879
0.2612
0.261722
0.262518
0.263699
0.265395
0.267747
0.270849
0.274304
0.277243
0.279391
0.280886
0.281894
0.282562
0.282986
0.283238
0.28336
0.283367
0.254533
0.254549
0.25476
0.255167
0.255826
0.256833
0.258322
0.260458
0.263419
0.267329
0.27169
0.275412
0.278123
0.280002
0.28128
0.282123
0.282659
0.282979
0.283132
0.283138
0.247546
0.24757
0.247832
0.24833
0.249148
0.250415
0.252297
0.255005
0.258754
0.263697
0.269196
0.27387
0.277265
0.279635
0.281244
0.282304
0.282978
0.283378
0.283571
0.283579
0.239352
0.239384
0.239734
0.240396
0.241466
0.243098
0.245504
0.248953
0.253716
0.259969
0.266887
0.27274
0.276984
0.279948
0.281959
0.283287
0.284137
0.284647
0.284893
0.284902
0.229856
0.229895
0.230328
0.231155
0.232514
0.234621
0.237729
0.242171
0.248259
0.256179
0.264862
0.272161
0.277443
0.28113
0.283628
0.285272
0.286316
0.286931
0.287224
0.287233
0.218263
0.218343
0.218962
0.220115
0.221942
0.224705
0.22875
0.234491
0.24229
0.252314
0.263166
0.272223
0.278762
0.283323
0.286415
0.288457
0.289766
0.290552
0.290932
0.290945
0.204427
0.204495
0.205262
0.206756
0.209187
0.212878
0.218249
0.225764
0.235792
0.248451
0.26194
0.273108
0.28116
0.286792
0.290622
0.293153
0.294762
0.295708
0.29615
0.296151
0.186883
0.187094
0.188271
0.190415
0.193767
0.198752
0.205933
0.215804
0.2287
0.244611
0.261247
0.274904
0.284748
0.291657
0.29638
0.299517
0.301537
0.302754
0.303342
0.303361
0.164971
0.165164
0.166743
0.169785
0.174602
0.181648
0.191464
0.204536
0.221081
0.240935
0.261272
0.277819
0.289759
0.29821
0.304065
0.308025
0.310594
0.312118
0.312827
0.312805
0.135816
0.136533
0.139218
0.143908
0.151075
0.161127
0.174678
0.192002
0.213094
0.237619
0.262179
0.281981
0.296296
0.306529
0.313731
0.318676
0.321975
0.324033
0.325035
0.32501
0.0974779
0.0985051
0.102885
0.110745
0.122007
0.13684
0.155572
0.178291
0.204883
0.234788
0.264038
0.287403
0.304349
0.316617
0.325473
0.331811
0.336191
0.338981
0.340447
0.340274
0.0463383
0.0470995
0.0555512
0.0690016
0.0871532
0.108862
0.134421
0.163893
0.196911
0.232806
0.267099
0.294234
0.314004
0.328537
0.339238
0.34714
0.352942
0.3568
0.3584
0.358051
-0.0253136
-0.0202316
-0.0014114
0.0219597
0.0488126
0.0786829
0.112174
0.149212
0.189289
0.231854
0.271859
0.303474
0.326842
0.344475
0.357989
0.368426
0.376634
0.383227
0.386284
0.386447
-0.111198
-0.0931754
-0.0606265
-0.0263773
0.00958633
0.0481506
0.0899802
0.134641
0.182002
0.23166
0.278042
0.314917
0.34263
0.364067
0.381085
0.394926
0.406057
0.41471
0.422562
0.423861
-0.175291
-0.156711
-0.115312
-0.073445
-0.028722
0.0187514
0.0686992
0.120826
0.175349
0.231797
0.284124
0.325623
0.356806
0.380936
0.399983
0.415329
0.428064
0.437292
0.444403
0.445721
-0.222991
-0.206142
-0.160923
-0.114711
-0.0631577
-0.00827604
0.0486483
0.107719
0.168906
0.231569
0.289137
0.334334
0.367872
0.393437
0.413261
0.428689
0.441484
0.450676
0.457629
0.45884
-0.262139
-0.245157
-0.198023
-0.149322
-0.0926163
-0.0324914
0.0300189
0.0951138
0.162138
0.230331
0.292446
0.340605
0.375804
0.40219
0.422382
0.437864
0.450488
0.459666
0.466489
0.467516
-0.295536
-0.278194
-0.228653
-0.177832
-0.117529
-0.054016
0.0128605
0.0829361
0.155011
0.228247
0.294577
0.345463
0.382169
0.409324
0.429895
0.445586
0.458095
0.467252
0.473815
0.475139
-0.324769
-0.307528
-0.25543
-0.202165
-0.139056
-0.073159
-0.00279871
0.0713529
0.147851
0.225754
0.296125
0.349705
0.387995
0.416037
0.437041
0.452968
0.46542
0.47454
0.480981
0.482286
-0.351062
-0.33409
-0.280345
-0.224516
-0.158796
-0.090629
-0.017202
0.0603738
0.140808
0.223072
0.297464
0.353871
0.393804
0.42272
0.444151
0.460281
0.472702
0.481787
0.48816
0.489398
-0.37509
-0.357845
-0.304046
-0.245868
-0.177952
-0.10735
-0.0310065
0.0496275
0.133672
0.220045
0.298393
0.357637
0.399345
0.429321
0.451279
0.467643
0.480116
0.489215
0.495364
0.496474
-0.397419
-0.379745
-0.325961
-0.266275
-0.19681
-0.123903
-0.0448667
0.0386214
0.126056
0.216346
0.298704
0.361153
0.404947
0.436094
0.458666
0.475361
0.487883
0.496983
0.503055
0.504143
-0.418317
-0.400634
-0.346418
-0.285752
-0.215183
-0.140365
-0.0590134
0.0271287
0.117802
0.211997
0.298596
0.364426
0.410512
0.443107
0.466465
0.483437
0.496073
0.505112
0.511152
0.512265
-0.438475
-0.420637
-0.365962
-0.304489
-0.232966
-0.156612
-0.0733436
0.0151885
0.108879
0.206771
0.297388
0.366835
0.415809
0.450262
0.47465
0.492253
0.505063
0.514167
0.520122
0.521084
-0.458341
-0.439943
-0.384934
-0.322678
-0.250231
-0.172593
-0.0877273
0.00288314
0.0992793
0.200679
0.295594
0.369129
0.421221
0.457952
0.483629
0.501692
0.514627
0.52367
0.529497
0.530478
-0.477882
-0.458785
-0.403472
-0.340441
-0.267119
-0.188363
-0.102132
-0.00972273
0.0891193
0.193898
0.292982
0.370449
0.425944
0.465234
0.492746
0.511754
0.525096
0.534122
0.539728
0.540542
-0.496922
-0.47726
-0.421584
-0.357818
-0.283713
-0.203983
-0.116571
-0.0226054
0.0783702
0.18609
0.288836
0.37052
0.430097
0.473022
0.502861
0.523116
0.536497
0.545143
0.550532
0.551124
-0.515342
-0.495277
-0.4392
-0.374783
-0.300006
-0.219455
-0.131045
-0.0357675
0.0670324
0.177434
0.284174
0.369988
0.433339
0.479706
0.512781
0.534969
0.549045
0.557698
0.562241
0.562285
-0.533097
-0.51273
-0.456232
-0.391263
-0.315929
-0.234718
-0.145506
-0.0491363
0.0552718
0.16818
0.278261
0.36784
0.435403
0.486223
0.523423
0.548923
0.564141
0.571071
0.573506
0.572609
-0.550139
-0.529528
-0.472607
-0.40718
-0.331393
-0.249679
-0.159848
-0.0625938
0.0431536
0.158094
0.270947
0.36405
0.435691
0.491168
0.53331
0.563466
0.581407
0.587465
0.586016
0.582682
-0.566423
-0.545617
-0.488276
-0.422475
-0.346321
-0.264238
-0.173966
-0.0760616
0.0307425
0.147392
0.263028
0.358976
0.433789
0.49358
0.541711
0.578552
0.602941
0.609271
0.600277
0.603821
-0.581897
-0.560939
-0.503205
-0.437102
-0.360655
-0.278324
-0.187781
-0.0894523
0.0181648
0.136303
0.254042
0.352255
0.430105
0.493617
0.547263
0.591837
0.627426
0.635966
0.599811
0.54265
-0.596578
-0.575485
-0.517438
-0.451136
-0.374512
-0.292079
-0.201458
-0.102941
0.00521122
0.124524
0.243826
0.343491
0.422725
0.489707
0.547764
0.601014
0.651379
0.693513
0.729993
0.785111
-0.610479
-0.589336
-0.531079
-0.464716
-0.388062
-0.305718
-0.215261
-0.116869
-0.00853444
0.111522
0.231983
0.332303
0.411537
0.479902
0.538898
0.588779
0.627257
0.660576
0.657438
0.659345
-0.623586
-0.602509
-0.544093
-0.477803
-0.401235
-0.319152
-0.229071
-0.131085
-0.0229996
0.0973394
0.218513
0.318746
0.396051
0.461592
0.516404
0.55546
0.564849
0.537416
0.49052
0.485124
-0.635899
-0.615038
-0.556485
-0.490408
-0.414019
-0.332369
-0.24286
-0.145556
-0.0381004
0.0821262
0.203351
0.302424
0.375611
0.434337
0.477906
0.491759
0.459404
0.393058
0.322008
0.315825
-0.64744
-0.626925
-0.568271
-0.502548
-0.426427
-0.345372
-0.256631
-0.160258
-0.0536976
0.0661021
0.186855
0.284757
0.350777
0.392886
0.410276
0.392853
0.344277
0.239294
0.147472
0.133727
-0.658607
-0.638527
-0.579808
-0.514541
-0.438775
-0.358445
-0.270631
-0.175393
-0.0700804
0.0488731
0.169093
0.264583
0.322681
0.343908
0.326852
0.276198
0.163861
0.0309013
-0.08603
-0.107437
-0.670152
-0.650492
-0.591695
-0.526901
-0.451564
-0.372021
-0.285268
-0.191384
-0.0876008
0.0301149
0.149642
0.24181
0.290802
0.287401
0.228796
0.123091
-0.0575774
-0.22789
-0.366818
-0.391454
-0.682469
-0.663117
-0.604156
-0.539793
-0.464925
-0.386199
-0.30063
-0.208295
-0.106196
0.0100629
0.129004
0.218183
0.251987
0.218942
0.124937
-0.0535507
-0.296165
-0.542694
-0.744512
-0.794664
-0.69557
-0.676368
-0.617161
-0.553192
-0.478792
-0.400913
-0.316642
-0.226091
-0.125908
-0.0115466
0.107297
0.193758
0.208809
0.138972
0.002326
-0.241852
-0.537804
-0.892226
-1.26513
-1.40497
-0.70945
-0.690294
-0.630711
-0.567123
-0.493143
-0.416171
-0.333333
-0.244898
-0.147023
-0.0347787
0.0838935
0.168042
0.165268
0.0531388
-0.142651
-0.434495
-0.758141
-1.20385
-1.88527
-2.50817
-0.724015
-0.704853
-0.644775
-0.581558
-0.507911
-0.431913
-0.350615
-0.264479
-0.169281
-0.059103
0.0593943
0.142988
0.124387
-0.0289297
-0.293084
-0.64025
-0.957205
-1.31809
-2.04511
-3.88146
-0.739186
-0.720018
-0.659274
-0.596498
-0.523102
-0.448196
-0.368644
-0.285094
-0.193199
-0.0857626
0.033535
0.119043
0.0814205
-0.0985014
-0.414942
-0.794155
-1.07615
-1.23709
-1.33916
-1.81274
-0.754764
-0.735587
-0.674198
-0.612008
-0.53884
-0.465292
-0.387851
-0.307556
-0.220167
-0.116626
0.00453899
0.095867
0.0376577
-0.150884
-0.484457
-0.853087
-1.09646
-1.18907
-1.18313
-1.2316
-0.77055
-0.751447
-0.689323
-0.627934
-0.554914
-0.483071
-0.408221
-0.331857
-0.249886
-0.152241
-0.0284747
0.0759722
0.00351033
-0.196045
-0.531567
-0.84956
-1.07121
-1.17925
-1.19426
-1.2248
-0.786282
-0.767255
-0.704432
-0.644031
-0.570968
-0.501277
-0.429497
-0.358181
-0.281844
-0.193768
-0.0677735
0.0556992
-0.019279
-0.244387
-0.586082
-0.848908
-1.01029
-1.06427
-1.11455
-1.08803
-0.801718
-0.782867
-0.719143
-0.65993
-0.586507
-0.519568
-0.451139
-0.386443
-0.320826
-0.243677
-0.122176
0.0144637
-0.0599178
-0.320672
-0.66084
-0.854029
-0.942518
-0.903603
-0.98848
-0.981558
-0.816374
-0.797569
-0.733093
-0.675131
-0.600914
-0.537497
-0.472677
-0.415391
-0.36731
-0.306691
-0.202206
-0.0630194
-0.121193
-0.422364
-0.758685
-0.892966
-0.896005
-0.905905
-0.944589
-0.971447
-0.829681
-0.81086
-0.745647
-0.688952
-0.61388
-0.553881
-0.492702
-0.44318
-0.411178
-0.38645
-0.309444
-0.201767
-0.202029
-0.533237
-0.86122
-1.05837
-1.10561
-1.12822
-1.12816
-1.14184
-0.8408
-0.821677
-0.75636
-0.699898
-0.625726
-0.567071
-0.510336
-0.470115
-0.458056
-0.48622
-0.482084
-0.427417
-0.351287
-0.689538
-1.05068
-1.41904
-1.619
-1.61581
-1.53145
-1.5012
-0.849019
-0.829392
-0.764022
-0.706707
-0.633375
-0.577828
-0.524673
-0.494911
-0.515475
-0.608952
-0.738757
-0.717787
-0.61025
-0.834062
-1.1623
-1.59056
-1.90592
-1.81464
-1.69413
-1.63897
-0.85378
-0.833476
-0.768546
-0.709636
-0.639854
-0.581142
-0.533411
-0.514151
-0.570662
-0.745803
-1.02683
-1.01506
-0.819529
-0.863673
-1.02898
-1.25362
-1.40549
-1.35983
-1.24708
-1.17057
-0.854291
-0.832919
-0.76813
-0.707947
-0.639515
-0.579577
-0.535586
-0.520417
-0.60326
-0.83436
-1.24635
-1.23896
-0.860599
-0.659643
-0.530771
-0.487497
-0.519643
-0.485399
-0.428111
-0.392316
-0.849813
-0.827505
-0.762308
-0.700642
-0.632062
-0.570319
-0.524075
-0.513805
-0.597126
-0.831376
-1.31478
-1.31384
-0.635151
-0.264454
0.11678
0.307232
0.338088
0.356616
0.391307
0.408245
-0.839693
-0.817168
-0.751435
-0.687749
-0.61777
-0.553551
-0.502684
-0.485885
-0.545971
-0.74626
-1.15281
-1.01511
-0.300499
0.206469
0.631113
0.849224
0.930484
0.962609
0.98055
0.986782
-0.822107
-0.800354
-0.733034
-0.668661
-0.597517
-0.529635
-0.470882
-0.43732
-0.457146
-0.573514
-0.788621
-0.507558
0.0914882
0.539275
0.892478
1.09016
1.17038
1.21174
1.22925
1.23319
-0.797318
-0.775991
-0.708124
-0.644563
-0.571721
-0.499061
-0.431308
-0.377382
-0.350386
-0.364608
-0.381448
-0.0227974
0.402313
0.742061
0.989229
1.1331
1.20964
1.25551
1.27938
1.28677
-0.764067
-0.744235
-0.680438
-0.616474
-0.540344
-0.464029
-0.38857
-0.316033
-0.248856
-0.1824
-0.0660784
0.281856
0.582478
0.83186
0.996568
1.10023
1.16638
1.21031
1.23709
1.24625
-0.72411
-0.707294
-0.647479
-0.581746
-0.504364
-0.42719
-0.345974
-0.26051
-0.166949
-0.0455655
0.107972
0.385678
0.623729
0.806128
0.926303
1.00932
1.06786
1.10997
1.1389
1.1487
-0.67601
-0.663592
-0.60548
-0.539873
-0.465548
-0.38813
-0.304101
-0.214668
-0.111206
0.0213454
0.185945
0.401919
0.579344
0.712535
0.807384
0.877829
0.9313
0.971927
1.00193
1.01245
-0.61795
-0.607094
-0.551899
-0.49006
-0.420396
-0.34421
-0.260455
-0.179218
-0.073503
0.0546011
0.205978
0.368946
0.499238
0.59766
0.671814
0.72873
0.773445
0.808366
0.834961
0.845324
-0.527351
-0.518495
-0.475368
-0.423818
-0.363149
-0.296267
-0.223033
-0.142386
-0.0482869
0.0667414
0.196473
0.324934
0.426084
0.502638
0.560303
0.603725
0.63678
0.661474
0.6797
0.686805
-0.392901
-0.388659
-0.365639
-0.333786
-0.288373
-0.2378
-0.178868
-0.109753
-0.0280377
0.0712225
0.18132
0.285117
0.366971
0.428301
0.473338
0.506016
0.529691
0.544955
0.555498
0.558285
-0.260019
-0.258447
-0.24975
-0.233042
-0.205525
-0.17382
-0.130441
-0.0751675
-0.00809791
0.0737926
0.164904
0.247647
0.311142
0.359471
0.392976
0.415663
0.432045
0.440836
0.445622
0.446868
-0.152979
-0.151933
-0.147742
-0.14032
-0.127151
-0.108417
-0.0802128
-0.0405095
0.0109902
0.0760608
0.149385
0.214377
0.263403
0.299279
0.323822
0.339862
0.35029
0.356334
0.360544
0.362309
-0.0733332
-0.0738396
-0.0723324
-0.0687952
-0.062227
-0.0519988
-0.0345901
-0.00784606
0.0292853
0.0792725
0.136338
0.186861
0.224051
0.250413
0.268281
0.27985
0.287412
0.291958
0.294563
0.295365
-0.0202921
-0.0212289
-0.0220825
-0.021046
-0.0168793
-0.00991543
0.00217158
0.01994
0.0465868
0.0842852
0.127351
0.165456
0.193436
0.212946
0.226128
0.234654
0.239956
0.242829
0.244052
0.244068
0.0116939
0.0108511
0.00871439
0.00802096
0.0105412
0.0157114
0.0250626
0.0386602
0.0590553
0.0872166
0.120007
0.148849
0.170244
0.185392
0.19518
0.20139
0.204783
0.205764
0.205686
0.20543
0.0297567
0.0290697
0.0275205
0.0263386
0.0265444
0.0293154
0.0359546
0.0479736
0.0644699
0.0867065
0.112124
0.134582
0.151298
0.163042
0.170511
0.174585
0.176377
0.176799
0.176556
0.176259
0.0403202
0.0397816
0.0389715
0.0382517
0.0383275
0.0398951
0.0439839
0.0526191
0.0654746
0.0837136
0.103977
0.121653
0.134556
0.143384
0.14883
0.151712
0.153032
0.153395
0.153335
0.153096
0.0479462
0.0475731
0.0472488
0.0470176
0.0473235
0.0486907
0.0515728
0.0572207
0.0664235
0.0803569
0.0963149
0.110063
0.119881
0.126386
0.130351
0.13256
0.133632
0.134009
0.134058
0.133882
0.0535179
0.0532579
0.0530794
0.0528767
0.0531667
0.0543711
0.0566702
0.0608575
0.0674401
0.077463
0.0894267
0.0998616
0.107217
0.112085
0.11508
0.116795
0.11761
0.117883
0.117928
0.117791
0.0564126
0.0562091
0.0560226
0.0557232
0.0558516
0.0567401
0.0585199
0.0618115
0.0668168
0.0742655
0.0830888
0.0908768
0.0964036
0.100108
0.102377
0.103662
0.104234
0.104387
0.104395
0.104282
0.0568095
0.0566487
0.0564723
0.0561732
0.0561987
0.0567819
0.0580484
0.0605873
0.0644497
0.0701879
0.0768895
0.0827828
0.0869761
0.089785
0.0914729
0.0924099
0.0928061
0.0928897
0.0928795
0.0927864
0.0555415
0.0554263
0.0552943
0.0550759
0.0550919
0.0555008
0.0563895
0.0582683
0.0611772
0.0655959
0.0707495
0.0752693
0.078452
0.0805612
0.0818109
0.0824967
0.082781
0.0828328
0.0828188
0.082746
0.0532576
0.0531798
0.0530886
0.0529498
0.0529812
0.0533013
0.0539613
0.0553516
0.0575051
0.0608449
0.0647689
0.0682052
0.0706066
0.0721857
0.0731163
0.0736241
0.0738309
0.0738632
0.0738477
0.0737909
0.0502314
0.0501776
0.0501081
0.050015
0.0500451
0.0502951
0.0508028
0.0518535
0.0534626
0.055966
0.0589212
0.0615078
0.06331
0.0644908
0.065185
0.0655587
0.0657063
0.0657223
0.0657049
0.0656597
0.0465896
0.0465491
0.0464924
0.0464274
0.0464499
0.0466383
0.0470257
0.0478219
0.0490396
0.0509226
0.0531431
0.0550898
0.056445
0.0573297
0.0578444
0.0581152
0.0582165
0.0582192
0.0582
0.0581643
0.0424976
0.0424665
0.0424203
0.0423735
0.0423895
0.0425295
0.0428224
0.0434194
0.0443414
0.0457642
0.0474395
0.0488999
0.0499128
0.050569
0.0509488
0.0511448
0.0512146
0.0512115
0.0511931
0.0511639
0.0380652
0.0380415
0.0380058
0.0379719
0.037983
0.038085
0.038304
0.0387462
0.0394369
0.0405023
0.0417638
0.0428576
0.0436125
0.0440988
0.0443789
0.0445203
0.0445673
0.0445603
0.0445437
0.0445205
0.0333822
0.0333631
0.0333357
0.0333113
0.0333202
0.0333956
0.0335598
0.0338863
0.0344021
0.0351934
0.0361333
0.0369464
0.0375061
0.0378639
0.038067
0.0381658
0.0381947
0.038184
0.0381686
0.0381504
0.0285248
0.0285106
0.0284881
0.028467
0.0284704
0.0285235
0.0286448
0.0288843
0.0292662
0.0298505
0.0305409
0.0311348
0.0315415
0.0318002
0.0319458
0.0320147
0.0320327
0.0320216
0.0320082
0.0319933
0.0235178
0.0235062
0.0234878
0.0234699
0.0234692
0.0235034
0.023588
0.0237574
0.0240321
0.0244531
0.024956
0.0253849
0.0256778
0.0258638
0.025966
0.0260115
0.0260198
0.0260072
0.0259949
0.025983
0.0184056
0.0183964
0.018381
0.0183652
0.0183624
0.0183841
0.0184414
0.0185572
0.0187483
0.0190408
0.0193934
0.0196951
0.0198998
0.0200249
0.0200904
0.0201167
0.0201173
0.0201039
0.0200927
0.0200836
0.013216
0.0132098
0.0131984
0.013185
0.0131795
0.0131905
0.0132263
0.0133011
0.0134256
0.0136162
0.0138469
0.0140433
0.0141755
0.0142547
0.0142949
0.0143092
0.0143063
0.0142944
0.0142853
0.0142785
0.00797292
0.00796732
0.00795673
0.00794467
0.00793782
0.00794066
0.00795649
0.00799495
0.00806345
0.0081698
0.00830163
0.00841175
0.00848525
0.00852906
0.0085497
0.00855546
0.00855067
0.0085398
0.00853174
0.00852591
0.00267853
0.00267538
0.00266809
0.00265993
0.00265544
0.00265553
0.00266051
0.00267273
0.00269265
0.00272411
0.0027626
0.00279446
0.00281621
0.00283072
0.002838
0.00283955
0.00283602
0.00282874
0.0028238
0.00282064
-1.73315
-0.746127
-0.464063
-0.144203
0.0763829
0.268235
0.431762
0.59839
0.775638
0.857802
-0.628105
-0.153076
-0.104456
0.109626
0.265354
0.404907
0.527957
0.636297
0.678443
0.630084
-0.170063
0.0814461
0.14514
0.293633
0.403848
0.50308
0.585974
0.64805
0.659169
0.667444
0.109499
0.280066
0.323922
0.442895
0.514253
0.584331
0.638796
0.676942
0.6895
0.710528
0.32081
0.440482
0.469655
0.557687
0.605707
0.65507
0.692681
0.719563
0.729667
0.760714
0.481823
0.563882
0.594712
0.649394
0.688707
0.722832
0.749896
0.771367
0.787037
0.814428
0.614542
0.671595
0.699036
0.732115
0.763064
0.78893
0.8104
0.83056
0.846425
0.872841
0.725432
0.766282
0.789537
0.812468
0.835525
0.856564
0.875185
0.894229
0.909048
0.932554
0.824845
0.855874
0.873888
0.890312
0.907587
0.924528
0.940783
0.95824
0.97185
0.994033
0.9173
0.939125
0.953949
0.96721
0.981068
0.995295
1.0092
1.02424
1.03631
1.0562
1.00457
1.0201
1.03423
1.04611
1.05849
1.07063
1.08211
1.09409
1.10227
1.11928
1.09027
1.10333
1.11731
1.12953
1.14045
1.15032
1.15906
1.16711
1.17055
1.18188
1.18011
1.1911
1.20492
1.21453
1.22219
1.22924
1.23608
1.24238
1.24317
1.25052
1.27814
1.28285
1.29129
1.29625
1.29945
1.30393
1.31002
1.3177
1.32164
1.33133
1.39164
1.37838
1.37088
1.3651
1.36234
1.36362
1.37019
1.38295
1.39772
1.42739
1.51301
1.4571
1.42606
1.40869
1.40065
1.40089
1.4096
1.42896
1.46083
1.53
)
;

boundaryField
{
    wall-4
    {
        type            zeroGradient;
    }
    pressure-outlet-7
    {
        type            fixedValue;
        value           uniform 0;
    }
    velocity-inlet-6
    {
        type            zeroGradient;
    }
    velocity-inlet-5
    {
        type            zeroGradient;
    }
    frontAndBackPlanes
    {
        type            empty;
    }
}


// ************************************************************************* //
