/*--------------------------------*- C++ -*----------------------------------*\
  =========                 |
  \\      /  F ield         | OpenFOAM: The Open Source CFD Toolbox
   \\    /   O peration     | Website:  https://openfoam.org
    \\  /    A nd           | Version:  9
     \\/     M anipulation  |
\*---------------------------------------------------------------------------*/
FoamFile
{
    format      ascii;
    class       volScalarField;
    location    "37";
    object      p;
}
// * * * * * * * * * * * * * * * * * * * * * * * * * * * * * * * * * * * * * //

dimensions      [0 2 -2 0 0 0 0];

internalField   nonuniform List<scalar> 
918
(
0.611197
1.26406
0.00922685
0.61054
-0.00129998
1.23108
-0.4451
0.77507
0.591347
-0.0369789
0.0217927
0.586603
1.09186
0.858382
-1.07215
0.0551314
0.725642
-0.32396
0.590369
0.0342359
0.811355
0.597929
0.600961
0.591547
0.654341
0.837746
0.973013
0.0168466
-0.00641737
-0.004506
0.0191338
-0.00434308
0.0146382
1.11471
1.16581
1.18851
0.559636
0.384926
-0.306295
-0.375755
-0.36726
-0.491761
0.767377
0.769151
-0.117577
0.77653
0.78592
0.578533
0.590708
0.591597
0.592688
0.591638
0.593032
0.467031
-0.0417427
-0.0740815
-0.0172355
-0.00599919
0.116075
0.0245038
0.0244186
0.0260768
0.0286058
0.510522
0.582377
0.579591
0.591687
0.600032
1.20361
1.17551
1.20165
1.11542
1.13186
1.06982
1.04241
0.878538
0.900479
0.844329
0.830644
-1.51052
-2.47351
-0.475832
-0.221288
-0.00635889
0.0496171
0.0622923
0.716711
0.715073
0.727057
0.739127
1.13823
-0.318848
-0.43894
0.59049
0.589286
0.597681
0.598377
0.594391
0.593485
0.0385558
0.0410459
0.0256712
0.0317086
0.0328226
0.800647
0.798806
0.592089
0.589107
0.607384
0.628164
0.620104
0.3423
0.658272
0.670308
0.661072
0.82581
0.82185
0.829819
0.946621
0.910617
1.00992
1.03311
0.00426392
0.000244086
0.039948
0.0250087
0.0359471
0.555575
0.548331
0.574551
0.562993
0.565425
0.300723
0.165833
0.470354
0.495476
-0.217978
-0.279359
-0.37756
-0.398089
-0.511437
0.659553
0.758078
0.757427
-0.137784
-0.0603301
-0.193324
0.0124536
-0.0472457
0.568942
0.57585
0.570904
0.586299
0.5808
0.582749
0.594942
0.592015
0.593576
0.530631
0.655067
0.393505
0.358489
-0.184669
-0.0933983
-0.186922
0.0060323
0.0106113
0.132397
0.159873
0.107829
0.0957651
0.01791
0.0247706
0.0225101
0.0327362
0.0341174
0.503737
0.49316
0.522793
0.530141
0.572685
0.573802
0.577033
0.575557
0.993125
1.01557
1.0231
0.99675
-3.47549
-6.28001
0.108139
0.247139
0.00187273
0.0092768
0.00287979
0.0244327
0.00488381
0.00115853
0.0681818
0.0661338
0.0629091
0.0665344
0.701614
0.700956
1.05636
1.05583
1.03875
0.98817
0.578564
0.580689
0.586259
0.582101
0.0358919
0.0418654
0.0419427
0.786686
0.794482
0.79313
0.305515
0.218933
0.391118
0.418776
0.688768
0.674202
0.686433
0.723338
0.760508
1.04055
1.05881
1.05701
1.06536
1.1093
1.12564
1.09112
0.535713
0.545302
0.54045
0.577734
0.575441
0.576383
0.57193
0.573371
0.571176
0.0137851
-0.369952
0.547014
0.564637
0.544171
0.550879
0.738959
0.814956
0.739529
0.749271
0.74766
0.0778371
0.021229
0.316319
0.283477
0.445741
0.480754
0.460549
0.964473
0.924563
0.974731
0.948001
0.909198
0.935393
-0.321594
-1.8358
-0.946577
0.603023
0.413907
0.503007
0.0814925
0.0711811
0.0771296
1.05051
1.12918
0.711171
0.878924
0.887249
0.796007
0.825184
0.884843
0.810839
0.845421
0.879083
0.856965
0.615681
0.559833
0.570528
0.884347
0.940032
0.192738
0.137931
0.0933611
0.17778
0.234386
0.206513
1.09306
0.996188
1.06777
0.588858
0.589555
0.0176975
0.0398483
0.593704
0.593755
0.0213692
0.0349901
0.484681
-0.782278
0.181471
0.58219
0.572399
0.589358
-0.0192286
0.424316
0.0235885
0.120518
0.0705653
0.584419
0.520927
0.481757
0.0460776
0.0334626
0.0351648
-0.147891
0.586529
0.584839
0.588817
0.589796
0.590456
0.0379921
0.0335418
0.0278917
0.0392624
0.0381454
0.0360454
0.553979
0.571386
-0.102723
0.588945
0.59107
0.590885
0.58406
0.589752
0.587956
0.048673
0.038064
0.0405513
0.289688
0.411803
0.731248
0.825673
0.698023
0.470797
0.231726
0.631067
0.696332
0.599108
0.757033
0.750889
0.76972
0.24519
0.0978389
0.25331
0.19465
0.580058
0.57871
0.570651
0.567745
0.5842
0.582311
0.586871
0.583843
0.586821
0.588219
0.0189215
-0.00307973
-0.0161697
-0.0790274
0.380404
0.641312
0.318542
0.349315
0.209381
0.0297421
0.029614
0.0253374
0.0224763
0.0690767
0.0547852
0.113483
0.116198
0.0919982
0.0712821
0.0614938
0.0549455
0.0511616
0.577923
0.576254
0.582655
0.591291
0.530263
0.534009
0.500235
0.520002
0.506081
0.446782
0.481185
0.456818
0.0348006
0.0527344
0.0231746
0.0394923
0.0495596
0.0533025
0.047965
0.045679
0.0462351
0.0437973
0.0426219
0.0410662
-0.10707
-0.220735
1.04364
0.979016
0.18774
0.575714
0.582141
0.578923
0.583727
0.586853
0.587693
0.585446
0.582027
0.571928
0.573684
0.570147
0.570874
-0.0408334
-0.177097
-0.00387622
-0.0723641
0.194801
0.681601
0.424196
0.363971
0.358597
0.580731
0.98378
0.778547
0.77119
0.793259
-0.28652
0.110513
-0.219207
0.399855
0.221749
0.730527
0.779491
0.800174
0.748675
0.700866
-0.0564523
0.604866
0.00630532
0.0523248
0.246466
0.136235
0.772289
0.734238
0.740104
0.758047
0.777489
0.739931
0.720673
0.716392
0.753629
0.757071
0.557149
0.32238
0.277075
0.237827
0.717165
0.597443
0.654466
0.566388
0.575015
0.577784
0.576372
0.558692
0.566045
0.56175
0.567618
0.570892
0.579949
0.580307
0.575699
0.577895
0.0173576
0.0162024
0.0352147
-0.0722187
-0.061691
-0.121351
-0.00302699
0.136191
0.0983469
0.295078
0.400557
0.113703
-0.00224153
0.0271688
0.0608339
0.239878
0.264611
0.139254
0.228458
0.213822
0.20009
0.302736
0.3089
0.0447693
0.0373875
0.0394505
0.0377835
0.0906193
0.159501
0.17105
0.067181
0.0596202
0.0320639
0.032232
0.0427018
0.0418977
0.0426603
0.0802127
-0.00267739
0.0404664
0.0653966
0.0724483
0.0655876
0.0607299
0.570827
0.572795
0.572576
0.580564
0.597234
0.612775
0.571602
0.551972
0.542897
0.545887
0.519504
0.529445
0.525229
0.538576
0.558802
0.567797
0.565824
0.568414
0.551602
0.553058
0.539964
0.543876
0.519788
0.501636
0.490098
0.0399768
0.0581731
0.0672153
0.0263235
0.0660872
0.0639256
0.0693531
0.0803526
0.0652318
0.0591239
0.0601004
0.0505708
0.0539023
-0.0136907
0.0658727
-0.123473
-0.156309
-0.226226
0.947737
1.06821
0.871338
0.647336
0.661461
0.900216
0.986089
0.609148
0.794674
0.818057
0.632392
0.900287
0.580539
0.580141
0.577737
0.577225
0.578466
0.0482564
0.149489
0.158096
0.212505
0.326601
0.439669
0.364658
0.242616
0.375628
0.379628
0.676879
0.692075
0.641707
0.664703
0.66263
0.48975
0.568299
0.622631
0.575448
0.622424
0.644968
0.605346
0.636002
0.581801
0.537712
0.535545
0.483562
0.504944
0.482749
0.464415
0.570201
0.548003
0.558143
0.549256
0.568712
0.593486
0.58946
0.619259
0.630358
0.553133
0.511794
0.521623
0.550386
0.511338
0.525223
0.540925
0.277329
0.176279
0.261259
-0.0299977
0.0507785
0.0357367
-0.0113265
0.03401
0.319799
-0.378044
-0.350951
-0.983636
0.544136
1.01444
0.725428
0.698229
0.773351
0.752058
0.755298
0.778425
0.78502
0.7069
0.725415
0.728548
0.686514
0.709664
0.733246
0.730607
0.578345
0.451476
0.443685
0.402056
0.275733
0.310208
0.512372
0.434859
0.360797
0.363669
0.526347
0.41447
0.480855
0.51964
0.451373
0.406461
0.610722
0.676574
0.666556
0.641244
0.558473
0.572229
0.597233
0.633097
0.660141
0.692339
0.567371
0.57319
0.574459
0.571925
0.569165
0.572082
0.572203
0.574726
0.575547
0.578471
0.577463
0.0272873
0.0388636
0.0273288
0.01892
0.0445008
0.0396399
0.0852091
0.0723163
0.0579849
0.0643793
0.0379198
0.034556
0.040444
0.0489981
0.158553
0.172876
0.158245
0.118572
0.307115
0.438935
0.509112
0.385988
0.279709
0.303877
0.326879
0.0511841
0.0806929
0.0661572
0.107176
0.0976355
0.040601
0.0387258
0.0405618
0.0423693
0.0542436
0.0385545
0.0436261
0.0511933
0.0407247
0.0374202
0.038526
0.554128
0.547633
0.548923
0.543051
0.541962
0.555626
0.559949
0.561744
0.567089
0.569055
0.559613
0.565044
0.568607
0.0668089
0.0501886
0.0386799
0.0579257
0.0581082
0.0557722
0.0562626
0.177898
0.106193
0.112154
0.065478
-0.061849
-0.00449964
0.539859
0.536831
0.532974
0.76991
0.620785
0.539213
0.63476
0.741342
0.327498
0.52575
0.359242
0.939784
0.832937
0.978922
0.59584
0.291509
0.446146
0.496764
0.305396
0.377683
0.383375
0.272111
0.303878
0.335749
0.436605
0.313813
0.288188
0.0464473
0.234491
0.350973
0.332045
0.459663
0.521841
0.311558
0.230984
0.186815
0.668756
0.687953
0.707594
0.677817
0.702243
0.629539
0.619156
0.637016
0.645102
0.641219
-0.711874
-0.419901
-1.36364
-0.678528
-0.229064
0.573732
0.537041
0.816904
0.703671
0.767668
0.752673
0.711545
0.677775
0.690353
0.722536
0.419633
0.530865
0.504926
0.511035
0.412047
0.345075
0.645619
0.63964
0.675791
0.699831
0.667117
0.700192
0.565135
0.564756
0.564465
0.560879
0.559182
0.561334
0.122418
0.0923576
0.126522
0.107624
0.0849601
0.0737319
0.0671571
0.061197
0.0569064
0.0549962
0.0603134
0.0611867
0.218262
0.16044
0.0836985
0.114513
0.0522455
-0.0140273
-0.0326753
0.0687962
0.161485
0.151598
0.458533
0.709541
0.530803
0.699296
0.539332
0.594728
0.523297
0.515299
0.542588
0.429364
0.509541
0.273394
-0.229753
-0.138375
0.831651
0.849949
0.63128
0.445377
0.216677
0.40589
0.60423
0.53992
0.57846
0.647384
0.639405
0.0593503
0.126393
0.385635
0.613313
0.281776
0.273842
0.268595
0.442678
0.367476
)
;

boundaryField
{
    wall-4
    {
        type            zeroGradient;
    }
    velocity-inlet-5
    {
        type            zeroGradient;
    }
    velocity-inlet-6
    {
        type            zeroGradient;
    }
    pressure-outlet-7
    {
        type            fixedValue;
        value           uniform 0;
    }
    wall-8
    {
        type            zeroGradient;
    }
    frontAndBackPlanes
    {
        type            empty;
    }
}


// ************************************************************************* //
