/*--------------------------------*- C++ -*----------------------------------*\
  =========                 |
  \\      /  F ield         | OpenFOAM: The Open Source CFD Toolbox
   \\    /   O peration     | Website:  https://openfoam.org
    \\  /    A nd           | Version:  9
     \\/     M anipulation  |
\*---------------------------------------------------------------------------*/
FoamFile
{
    format      ascii;
    class       surfaceScalarField;
    location    "37";
    object      phi;
}
// * * * * * * * * * * * * * * * * * * * * * * * * * * * * * * * * * * * * * //

dimensions      [0 3 -1 0 0 0 0];

internalField   nonuniform List<scalar> 
1300
(
3.75095
5.62643
-3.00432
3.75095
-7.06915
5.62643
-4.42852
4.42852
-0.915759
0.915759
1.87642
1.87453
-2.91951
2.91951
-2.34135
2.34135
-2.55573
2.55573
-5.24642
5.24642
-5.06808
5.06808
4.66745
-4.66745
-6.10091
6.10091
-1.26889
1.26889
-3.79938
3.79938
3.16977
-3.16977
-2.28934
2.28934
-0.241128
0.241128
-0.553514
4.30447
3.19744
3.19744
-2.03578
2.03578
-4.86376
4.86376
6.2181
-6.2181
4.73819
-4.73819
-1.73387
-2.06879
1.46076
-11.1307
-5.6084
-5.6084
-8.4404
8.4404
-2.81397
2.81246
2.94409
-2.94409
-1.77881
1.77881
-4.36498
-0.0635392
-4.36498
4.42113
0.00738424
4.42113
-1.01049
0.0947261
-1.01049
3.90256
-3.90256
0.789374
0.126385
0.789374
3.06487
-3.06487
-1.87706
3.75348
1.87389
-1.87186
6.17632
-1.8791
3.75363
-5.97293
5.97293
-3.13931
0.2198
-3.13931
2.74688
0.172631
2.74688
-6.77038
6.77038
-2.41345
0.0720999
-2.41345
2.30705
0.0343016
2.30705
2.86931
-2.86931
-2.6563
0.100571
-2.6563
2.445
0.110734
2.445
0.353546
5.27288
-5.97998
8.79244
-5.27288
0.0264612
5.20841
0.0380085
5.20841
-5.10583
0.037749
-5.10583
5.01203
0.0560506
5.01203
4.75824
-0.0907949
4.75824
-4.78207
0.114622
-4.78207
-3.80984
-4.43213
-6.26847
0.167557
-6.26847
-1.27057
0.00168447
-1.27057
1.22538
0.0435066
1.22538
-3.62286
3.62286
-4.19305
0.393674
-4.19305
3.12421
0.0455633
3.12421
1.8685
1.88245
5.61945
-5.61945
2.44968
-2.31991
0.0305616
-2.31991
-2.32055
-2.41764
2.32055
-0.0312052
-0.497906
0.256777
-0.497906
3.1593
0.0381352
3.1593
2.28752
0.157475
-2.28752
0.25174
3.2267
-3.2267
1.37769
0.658089
1.37769
-5.56718
5.56718
4.95357
0.0584585
-4.95357
0.0898148
6.15638
0.0617207
6.15638
-6.19951
-0.0185835
-6.19951
2.62638
-4.69518
-2.39089
5.87735
0.223562
-5.87735
0.268954
2.91448
0.0296079
2.91448
-2.92064
2.92064
-2.98329
0.0391961
-2.98329
-2.18145
0.402636
-2.18145
1.47638
0.302436
1.47638
-4.22953
-0.135445
-4.22953
-4.33852
0.145468
4.33852
0.0826132
1.09634
-1.09634
-1.11992
0.109433
-1.11992
-4.05683
-0.172702
4.05683
-0.154273
-3.77567
-0.126888
-3.77567
-3.02361
0.0403255
3.02361
0.0412585
3.11264
0.0466663
-3.11264
0.0477684
-1.87083
3.75328
-1.88013
3.75402
-5.58955
-0.383376
-5.58955
6.27971
-0.306785
6.27971
3.48546
0.313916
-3.48546
0.346151
2.61178
0.135098
2.61178
-6.74369
-0.0266906
-6.74369
6.74351
0.0268643
6.74351
2.50493
0.106856
-2.50493
0.0914804
2.31268
-0.00563192
2.31268
2.88383
-0.014516
2.88383
-2.86693
-0.00238399
-2.86693
2.79976
-2.79976
2.73176
0.0680016
-2.73176
0.0754607
-11.1329
11.1144
-0.0351451
-11.0978
5.17327
5.17327
4.18724
0.570998
4.18724
-4.9966
0.21453
-4.9966
3.20486
-5.59575
3.26267
-7.07251
4.93687
-16.0676
4.30357
-8.7357
6.58087
-6.58087
6.43498
0.145897
-6.43498
0.166508
-1.30252
0.0319465
-1.30252
-3.01619
-0.606662
-3.01619
4.27515
-0.652292
4.27515
-3.02882
3.02882
-3.07787
0.0490417
3.07787
0.0463418
2.33225
-0.0195725
-2.33225
0.0123438
0.649507
0.139867
-0.649507
0.151601
3.41331
-0.186604
3.41331
-3.04407
-0.182637
-3.04407
-1.33666
0.0341373
1.33666
0.0410358
-5.81591
0.248733
-5.81591
-11.1908
0.0929792
-11.1528
-6.10654
-6.10654
2.33387
11.1263
-2.88769
0.0207632
2.88769
0.0267902
2.97584
0.0529862
-2.97584
0.0551985
-2.86224
0.062478
2.86224
0.0583981
-2.55958
0.378136
-2.55958
-1.06569
1.06569
-1.23896
0.173271
1.23896
0.237413
1.35513
-0.25879
1.35513
1.18692
0.0384624
-1.18692
0.0670004
-3.67141
-0.104266
-3.67141
6.50652
-0.226807
6.50652
-2.93972
-0.104347
2.93972
-0.0558932
-0.0333367
11.1477
-5.13993
0.0341024
5.13993
-11.2094
11.2435
-3.2338
0.674218
3.2338
0.953443
5.28791
0.279265
-5.28791
0.291313
6.68492
0.058592
-6.68492
0.104047
-2.52677
-0.489426
-2.52677
-5.00542
-0.58413
5.00542
-0.730274
-11.4754
-0.202339
11.6778
-11.4194
6.01825
0.138127
-6.01825
11.3816
-1.00877
-0.0875692
1.00877
0.0569202
1.67527
-0.320142
1.67527
3.58219
-0.168879
-3.58219
-0.0892191
-6.65628
-0.0874114
6.65628
-0.149756
-2.08691
-0.43986
2.08691
-0.411636
-4.26699
4.30512
1.90934
-2.47475
-2.22043
-4.89239
1.85192
1.90136
4.3016
-10.144
-5.92361
-9.87505
7.26575
-6.97443
-9.26985
9.17905
7.65362
-7.7805
-5.78525
5.83159
6.48235
-6.4411
1.87869
1.87479
7.90903
-7.68923
-15.6788
15.2954
7.48356
-7.41146
15.8331
-15.8598
-17.8879
17.9465
-5.71412
5.8147
-6.72627
6.72388
-6.94955
6.89366
-3.38731
-3.6852
13.1086
-12.9411
8.30114
-8.27057
-8.52371
8.91738
3.38248
0.922643
3.42915
-1.88226
3.76094
-1.87138
3.78071
2.65919
-6.0465
2.93656
-5.15699
3.91308
4.38805
-3.88188
-1.01052
-5.9198
5.94941
-5.82056
5.87895
8.98167
-9.04521
-1.88519
3.75998
-1.86883
3.7702
-3.42514
-2.3601
3.37958
0.922018
8.00931
5.09934
-8.23288
-1.64217
-7.907
7.73812
-8.17598
7.99334
-0.440416
5.82003
-5.37962
4.42334
-1.55803
7.37807
5.70771
5.92224
5.86681
-5.58754
1.10762
-6.48724
-6.39743
-2.51503
2.62446
2.44428
-2.3179
5.99883
1.65478
5.84456
-5.60631
-2.17419
-5.71058
3.82109
2.0105
3.87013
4.07691
2.40544
4.11724
3.03086
-3.03574
0.00487245
-3.05635
6.08722
0.724241
-5.41646
-4.49444
4.9467
2.96234
5.11933
-5.48302
-2.20621
-5.13687
-9.56577
-6.11305
-10.1499
10.1235
5.17198
9.81667
-12.0091
11.8593
4.76995
2.71361
4.80426
-4.91568
-2.49578
-4.8242
11.6608
-2.59148
-9.06937
-10.3452
-7.54271
10.3183
5.51477
10.9615
6.98497
11.0656
4.43349
7.22735
-9.94826
2.40554
-3.86656
-1.84756
-3.7911
3.68654
2.12815
3.79728
-4.21312
-2.51315
-4.19235
-4.28806
-2.66149
4.30257
2.42131
-4.40287
-3.7731
4.50722
2.38644
4.24536
-10.169
4.49035
-8.17554
-9.21002
-3.73107
-9.04351
3.59424
2.77175
-6.36598
-2.45227
8.61977
-4.23172
7.60926
-5.04816
-3.22241
-5.03582
-6.81596
-1.70775
-6.67049
-8.88808
8.39865
-9.19786
8.54557
12.6204
-5.69804
-6.92237
-3.96825
-2.47285
3.92048
-0.491334
-3.71094
3.71582
0.05
3.83071
4.75336
4.26202
-3.88685
-1.93371
-3.83165
3.8316
2.04736
3.89407
6.76501
2.21666
6.7724
-6.47098
-2.57424
-6.60642
9.07102
-8.66838
2.89193
-2.8578
5.32353
2.66981
-5.13692
-2.77007
6.20222
-3.16737
-3.03485
-12.2077
10.5567
1.65099
-4.82962
-0.406281
-0.165152
-5.49852
-3.77133
5.38389
0.538348
11.095
7.32372
-5.51286
5.76159
6.16492
6.22338
-0.174044
5.83298
-5.15876
5.31954
-2.44927
-2.87027
5.3281
-5.5008
-1.27832
-5.36648
4.08816
0.343758
1.71262
-1.45585
-1.96957
-0.545454
-1.90257
1.4715
0.972779
1.61137
0.955032
1.66943
-2.95602
0.553742
2.40228
-2.00099
-1.76415
-3.69959
-1.06825
4.76785
5.61373
2.12439
-5.52451
-0.186068
2.65786
-2.61435
-0.751095
-2.9485
2.15973
-2.91083
-3.67213
-1.90177
5.5739
-3.37063
-0.461021
3.31764
0.552487
-3.82564
-2.09416
3.78644
0.330797
-3.12523
6.19049
-3.06526
-5.05893
2.52858
3.55864
4.53908
-4.7899
2.44658
2.34331
-1.23126
4.22577
0.893554
4.36087
-6.78119
4.57498
5.75177
3.16562
-6.06568
0.928813
-5.85238
8.4677
-7.29479
-1.17291
4.08087
4.38683
7.13643
5.48397
-5.70582
12.8423
-1.16913
-6.12566
7.02151
-3.85589
4.79375
-8.64964
-10.2777
4.15206
-9.21012
10.996
-1.78593
-3.63303
-8.37603
12.8432
-1.21383
-11.6293
8.60284
-4.16686
-4.25727
8.42413
-6.75834
6.75305
-1.94628
-4.80677
-10.1459
-5.71387
10.2333
1.62599
-9.84312
12.2487
-2.61576
4.10092
0.703335
4.09529
3.23526
-5.39646
2.1612
3.52308
-5.46936
2.0558
-7.45226
-6.77806
12.1156
-5.33754
-10.5091
-9.57118
-0.937951
2.5069
9.74176
-9.49188
7.40323
2.08865
3.30886
0.585213
-3.37686
-0.414235
0.254025
4.53168
-4.7857
4.0513
4.20878
3.34065
1.19102
3.84082
2.10859
-3.86761
-0.324747
-4.15537
1.49387
-1.73406
-3.67493
5.16881
-4.06356
0.388628
-2.73667
-3.50972
6.24639
-4.58423
3.03936
3.15112
5.08672
-4.91298
1.40326
-2.39959
-2.51338
2.6603
-4.39436
1.97235
3.19645
4.35879
0.585687
5.96944
6.14616
-8.74119
0.565644
11.2455
-9.60332
2.50121
8.56436
-9.90444
0.333262
-8.71025
1.12775
-5.35947
-5.23824
5.12092
-6.82867
-3.52872
6.15749
0.614905
-6.2401
-0.43039
-6.03751
-2.85056
-6.47737
-3.05727
-6.1406
-8.76309
-1.65139
-7.11169
6.74726
-6.69356
-3.45634
7.42383
1.12174
-7.40902
7.32145
-7.4856
7.16546
0.0948753
3.62094
4.3569
1.88405
-2.38968
4.27373
-5.10129
7.31795
-8.60773
3.50643
4.05921
-6.63345
-4.54851
5.03367
4.03735
5.3361
8.9264
-10.444
1.51755
-10.735
12.0581
-1.32308
-16.51
5.77499
-7.58356
2.59795
0.293979
2.6299
0.619038
2.47512
-3.09416
-2.23876
-2.19772
-2.36385
-3.46044
5.82428
1.16654
-3.45766
2.29111
-3.52003
4.68658
-0.0937911
-3.36387
5.30472
-2.82959
5.5987
-3.61382
1.98487
3.37262
5.72771
-2.35509
4.38342
-1.71361
1.84709
-4.20218
-1.61335
-2.96862
5.09677
-3.27777
3.6664
-0.31107
3.97747
-4.0791
0.911729
-0.738449
3.47033
3.72207
4.28101
-3.08999
2.95601
-4.66962
-1.24617
-4.08393
-0.887482
-0.304954
-3.74517
4.05012
6.03013
-6.33509
-5.26034
9.56534
-4.305
7.71761
-5.40298
-2.31463
-4.27082
-4.39756
3.89269
1.94029
9.6579
0.209173
-5.61215
-4.94959
-3.99614
3.20549
2.11406
-1.91737
3.56836
2.08252
-0.369901
0.542838
1.06853
1.85075
-1.30791
0.235713
1.61504
-1.22013
1.94733
0.710521
-1.9858
0.0832248
-1.3489
3.50863
1.05338
-2.02616
0.718245
1.04827
-3.49754
4.87362
-2.52
-2.35361
5.92189
1.16128
-3.68129
4.20519
-3.86144
2.33743
-3.40568
-1.34386
-5.20529
-3.55051
-2.5731
4.86421
-3.25118
5.37557
1.19208
-5.1895
6.38159
-3.60255
1.70078
-3.08613
3.79666
-1.08402
-2.00211
2.84169
2.73221
-2.96509
0.0165891
-0.123395
2.34509
-2.46849
-0.565732
-2.56672
-4.57229
4.90309
-2.10688
4.55346
2.16685
-1.91493
6.46839
1.8109
-3.72583
-3.24804
-3.70906
-1.38251
3.15657
-0.574994
-4.2492
-5.38176
4.14235
0.218525
-6.88936
7.68325
-0.793885
-3.92703
-0.647954
4.72882
-5.94331
0.473946
-3.88751
3.79574
4.68929
4.90781
-11.4155
-0.213808
-6.24353
1.13023
-7.37376
5.51706
-3.57227
7.72434
-10.3917
6.93538
-9.26998
6.55142
-0.822332
6.25837
-4.09717
2.81099
-8.52486
-6.89887
5.42816
-2.71455
6.13149
-3.09381
9.2253
-5.70958
5.19021
4.0351
-0.969853
-4.06596
-5.19996
4.23011
-0.00975281
4.08554
4.97388
-2.86529
4.64913
2.25838
-4.65797
-2.13598
-6.49789
1.83992
-3.34677
-1.91708
3.757
3.16964
3.75485
1.24362
-3.34062
7.265
-8.20295
-1.92746
-3.31078
5.20348
-0.973371
3.3784
-6.68918
-1.98106
4.85098
-0.801939
-4.04904
0.847052
-4.37577
1.65789
-6.03367
5.17077
-5.60116
2.21439
-9.79795
-5.19464
-5.13772
-2.25123
-5.23437
-7.60328
5.35205
-1.82829
5.49316
-8.56909
7.76715
-3.48897
8.84102
-5.42995
-1.04743
5.84158
1.32388
10.1649
0.160616
-4.70913
-1.87295
3.93602
-2.06307
1.33254
-3.58455
0.351467
2.48176
3.44012
-6.56992
-0.0635323
-4.77266
-3.9213
7.95865
5.64404
11.6742
1.23023
9.1511
-1.19244
10.3813
4.14366
4.38107
-3.02112
4.53867
1.029
4.53544
-0.842348
2.82722
1.78755
1.78924
0.825112
2.31946
1.40261
3.23119
0.137028
-2.06069
4.63779
-8.63394
-0.97436
-8.06294
1.11611
5.72621
-4.6101
3.09983
-0.985768
1.03676
0.0729533
-1.59139
1.51843
-2.79732
-1.96129
-0.34625
-1.63804
2.35628
1.87059
-2.01003
-0.787287
0.337144
-3.88765
3.06854
-3.05195
-0.319743
6.06184
-2.76373
0.295243
-1.06295
-2.27148
-2.81693
2.73371
6.17715
0.291236
3.11189
5.19433
3.10016
0.234877
3.87984
-5.66577
-3.57242
-5.87958
-0.36252
4.3663
1.75738
7.98438
5.79248
4.8191
-1.87008
-10.073
6.56107
-2.0224
5.23798
-1.18894
-4.84473
5.00187
2.31609
-5.61677
0.0156078
-4.82912
-6.85152
-0.523031
8.29018
-9.64187
8.59444
5.74388
1.36782
-4.4087
-0.729015
4.23543
0.145642
10.527
-1.12821
-6.81465
7.94285
-4.59801
3.62365
0.828957
2.7394
2.34739
1.36162
-5.45302
-10.0631
-1.93572
-1.56183
-4.28933
0.478523
-2.34911
6.25094
-2.6273
3.93631
5.31555
6.35231
-2.16038
-4.17471
6.46538
-2.52907
3.82325
)
;

boundaryField
{
    wall-4
    {
        type            calculated;
        value           uniform 0;
    }
    velocity-inlet-5
    {
        type            calculated;
        value           uniform -3.75095;
    }
    velocity-inlet-6
    {
        type            calculated;
        value           uniform -5.62643;
    }
    pressure-outlet-7
    {
        type            calculated;
        value           nonuniform List<scalar> 8(3.00432 7.06915 3.80266 9.66998 8.24198 5.01727 6.46753 9.24044);
    }
    wall-8
    {
        type            calculated;
        value           uniform 0;
    }
    frontAndBackPlanes
    {
        type            empty;
        value           nonuniform List<scalar> 0();
    }
}


// ************************************************************************* //
