/*--------------------------------*- C++ -*----------------------------------*\
  =========                 |
  \\      /  F ield         | OpenFOAM: The Open Source CFD Toolbox
   \\    /   O peration     | Website:  https://openfoam.org
    \\  /    A nd           | Version:  9
     \\/     M anipulation  |
\*---------------------------------------------------------------------------*/
FoamFile
{
    format      ascii;
    class       volVectorField;
    location    "37";
    object      U;
}
// * * * * * * * * * * * * * * * * * * * * * * * * * * * * * * * * * * * * * //

dimensions      [0 1 -1 0 0 0 0];

internalField   nonuniform List<vector> 
918
(
(0.985164 -0.00050027 0)
(0.00500995 2.96625 0)
(-0.00862979 0.800437 0)
(0.979703 0.00214872 0)
(-0.0750419 1.88459 4.12912e-21)
(-0.00704125 2.94879 -2.63961e-18)
(0.829657 1.17177 3.91837e-19)
(0.301898 0.139243 -1.72138e-20)
(0.999909 -0.000282709 0)
(0.0547366 0.823298 0)
(0.00811323 0.630809 0)
(0.734645 -0.0129089 0)
(0.0111052 2.93034 0)
(0.00259198 2.7946 0)
(-0.0175173 3.157 7.29042e-19)
(-0.0133039 1.84683 -4.92349e-20)
(0.372515 0.0406381 1.13299e-18)
(0.190507 1.1807 2.59465e-19)
(0.962783 0.00501674 0)
(0.00555892 0.620948 0)
(0.0709363 0.185787 -8.13059e-19)
(1.00198 -0.0049817 0)
(1.00022 -0.00979387 0)
(0.975723 -0.00644348 0)
(0.585699 -0.0364728 0)
(0.0158918 2.63856 0)
(-0.0148956 2.91002 9.83147e-19)
(-0.00707898 0.847534 0)
(-0.0145183 1.01413 0)
(-0.00480937 0.82132 0)
(-0.0837688 2.57786 0)
(-0.0543837 2.017 -3.28601e-21)
(-0.0348337 1.76728 0)
(-0.0206142 2.9876 -9.53937e-23)
(-0.0166926 3.0053 2.0516e-18)
(0.00210453 3.00019 0)
(0.870639 -0.00941127 0)
(0.403186 0.936579 2.13318e-19)
(0.809613 1.18857 -3.9788e-19)
(0.956357 1.02686 4.6054e-19)
(0.679878 1.2819 -8.99194e-20)
(0.679419 1.26663 5.27271e-19)
(0.343667 0.224213 1.67935e-20)
(0.317278 0.109686 0)
(1.13108 0.55141 0)
(0.309224 0.218083 7.67427e-20)
(0.272539 0.146366 -7.96373e-20)
(0.919735 -0.00746086 0)
(1.00027 0.000144222 0)
(0.999909 0.000329888 0)
(1.00363 -0.00777472 0)
(1.00096 -0.000932854 0)
(1.00017 2.87669e-05 0)
(0.0810596 1.80709 -8.94379e-19)
(0.0321509 0.998956 0)
(0.0869071 0.890296 0)
(0.0116668 0.952463 0)
(0.0357397 0.76404 0)
(0.0237135 2.00204 0)
(0.0180411 0.8167 0)
(0.0227384 0.65402 0)
(-0.000630349 0.802909 0)
(-0.00788289 0.619392 0)
(0.83744 -0.0156868 0)
(0.848957 0.028134 0)
(0.767861 -0.00268334 0)
(0.820721 0.0378376 0)
(0.702979 -0.0182229 0)
(0.0146943 3.0004 9.80904e-19)
(0.0115141 3.00797 0)
(0.006125 3.0028 0)
(0.0135459 2.99734 1.11683e-23)
(0.00797999 2.95847 -1.45787e-18)
(0.0144844 2.98203 0)
(0.0108155 2.90363 0)
(0.0249668 2.93055 2.28364e-24)
(0.00443222 2.82476 0)
(0.0308913 2.91598 0)
(-0.00573262 2.74536 0)
(0.308546 3.55393 0)
(-0.131857 3.63551 0)
(0.139768 3.24736 -6.78458e-19)
(-0.0124034 2.98241 0)
(-0.0402064 2.19784 0)
(-0.00944227 2.11105 4.85586e-20)
(0.00904024 1.88081 -5.71804e-20)
(0.465219 0.144796 -3.92002e-19)
(0.370209 0.022523 -3.77971e-19)
(0.449683 0.166647 -1.18063e-18)
(0.357962 0.060425 -7.78706e-19)
(0.21989 0.951029 0)
(0.272979 1.32249 -3.25221e-19)
(0.375995 1.26644 5.4731e-19)
(0.98749 0.00856252 0)
(0.941947 0.00588073 0)
(1.0003 0.000578688 0)
(1.00286 0.00930591 0)
(1.00302 0.00846069 -3.01903e-18)
(0.991914 0.00969708 2.2799e-18)
(-0.00620665 0.795003 0)
(-0.0081374 0.63095 0)
(0.0170234 0.871643 0)
(-0.017939 0.793549 0)
(-0.00912028 0.625441 0)
(0.111839 0.191562 2.51349e-19)
(0.168348 0.168814 0)
(0.993537 -0.00838177 0)
(0.954411 -0.00652014 0)
(0.771895 0.0458192 0)
(0.708086 0.0563827 0)
(0.662449 -0.0301386 0)
(0.957372 -0.0104817 0)
(0.623717 0.073704 0)
(0.450002 -0.0151256 1.65816e-18)
(-0.0366324 2.86397 7.60028e-19)
(0.0421567 2.9093 0)
(0.0545654 2.88487 0)
(-0.00439724 2.69901 0)
(-0.0133509 2.98511 9.36037e-19)
(-0.0180268 2.89513 0)
(-0.0154216 2.98809 -2.89178e-18)
(-0.0133575 2.92517 9.8829e-19)
(0.0659175 1.26709 0)
(0.0383853 1.33767 0)
(-0.0212956 2.07113 -1.20309e-21)
(-0.0381017 2.02019 0)
(-0.0129007 1.81866 0)
(0.937872 -0.00772962 0)
(0.856201 -0.00941271 0)
(0.863457 0.0064219 0)
(0.949104 -0.00798423 0)
(0.883584 -0.00818938 0)
(0.515426 1.13053 -2.67656e-19)
(0.565017 1.18253 0)
(0.366998 0.880251 3.82775e-20)
(0.309315 0.739395 0)
(0.915844 1.06518 -1.22877e-19)
(1.02587 0.866683 2.41709e-19)
(0.370462 1.37458 0)
(0.533184 1.34477 0)
(0.546052 1.29655 0)
(0.113979 0.181267 -3.24196e-19)
(0.377863 0.212239 0)
(0.343236 0.103267 2.1986e-19)
(0.996456 0.921973 0)
(1.06045 0.770321 0)
(1.08537 0.710967 -1.69805e-19)
(1.11138 0.612303 0)
(1.15581 0.39595 5.43015e-20)
(0.957459 -0.00881342 0)
(0.962351 -0.0101323 0)
(0.901447 -0.0079823 0)
(0.984166 -0.00918022 0)
(0.974635 -0.0094072 0)
(0.937044 -0.00635902 0)
(1.00018 0.00233823 0)
(1.00091 0.00139311 0)
(0.999912 0.000855487 0)
(0.0333505 2.0617 4.90657e-19)
(0.121396 1.74898 0)
(0.0125623 2.17741 7.80871e-19)
(0.0562077 1.86239 -6.69153e-19)
(0.105367 1.18574 -2.11349e-19)
(0.0462982 1.07231 0)
(0.141239 1.03839 0)
(0.00990745 0.903499 0)
(0.0183336 0.725354 0)
(-0.00598275 2.22106 -1.75524e-21)
(0.0297218 1.99097 0)
(-0.00613095 2.20525 -8.86697e-20)
(0.028793 1.99635 1.65475e-19)
(0.00634454 0.869035 0)
(0.0143594 0.84274 0)
(0.0201771 0.687864 0)
(-0.00233033 0.804358 0)
(-0.0089974 0.618184 0)
(0.93501 0.00885144 0)
(0.844281 -0.0148067 0)
(0.92529 -0.000403048 0)
(0.839776 -0.0126523 0)
(0.81235 0.00168494 0)
(0.902065 0.0196768 0)
(0.878882 0.0237651 0)
(0.789115 -0.000234831 0)
(0.00582223 3.06492 -9.24816e-21)
(0.016559 3.05774 0)
(0.0146734 2.96907 0)
(0.00866911 2.87629 0)
(0.925486 3.97048 0)
(1.24021 3.30256 9.2253e-19)
(0.0703072 3.07453 0)
(-0.0282448 2.90545 0)
(0.104322 1.47281 0)
(0.0326792 1.86928 0)
(0.0295969 1.72423 0)
(-0.0546123 2.53009 1.853e-20)
(-0.0435954 2.36028 0)
(-0.0933661 2.46372 0)
(0.0260356 1.96443 2.22028e-21)
(-0.0165592 2.14294 5.86898e-20)
(-0.0171698 2.12738 5.81794e-20)
(0.0240536 1.92657 0)
(0.491021 0.120167 5.87909e-19)
(0.388987 0.00422407 -5.77576e-19)
(0.26057 1.57279 0)
(0.268033 0.726744 -3.30399e-19)
(0.177502 1.65778 -1.11317e-18)
(0.226806 1.19399 1.116e-18)
(0.902263 0.00653694 0)
(0.96752 0.0110149 0)
(0.974621 0.0107738 0)
(0.923452 0.0065112 0)
(-0.014877 0.809293 0)
(-0.00524979 0.802089 0)
(-0.00961943 0.626765 0)
(0.265864 0.215406 7.07352e-19)
(0.220364 0.201271 -8.37259e-19)
(0.230037 0.160027 0)
(1.07851 0.0804566 3.38457e-20)
(1.06036 0.035508 0)
(1.00046 0.0373202 0)
(0.897841 -0.00823549 0)
(0.517615 0.0967741 0)
(0.554721 0.0781523 -2.6525e-18)
(0.412734 -0.00193838 9.94353e-19)
(0.00914079 2.98162 8.03753e-19)
(-0.0322429 2.86642 4.7796e-20)
(0.00363977 3.05028 -1.95091e-20)
(0.0201188 3.04336 6.92427e-19)
(-0.0149952 2.99656 3.23833e-20)
(-0.0129496 2.94943 -1.30169e-22)
(-0.0172787 3.01197 -5.96474e-19)
(0.0148505 3.02388 4.32e-19)
(0.00736831 3.03686 -6.86319e-19)
(0.932425 -0.00180772 0)
(0.938445 -0.00382329 0)
(0.844114 -0.0090082 0)
(0.956747 0.0116836 0)
(0.943102 0.012913 0)
(0.881807 0.00615243 0)
(0.918301 0.0161692 0)
(0.926668 0.0146089 0)
(0.838764 0.00408548 0)
(0.719234 1.41006 -6.57195e-22)
(0.753034 1.5195 0)
(0.188247 0.325606 7.86055e-20)
(0.217203 0.655504 6.34477e-19)
(0.25877 0.716975 -3.67778e-19)
(0.265372 0.533772 7.32469e-19)
(0.333247 0.785633 1.69716e-18)
(0.131744 0.220751 3.93223e-19)
(0.424167 0.187338 8.26166e-19)
(0.402782 0.203758 2.14832e-19)
(0.354994 0.0847186 4.10287e-19)
(1.1461 0.454413 -1.1303e-20)
(1.15893 0.249129 -1.89977e-20)
(0.00445651 2.22371 3.13632e-19)
(0.0499371 1.92442 0)
(0.963125 0.0277317 0)
(0.938179 0.012856 0)
(0.861742 -0.0185917 0)
(0.0112719 3.07439 0)
(0.0198701 2.94422 1.28236e-18)
(0.0164445 2.95638 0)
(0.00630014 2.85054 -1.2719e-18)
(0.00633413 3.09195 3.12562e-19)
(0.00706682 3.08225 0)
(0.786221 1.82248 -1.49351e-19)
(1.24788 2.5013 3.74299e-19)
(0.768448 1.96248 -1.20659e-18)
(0.0201076 2.98199 -7.03102e-19)
(0.035798 3.00193 0)
(-0.0339215 2.87851 0)
(-0.0075321 2.18785 -7.8445e-21)
(-0.0105691 2.16377 -1.26469e-19)
(0.0229951 1.98539 -4.49768e-21)
(0.27449 1.3793 1.07677e-18)
(0.224451 0.513033 -7.38361e-19)
(0.0626773 1.9867 8.29794e-19)
(0.136759 1.87541 -9.77879e-19)
(0.180153 1.48844 9.14185e-20)
(0.00596413 3.11816 -1.75778e-18)
(0.0126332 3.11892 1.92117e-18)
(-0.00915486 2.98053 8.70743e-19)
(-0.00385425 2.97733 -8.3009e-19)
(-0.021536 2.88107 -8.86838e-19)
(0.00848371 3.09887 -2.32831e-18)
(0.00161983 3.10603 2.34329e-18)
(0.273374 0.680341 0)
(0.236371 0.669844 -1.30927e-18)
(0.0961599 0.221574 5.79789e-19)
(0.34806 0.911067 1.16829e-18)
(0.186949 0.26487 -1.80233e-18)
(1.15719 0.16831 9.29231e-20)
(1.16126 0.303362 0)
(1.14371 0.117064 -4.14559e-20)
(-0.00255519 2.23538 -2.42474e-21)
(0.000259202 2.23245 0)
(0.0349459 1.96459 0)
(0.338697 1.28832 -3.88105e-19)
(0.366498 1.12188 -8.37195e-19)
(0.200395 0.361548 1.49374e-18)
(1.00587 -0.0108679 0)
(1.00766 -0.00765431 5.57533e-19)
(0.0543767 1.25054 0)
(0.0123444 1.15378 0)
(1.00222 0.00350588 1.80727e-21)
(1.00365 0.00943954 1.13729e-18)
(-0.0568625 2.536 -2.30905e-20)
(-0.0434821 2.55991 0)
(0.0360725 3.17909 4.81248e-19)
(0.395641 3.49249 0)
(1.14228 0.652639 -9.28103e-20)
(1.01291 0.0130665 -2.1351e-21)
(1.02125 -0.0104144 0)
(1.00168 9.74002e-05 6.8626e-23)
(0.0986672 1.35411 0)
(0.14894 2.58054 0)
(0.0181569 1.29963 0)
(-0.000362355 2.63155 9.20387e-20)
(-0.0243118 2.58547 6.3052e-20)
(1.0023 0.0276996 2.47533e-21)
(1.06145 0.00334422 0)
(1.09439 0.0225435 0)
(0.0123969 1.88703 0)
(-0.0301752 2.5807 0)
(0.0350317 1.26543 0)
(0.290035 1.46779 -1.11797e-19)
(1.01126 -0.00965945 0)
(1.00939 -0.014936 0)
(1.00234 0.000696014 7.12004e-19)
(1.00547 -0.00483983 -8.37353e-19)
(1.00119 -0.000988968 0)
(0.0604083 1.57575 0)
(0.0730437 1.35683 0)
(0.0644903 1.49922 0)
(0.0415273 1.24755 0)
(0.0195728 1.16765 0)
(0.00244053 1.1261 0)
(1.03437 -0.00650068 0)
(1.02068 0.015701 -9.20406e-22)
(0.796901 1.26479 2.02196e-19)
(1.00227 0.00024823 -7.11195e-19)
(1.00406 0.00524467 8.30357e-19)
(1.00118 0.00205738 0)
(1.01286 0.010261 7.06841e-19)
(1.00802 0.00827393 -8.55151e-19)
(1.00859 0.0146651 0)
(-0.0361213 2.59897 0)
(-0.0392074 2.57325 4.71775e-20)
(-0.0376396 2.58723 -3.1336e-20)
(1.22111 0.252255 7.31938e-19)
(1.15455 0.0805561 0)
(0.0445665 3.07776 -1.02838e-18)
(0.0656935 2.85382 -7.45473e-20)
(0.142607 3.19358 1.55921e-18)
(0.137405 3.22232 -2.461e-19)
(0.136099 3.23511 0)
(0.0194582 3.13761 2.6895e-19)
(0.0766246 3.16064 1.01579e-18)
(0.069365 3.18666 -5.06051e-19)
(0.0226149 3.12944 0)
(0.651532 0.298514 0)
(0.573598 0.345952 0)
(1.11125 0.685914 2.40866e-19)
(1.10728 0.814096 -2.59332e-19)
(1.17072 0.571773 0)
(1.20087 0.5098 0)
(1.01616 0.0132962 -1.31846e-18)
(1.015 0.0142641 1.65508e-18)
(1.02517 -0.00998504 0)
(1.0232 -0.0119989 0)
(1.00647 0.00256226 0)
(1.01043 0.00368665 0)
(1.00462 0.00181675 0)
(1.00982 0.00615941 0)
(1.0078 0.00596112 0)
(1.00452 0.004616 0)
(0.0879734 1.35047 0)
(0.0814509 1.32504 0)
(0.118989 1.38677 0)
(0.129924 1.39936 0)
(0.146882 2.60471 0)
(0.187252 2.67096 -4.74853e-19)
(0.100941 2.66266 0)
(0.0882126 2.66593 2.48229e-19)
(0.039175 2.6881 -2.35867e-19)
(0.0312621 1.31627 0)
(0.0215537 1.24002 0)
(0.0367323 1.32264 0)
(0.0326724 1.26407 0)
(-0.00246582 1.98868 -5.16137e-20)
(-0.0251449 2.61337 5.00798e-20)
(-0.0125582 2.67453 8.96108e-20)
(-0.0206567 2.68721 0)
(-0.0290821 2.61762 -1.48032e-19)
(-0.0276996 2.61064 -8.79841e-20)
(0.00796989 1.98855 4.05579e-20)
(-0.0154272 2.41306 -6.71804e-20)
(-0.0185771 2.43113 -1.01604e-19)
(1.01132 0.0359074 1.3405e-18)
(1.00784 0.0166537 -1.6586e-18)
(1.00359 0.0419185 -1.34347e-18)
(0.982441 0.0217591 1.70955e-18)
(1.0626 0.00712425 0)
(1.04811 -0.00895266 0)
(1.09115 0.0327933 0)
(1.07233 0.0113804 0)
(1.07001 -0.00148402 0)
(1.13628 0.0772009 0)
(1.10785 0.0413046 0)
(1.11049 0.0292025 0)
(-0.065765 2.45775 -8.42914e-21)
(0.0161005 2.10602 0)
(-0.0380423 2.2868 0)
(-0.0318649 2.59976 2.36273e-20)
(-0.0274749 2.6086 -1.27069e-21)
(0.027342 1.65002 5.80219e-20)
(0.0397048 1.59772 -5.86216e-20)
(0.0421934 1.4085 0)
(0.0474263 1.42048 0)
(0.037749 1.4261 0)
(0.0313471 1.28673 0)
(0.0137414 1.18462 0)
(0.378752 1.48251 1.648e-19)
(0.417364 1.48789 1.09591e-19)
(0.596762 2.449 -2.51652e-19)
(0.403234 2.54465 7.48224e-19)
(0.35433 2.06762 9.15258e-20)
(1.02096 -0.00824345 0)
(1.01545 -0.00981435 0)
(1.01488 -0.0155385 0)
(1.00746 -0.00121211 0)
(1.0049 -0.000973521 0)
(1.00776 -0.00477528 0)
(1.00924 -0.00373273 0)
(1.01414 -0.00451559 0)
(1.02138 0.0159857 1.29174e-18)
(1.01812 0.0157408 -1.65602e-18)
(1.02185 0.0179345 -1.30044e-18)
(1.01974 0.0165337 1.6319e-18)
(0.764358 1.31314 0)
(0.699781 1.3662 1.73583e-19)
(0.872706 1.20988 3.69294e-20)
(0.915136 1.16394 -4.91119e-20)
(1.15583 2.60843 4.00139e-19)
(0.808278 0.102635 6.51307e-19)
(1.15681 0.0995102 0)
(1.20066 0.181179 -5.8777e-19)
(1.1842 0.145889 -2.48615e-20)
(1.00419 0.142974 0)
(0.137595 2.96161 6.14782e-19)
(0.114637 2.86753 -1.29885e-18)
(0.0253389 2.37127 8.76411e-19)
(0.0921388 -0.00853209 -3.94722e-19)
(0.340607 3.42145 -1.74173e-19)
(0.19521 3.31384 0)
(0.237829 3.35617 2.26832e-19)
(0.246641 3.03494 -1.98784e-18)
(0.340961 3.19409 0)
(0.00655034 3.12077 5.16606e-20)
(0.0176547 3.12943 -6.02653e-19)
(0.0153375 3.12551 8.87007e-19)
(0.0355526 3.13969 0)
(0.0337708 3.15077 0)
(1.21518 2.60812 0)
(0.534144 0.839261 -5.74906e-19)
(1.03594 0.988328 4.44653e-20)
(0.972482 1.06362 0)
(0.821201 0.965117 -1.42011e-19)
(1.05904 0.878184 2.91513e-20)
(0.36881 0.402368 -1.01424e-18)
(0.69714 0.322078 -2.24611e-20)
(0.664277 0.240294 4.65801e-19)
(0.590711 0.377541 3.43893e-20)
(0.5077 0.351163 -1.38455e-18)
(0.666087 0.340961 0)
(0.702783 0.42637 7.90473e-19)
(0.710657 0.422567 0)
(0.625446 0.369523 0)
(0.600819 0.294406 0)
(0.795813 0.616133 4.76922e-19)
(1.21868 0.275391 -6.1931e-19)
(1.21242 0.414446 0)
(1.22427 0.356263 0)
(0.747993 0.188915 6.93074e-19)
(0.842234 0.535771 -4.33027e-19)
(0.74336 0.50974 7.68321e-19)
(0.945546 0.422897 -8.54377e-19)
(1.01978 0.0146245 8.88152e-19)
(1.01789 0.0141937 -8.93227e-19)
(1.01594 0.0155987 0)
(1.03583 -0.0060877 0)
(1.02952 -0.00864592 -8.39076e-19)
(1.02748 -0.0121658 8.30909e-19)
(1.02511 0.00965111 0)
(1.02367 0.0133159 0)
(1.01141 0.00404203 0)
(1.01429 0.00896295 0)
(1.01511 0.00392513 0)
(1.01421 0.00273041 0)
(0.0583751 1.33367 0)
(0.0625909 1.29456 0)
(0.144018 1.35843 -5.87432e-20)
(0.267275 1.46476 5.35333e-20)
(0.159155 1.43547 1.08357e-19)
(0.189287 1.44369 -1.79083e-19)
(0.16153 1.38294 0)
(0.130538 1.59055 -1.38189e-19)
(0.114949 1.56131 0)
(0.354027 2.02113 -1.33044e-19)
(0.348415 2.35355 6.91863e-19)
(0.18752 1.44485 1.20474e-19)
(0.261108 1.37874 -5.61596e-21)
(0.199842 1.36374 4.55781e-21)
(0.273558 1.32002 -1.69276e-19)
(0.242025 1.57479 0)
(0.261756 1.61569 1.63785e-19)
(0.0340048 2.27305 -5.79621e-20)
(0.0421257 2.67823 0)
(0.0657475 2.41077 1.97899e-19)
(0.0591938 2.43244 0)
(0.0707479 2.67917 -2.74692e-19)
(0.0501284 2.70718 0)
(0.02651 1.40496 -4.14696e-20)
(0.0344738 1.45655 0)
(0.0327359 1.37301 0)
(0.0240226 1.37665 4.67915e-20)
(-0.00253698 2.66045 -2.00262e-20)
(0.0283465 2.70627 2.74612e-19)
(0.00976077 2.72917 1.93301e-21)
(-0.00410375 1.83733 5.20692e-20)
(-0.0114021 1.67999 2.2645e-20)
(0.0157972 1.29252 0)
(-0.00125122 1.21475 0)
(0.0475417 1.56557 6.26385e-20)
(0.0292353 1.43868 5.94063e-20)
(0.0364467 1.50507 -7.37856e-20)
(0.039778 1.59066 0)
(-0.0393922 2.28266 -4.23326e-20)
(-0.0432734 2.5523 1.89577e-20)
(-0.0216854 2.4518 -1.55239e-20)
(-0.0199319 1.85272 -6.30389e-20)
(-0.0351196 2.50266 -2.27451e-20)
(-0.027648 2.44827 1.04528e-19)
(1.01984 0.0207071 -8.8376e-19)
(1.0161 0.0260925 8.86711e-19)
(1.01526 0.0162545 0)
(1.01133 0.0668989 1.24533e-18)
(0.991923 0.0558995 -1.39208e-18)
(0.95336 0.0423686 1.55562e-18)
(1.01488 0.102736 -1.66323e-19)
(1.04202 -0.00613253 0)
(1.05012 -0.001973 8.03118e-19)
(1.03839 -0.0101253 -8.04224e-19)
(1.06967 0.040306 -4.80259e-20)
(1.06333 0.0220889 4.13158e-19)
(1.06434 0.0530794 0)
(1.0512 0.0480832 -1.48184e-19)
(1.0333 0.0399316 0)
(1.02615 0.0362779 0)
(1.02781 0.0126582 0)
(1.02437 0.0155164 0)
(1.03961 0.0303724 3.04947e-19)
(1.03942 0.0257884 -6.7215e-19)
(1.0502 0.0321004 -3.23753e-19)
(1.04773 0.0320967 -3.56108e-19)
(1.06862 0.0616362 6.99952e-19)
(1.09368 0.0490818 0)
(1.10151 0.0915938 0)
(-0.0458032 2.27631 -4.17931e-20)
(-0.00931777 2.07823 -9.82147e-21)
(-0.0102079 2.05154 0)
(-0.0456942 2.45737 4.20808e-20)
(-0.0235691 2.41816 1.78853e-20)
(-0.0605305 2.45602 -1.443e-20)
(-0.0280307 2.62147 7.67994e-20)
(-0.0386326 2.56209 -5.84145e-21)
(-0.0308454 2.51811 2.35518e-20)
(-0.0242919 2.61415 -3.68897e-20)
(-0.0284675 2.61543 4.57962e-20)
(0.0360192 1.53593 4.02227e-22)
(0.0178051 1.67419 6.38068e-20)
(0.367783 1.42275 -5.75441e-20)
(0.365981 1.36696 1.03488e-19)
(0.646583 1.41292 -1.67823e-19)
(0.514734 1.47732 -1.06349e-19)
(0.567614 1.44962 0)
(0.592263 2.42466 2.24429e-19)
(0.659219 2.41661 3.55063e-19)
(0.411227 2.51889 8.35662e-20)
(0.405087 2.54617 -6.9813e-19)
(0.51335 2.49086 6.68738e-19)
(0.551921 2.46273 0)
(0.489157 2.51882 -5.95605e-19)
(0.249318 2.59511 1.26541e-18)
(0.354148 2.56795 -8.265e-20)
(0.285227 2.65688 -1.72294e-18)
(0.942904 2.37823 7.89894e-19)
(0.834895 2.38157 0)
(1.01092 0.000381717 2.89351e-20)
(1.0152 -0.00554393 -2.34952e-20)
(1.01764 -0.00366412 -4.29383e-19)
(1.01489 -0.000990129 4.31292e-19)
(1.01229 0.00101035 0)
(0.634363 1.2817 0)
(0.652055 1.17746 0)
(0.75494 1.0853 0)
(0.644071 1.14303 0)
(1.18544 2.62288 5.90132e-20)
(1.07345 2.36677 0)
(0.837148 2.18941 4.54907e-21)
(0.825241 2.44824 0)
(0.921652 2.5391 -4.88874e-19)
(0.95695 2.4953 3.2544e-19)
(0.816939 0.154239 0)
(0.785043 0.128992 1.77894e-19)
(0.92529 0.137408 1.0354e-18)
(0.84005 0.133532 -3.87991e-19)
(0.81863 0.0758467 -1.18802e-18)
(1.07609 0.22244 -1.02985e-18)
(0.996962 0.280635 -1.52336e-20)
(0.922139 0.277776 9.66624e-19)
(1.00546 0.210955 8.11235e-19)
(0.953112 0.179787 -1.38158e-18)
(0.918109 0.180576 1.7258e-19)
(0.951293 0.240039 -3.72104e-19)
(0.930136 0.202664 0)
(0.994325 0.177272 6.82643e-19)
(1.04513 0.176044 0)
(1.04466 0.202214 0)
(1.10401 0.110159 3.28602e-19)
(1.07021 0.163942 -1.38269e-20)
(1.07021 0.224254 -1.79029e-19)
(1.10023 0.191189 0)
(1.02295 0.0436808 6.8625e-19)
(1.04096 0.0563616 8.57481e-19)
(1.03407 0.0418387 -6.80514e-19)
(1.04153 0.0625312 -5.74779e-19)
(1.0181 0.0700664 -8.76086e-19)
(0.989035 0.149886 0)
(0.998737 0.0992672 0)
(0.969297 0.0641454 -5.53698e-19)
(0.920733 0.0862057 2.17281e-19)
(1.03713 0.0985823 7.94796e-19)
(1.06761 0.113282 -9.46623e-19)
(1.07038 0.144868 8.44043e-19)
(1.02969 0.136263 0)
(1.07332 0.103809 0)
(1.05545 0.08545 -3.84563e-19)
(1.04416 0.0919535 -6.51419e-19)
(0.577757 1.07629 1.69736e-19)
(0.612065 1.41418 -7.19813e-20)
(1.15608 2.74196 -2.68695e-19)
(1.22301 3.08263 1.00819e-20)
(1.24827 2.72265 -2.23243e-19)
(1.27857 2.70661 1.03091e-20)
(1.20639 2.34572 -1.00562e-20)
(1.2101 2.9864 -1.28251e-19)
(1.22934 2.95143 2.89635e-19)
(1.21414 3.23618 -1.29117e-19)
(1.37525 2.96769 1.78588e-19)
(1.36593 2.88571 0)
(0.539385 0.847157 -5.44523e-20)
(0.13846 1.25779 6.06001e-19)
(0.53161 0.459362 6.54603e-19)
(0.367958 0.210601 7.24055e-19)
(0.529485 0.38524 7.8139e-19)
(0.544298 0.478237 -1.26992e-18)
(0.546338 0.481612 1.03704e-18)
(0.497349 0.40697 -3.94835e-19)
(0.422032 0.34187 8.95601e-19)
(0.751121 0.247913 -3.96866e-19)
(0.715757 0.28259 0)
(0.703358 0.207911 9.69659e-21)
(0.728788 0.514027 4.16514e-19)
(0.699588 0.483169 -1.51736e-18)
(0.614534 0.472493 1.60968e-20)
(0.625344 0.458009 0)
(0.670034 0.732901 4.39882e-19)
(0.821484 0.771525 4.62727e-19)
(0.746321 0.853622 -5.39651e-19)
(0.862977 0.803948 -1.86958e-19)
(0.896124 0.848503 -4.95755e-20)
(0.904291 0.849502 5.07625e-20)
(0.836325 0.643698 -7.91261e-19)
(0.913876 0.70035 1.73652e-19)
(0.970529 0.714936 0)
(0.961315 0.691425 -2.40766e-19)
(1.02291 0.319374 2.49283e-19)
(1.13536 0.289007 3.56587e-19)
(1.06282 0.258476 4.21164e-19)
(1.00879 0.354679 -4.9834e-19)
(1.04836 0.420735 0)
(1.10032 0.40511 0)
(0.910234 0.350005 5.70386e-21)
(0.84144 0.282966 0)
(0.871261 0.275794 4.52824e-19)
(0.905299 0.283532 -5.15192e-21)
(0.937493 0.425914 2.38473e-18)
(0.893554 0.487146 6.16498e-19)
(0.898256 0.450613 -6.49024e-19)
(0.81906 0.433671 6.9541e-19)
(0.801605 0.429749 4.14535e-19)
(0.7722 0.416353 -4.074e-19)
(1.02736 -0.000416027 7.16014e-19)
(1.02001 -0.000171673 0)
(1.01849 0.000774962 4.66348e-19)
(1.02159 -0.00199725 -1.0566e-18)
(1.02224 0.00414683 5.13322e-19)
(1.02042 0.0110292 -1.07528e-18)
(1.0214 0.0104251 0)
(1.02075 0.0106791 -2.2389e-19)
(1.016 0.00758441 5.61708e-19)
(1.01677 0.010319 -2.80184e-19)
(1.01746 0.00966492 2.06422e-19)
(0.030732 1.31006 0)
(0.036717 1.34316 0)
(0.0404166 1.31046 0)
(0.0471285 1.27519 0)
(0.070289 1.37063 8.90737e-20)
(0.0774079 1.34356 -1.89678e-20)
(0.109594 1.49894 -4.94079e-20)
(0.0930642 1.34631 3.11969e-20)
(0.0332743 1.44219 -8.68937e-20)
(0.0375302 1.43435 6.7383e-20)
(0.0618186 1.35286 -5.81805e-21)
(0.0546125 1.3538 -4.71934e-20)
(0.0485617 1.33159 -7.26947e-21)
(0.0400001 1.35347 -9.95249e-21)
(0.10907 2.38137 -2.18777e-19)
(0.0965871 2.42579 0)
(0.173986 2.0547 1.36459e-19)
(0.111807 1.70875 6.99137e-20)
(0.232744 2.04811 -1.10864e-19)
(0.207719 2.44263 0)
(0.267826 2.3937 -6.80749e-19)
(0.306772 2.39158 4.82666e-19)
(0.234663 2.00707 -3.09603e-19)
(0.155617 2.17058 1.98315e-19)
(0.146363 2.28603 0)
(0.0150235 1.8792 -9.37085e-20)
(-0.0068103 2.41016 -1.59821e-19)
(-0.000137256 2.16192 0)
(0.00985315 2.46889 -1.40356e-20)
(0.0241339 2.31408 5.81699e-20)
(0.0199757 1.3915 7.24577e-21)
(0.0132389 1.37863 -1.18793e-19)
(0.0126917 1.3831 3.14199e-20)
(0.0182362 1.38145 4.03725e-20)
(0.0246612 1.40918 0)
(0.0111204 1.36513 0)
(0.0128342 1.28017 4.8217e-20)
(0.00803019 1.35887 -1.67318e-20)
(0.00846187 1.35319 0)
(0.0172032 1.27592 3.13409e-20)
(0.00472835 1.1846 -6.54279e-20)
(1.03984 0.0108789 0)
(1.04621 0.00719998 -7.5348e-20)
(1.03868 0.0204577 -5.42154e-19)
(1.04782 0.019289 0)
(1.0512 0.0193515 0)
(1.03647 0.0108374 -6.63673e-21)
(1.03098 0.0106332 8.69142e-19)
(1.03199 0.0157991 1.05517e-18)
(1.02598 0.0197636 0)
(1.02326 0.0202126 0)
(1.03524 0.0240965 5.4113e-19)
(1.02633 0.0254596 0)
(1.02464 0.0254996 0)
(-0.0379042 2.02595 0)
(0.00767087 1.67113 -4.81524e-21)
(-0.0200813 1.77682 -5.91674e-21)
(0.0138013 1.35962 0)
(-0.0101483 1.56233 3.71652e-20)
(0.0156934 1.46858 -2.29699e-20)
(0.0445574 1.39813 0)
(0.392776 1.67202 0)
(0.367997 1.29652 -1.85926e-19)
(0.306021 1.34197 0)
(0.424534 1.29555 1.49673e-19)
(0.467271 1.45214 0)
(0.448605 1.39793 -3.88028e-20)
(1.03482 2.68626 -1.6931e-20)
(0.964524 2.40877 -9.92698e-19)
(0.914228 2.1885 1.14019e-18)
(0.848315 2.37359 2.59589e-19)
(0.846247 2.49694 0)
(0.916354 2.49326 0)
(0.926302 2.37142 0)
(0.904476 2.35798 -1.00916e-18)
(0.689776 2.46559 -4.52901e-19)
(0.801041 2.45617 -1.1003e-19)
(0.811468 2.42975 8.3938e-20)
(0.693984 2.39089 0)
(0.797985 2.38602 0)
(0.756953 2.39875 -3.87294e-19)
(0.768786 2.48713 0)
(0.611486 1.09882 0)
(0.482066 0.928197 -5.64088e-19)
(0.54881 0.963424 -3.5797e-20)
(0.51834 1.05493 0)
(0.518927 1.00486 8.47026e-19)
(0.769977 0.880129 -1.55965e-19)
(0.77994 1.01504 0)
(0.753557 0.973411 2.33644e-19)
(0.640777 1.035 0)
(0.645005 0.943868 0)
(1.16402 2.76295 -2.71848e-19)
(1.14156 2.82671 -1.26952e-19)
(0.931099 2.34749 1.50808e-19)
(0.899015 2.32538 -9.94517e-20)
(1.12881 2.73531 0)
(1.08227 2.70532 1.19706e-19)
(1.0887 2.48657 -3.51263e-19)
(0.982769 2.23372 -3.03296e-20)
(0.495854 1.35571 0)
(0.508755 1.07463 -1.49704e-19)
(0.561438 1.16352 0)
(0.8609 0.216207 0)
(0.792032 0.167935 0)
(0.740228 0.138311 0)
(0.855859 0.220422 -7.12752e-19)
(0.767886 0.209435 4.16815e-19)
(0.935332 0.0731778 -4.488e-19)
(0.949815 0.118808 0)
(0.928834 0.128806 1.9244e-19)
(0.869686 0.105751 7.71144e-19)
(0.844218 0.0638064 -4.82802e-19)
(1.1616 3.36163 -6.91868e-19)
(1.20917 3.28095 0)
(1.16011 3.38956 -1.43503e-18)
(0.647791 3.55038 1.21754e-18)
(0.87262 3.11775 3.7204e-20)
(0.512947 0.853782 6.47878e-19)
(0.430458 0.846937 0)
(0.339919 0.494499 -1.63219e-19)
(0.449378 0.682168 9.3247e-19)
(0.53507 0.465232 -2.26135e-19)
(0.509133 0.517539 2.56595e-19)
(0.661155 0.531846 5.60717e-19)
(0.69076 0.553756 0)
(0.642375 0.614464 0)
(0.600662 0.552037 0)
(0.974847 0.600524 1.26946e-19)
(0.895367 0.536246 -5.99903e-19)
(0.91905 0.56999 4.65569e-19)
(0.955725 0.505114 -4.65885e-19)
(1.05901 0.480027 0)
(1.06616 0.57038 -1.21208e-19)
(0.843035 0.385407 -9.47232e-19)
(0.846722 0.371372 -1.17364e-18)
(0.794907 0.380549 7.38204e-19)
(0.791218 0.350577 -7.52409e-19)
(0.84118 0.306331 -5.88889e-19)
(0.794061 0.305743 7.23535e-19)
(1.02671 0.00545667 -5.50599e-19)
(1.02645 0.00569878 1.12404e-18)
(1.02908 -0.000330499 6.95025e-19)
(1.03329 0.000634633 -8.37153e-19)
(1.03326 0.00814898 0)
(1.03006 0.0087137 -1.36014e-18)
(0.0639955 1.64167 3.82776e-20)
(0.0455538 1.56734 0)
(0.0865739 1.69255 2.52091e-19)
(0.0955503 1.67391 -2.25941e-19)
(0.0900452 1.51917 9.27256e-20)
(0.0884033 1.49903 0)
(0.00459892 1.68688 0)
(-0.00461267 1.49163 -1.95505e-20)
(-0.00854924 1.42831 1.75895e-20)
(-0.00521526 1.55727 5.55391e-22)
(-0.00770415 1.89197 -3.36844e-20)
(-0.0252937 1.94597 1.84137e-20)
(0.495245 1.37312 -3.73573e-19)
(0.489935 1.37657 4.08366e-19)
(0.446121 1.29151 -1.05237e-19)
(0.434974 1.2935 1.31419e-20)
(0.625756 1.29713 0)
(0.544395 1.38428 3.04673e-20)
(0.560711 1.39225 -2.96569e-20)
(0.456379 1.27765 1.015e-19)
(0.509872 1.23239 0)
(0.562413 1.19771 0)
(0.656694 2.42488 6.65277e-19)
(0.670438 2.46182 1.38002e-18)
(0.715967 2.4737 -9.504e-19)
(0.615237 2.44973 -2.18846e-19)
(0.562268 2.54156 3.13366e-19)
(0.511712 2.51494 -8.30106e-19)
(0.975502 2.37807 -6.38939e-19)
(1.01163 2.39235 0)
(0.921089 2.16692 -7.35898e-19)
(1.05243 2.6843 0)
(1.05452 2.67091 0)
(0.612996 2.27753 -1.50593e-19)
(1.04209 3.16453 9.99185e-20)
(0.913263 3.03471 -1.78167e-21)
(0.282226 0.916793 0)
(0.323845 0.77863 -3.40016e-19)
(0.481444 0.733488 -3.48752e-19)
(0.392295 2.02478 0)
(0.467825 2.78643 -2.58986e-20)
(0.4247 2.55039 0)
(0.684259 0.680383 -9.34281e-19)
(0.76636 0.680498 1.28154e-18)
(0.786497 0.622767 -1.27008e-18)
(0.667439 0.642727 -1.20482e-19)
(0.724081 0.596814 -5.01007e-19)
(1.00413 2.76818 -7.59744e-20)
(1.04091 2.82504 -2.1768e-19)
(0.6415 2.15562 7.22932e-19)
(0.596823 1.71901 -5.11861e-19)
(0.69968 1.91023 -4.66791e-19)
(0.989523 2.45125 -1.1997e-19)
(0.994192 2.44584 3.53428e-19)
(0.661499 1.85141 3.19403e-20)
(0.451365 1.3368 1.72068e-19)
)
;

boundaryField
{
    wall-4
    {
        type            noSlip;
    }
    velocity-inlet-5
    {
        type            fixedValue;
        value           uniform (1 0 0);
    }
    velocity-inlet-6
    {
        type            fixedValue;
        value           uniform (0 3 0);
    }
    pressure-outlet-7
    {
        type            zeroGradient;
    }
    wall-8
    {
        type            noSlip;
    }
    frontAndBackPlanes
    {
        type            empty;
    }
}


// ************************************************************************* //
