/*--------------------------------*- C++ -*----------------------------------*\
  =========                 |
  \\      /  F ield         | OpenFOAM: The Open Source CFD Toolbox
   \\    /   O peration     | Website:  https://openfoam.org
    \\  /    A nd           | Version:  9
     \\/     M anipulation  |
\*---------------------------------------------------------------------------*/
FoamFile
{
    format      ascii;
    class       volScalarField;
    location    "48";
    object      p;
}
// * * * * * * * * * * * * * * * * * * * * * * * * * * * * * * * * * * * * * //

dimensions      [0 2 -2 0 0 0 0];

internalField   nonuniform List<scalar> 
918
(
0.562937
1.20479
0.00247526
0.562321
-0.00870377
1.17182
-0.494182
0.704692
0.543101
-0.0921214
-0.02414
0.540098
1.03244
0.799025
-1.11655
-0.00107061
0.661822
-0.373464
0.542166
-0.0384496
0.736191
0.549671
0.5527
0.543284
0.609485
0.776193
0.913501
0.0197561
0.00774217
0.00358551
-0.0134274
-0.0342917
-0.0258489
1.05546
1.10655
1.12925
0.511181
0.340027
-0.361549
-0.429319
-0.421602
-0.537926
0.699319
0.698221
-0.186927
0.707497
0.712738
0.530227
0.542467
0.543375
0.544431
0.543394
0.544785
0.417984
-0.0948474
-0.127537
-0.0714201
-0.0630095
0.072245
-0.0250246
-0.0272735
-0.0236772
-0.0223558
0.461147
0.53531
0.532367
0.54532
0.554491
1.14434
1.11624
1.14239
1.05609
1.07258
1.01042
0.98309
0.819227
0.841094
0.785423
0.773201
-1.55228
-2.51056
-0.522926
-0.270233
-0.0148258
0.00285062
0.0117113
0.656271
0.656254
0.663497
0.670897
1.09031
-0.372391
-0.473431
0.542299
0.541099
0.549462
0.550158
0.546174
0.545266
-0.0326279
-0.0295561
-0.0354233
-0.0371707
-0.0348561
0.725208
0.723464
0.54382
0.540834
0.561226
0.582148
0.574044
0.288219
0.612602
0.626084
0.604207
0.768254
0.761883
0.77076
0.886957
0.851035
0.950594
0.97366
0.0168264
0.000238119
-0.0101997
-0.0146337
-0.0156895
0.507069
0.499707
0.526455
0.514564
0.517033
0.255865
0.121182
0.425721
0.450971
-0.277361
-0.338686
-0.420936
-0.448095
-0.559026
0.614378
0.690484
0.688017
-0.20184
-0.128447
-0.258745
-0.0551375
-0.116212
0.520571
0.527524
0.522555
0.538023
0.532508
0.534463
0.546722
0.5438
0.545356
0.480438
0.604028
0.34445
0.310113
-0.23411
-0.1452
-0.235647
-0.050841
-0.0462054
0.0860007
0.111236
0.0590088
0.0474264
-0.0395456
-0.0312387
-0.0355061
-0.0210401
-0.0246061
0.454047
0.44308
0.473692
0.48113
0.524829
0.526083
0.529663
0.527993
0.933781
0.956102
0.96379
0.937589
-3.50759
-6.30344
0.0571252
0.194642
-0.00528221
-0.0108183
0.00440831
-0.00894501
-0.00225177
-0.00380009
0.00970863
0.00709277
0.0112345
0.0124568
0.648235
0.648358
1.00984
1.01257
0.989011
0.940343
0.530442
0.532538
0.538068
0.533935
-0.0237302
-0.0268332
-0.0247244
0.714653
0.720522
0.718634
0.250526
0.162472
0.338366
0.366858
0.640913
0.629452
0.639374
0.664568
0.701947
0.981078
0.999384
0.997552
1.00602
1.05004
1.06644
1.03184
0.486838
0.496648
0.491691
0.529619
0.527356
0.528279
0.523895
0.525326
0.523178
-0.0303358
-0.412949
0.500437
0.518664
0.500432
0.505539
0.69371
0.770815
0.672393
0.681436
0.679047
0.0126496
-0.0451687
0.266326
0.232935
0.394646
0.430446
0.409728
0.905026
0.865521
0.915606
0.888805
0.850158
0.87562
-0.364609
-1.87291
-0.987363
0.546856
0.359758
0.447575
0.0290431
0.011108
0.0167187
1.00572
1.08173
0.659907
0.830953
0.836475
0.738657
0.768488
0.824782
0.752127
0.785533
0.81887
0.798541
0.57135
0.513323
0.525763
0.84021
0.89638
0.134051
0.0754137
0.0312212
0.129915
0.186037
0.160717
1.04332
0.951641
1.02309
0.540586
0.541293
0.00102597
-0.00807097
0.545483
0.545533
-0.0123555
0.000932989
0.430634
-0.825444
0.116968
0.534012
0.524096
0.541115
-0.0751835
0.371628
-0.0250188
0.0677473
0.010838
0.53764
0.472012
0.431864
0.00444683
-0.0107085
-0.0328232
-0.204198
0.538258
0.536565
0.540584
0.541548
0.542215
-0.0124619
-0.00721728
-0.00627164
-0.0322443
-0.0280497
-0.0376545
0.505392
0.523636
-0.159133
0.540725
0.542849
0.542673
0.535891
0.541541
0.539778
-0.00310083
-0.0110295
-0.0119513
0.233018
0.360645
0.673386
0.763036
0.644075
0.417799
0.180702
0.574609
0.638938
0.54342
0.698685
0.686257
0.70207
0.182299
0.0325207
0.190703
0.132655
0.531871
0.530558
0.522354
0.519375
0.535982
0.534088
0.53865
0.535644
0.538595
0.539987
-0.0332094
-0.057067
-0.07071
-0.136646
0.327142
0.588212
0.268222
0.298503
0.15987
-0.020084
-0.0213267
-0.0250846
-0.0314366
0.0217501
-0.00424954
0.0625922
0.062628
0.0344686
0.00767717
0.0136311
0.00128856
0.00574676
0.530799
0.529194
0.535585
0.544651
0.481485
0.485226
0.4507
0.471106
0.456564
0.396499
0.431127
0.406552
-0.00178536
0.00821546
-0.00057972
-0.00580637
-0.000218896
-0.0207125
-0.0181315
-0.0164618
-0.0126025
-0.0180731
-0.0265228
-0.0264618
-0.163761
-0.278492
0.996165
0.924661
0.137563
0.527437
0.533867
0.530646
0.5355
0.538623
0.539453
0.537185
0.533744
0.524072
0.5257
0.522368
0.523102
-0.0923154
-0.23064
-0.0603385
-0.132057
0.150127
0.632072
0.372497
0.309776
0.304539
0.531054
0.936568
0.725248
0.704243
0.720739
-0.332498
0.0614231
-0.266761
0.352092
0.175576
0.671253
0.720582
0.74259
0.690481
0.643152
-0.0995994
0.563568
-0.0565642
-0.00691444
0.192941
0.0742613
0.703393
0.670271
0.674253
0.691761
0.709298
0.676526
0.659845
0.654383
0.687745
0.69142
0.502793
0.264263
0.21714
0.178282
0.653828
0.539385
0.593929
0.507897
0.52696
0.529644
0.528254
0.510155
0.517653
0.513241
0.519505
0.52288
0.531699
0.53211
0.52745
0.529608
-0.0375306
-0.0404758
-0.0155256
-0.125314
-0.115599
-0.176745
-0.0517313
0.0863844
0.049079
0.244736
0.350481
0.0627496
-0.0495705
-0.0215096
0.016055
0.18897
0.214751
0.0912942
0.179346
0.167777
0.151497
0.252465
0.25737
-0.00609231
-0.0103854
-0.0129498
-0.0150303
0.0387101
0.108939
0.119065
0.0156984
0.0102725
-0.0168143
-0.0166831
-0.00331979
-0.0080755
-0.00447186
0.0301773
-0.040139
-0.00720083
0.0085184
0.0177425
0.0143214
0.00944079
0.523236
0.52548
0.525152
0.532756
0.550829
0.567008
0.523843
0.503397
0.494312
0.497299
0.470677
0.480834
0.476581
0.49007
0.510977
0.520185
0.517664
0.520384
0.503117
0.504788
0.491549
0.495188
0.470506
0.451662
0.440057
-0.0318719
0.00503392
-0.000800564
-0.0299405
-0.00144809
-0.0137662
0.00690013
0.0237288
0.00936615
0.0057646
-0.00301294
-0.0140177
-0.0122013
-0.0664347
0.0179666
-0.174993
-0.212011
-0.281756
0.897665
1.02075
0.820741
0.594506
0.610879
0.85325
0.939229
0.557366
0.745383
0.769481
0.589345
0.855106
0.532252
0.531863
0.529464
0.528941
0.530162
-0.000901844
0.102119
0.10586
0.164982
0.281857
0.394939
0.319348
0.194606
0.326511
0.330004
0.624585
0.637697
0.593128
0.616627
0.61705
0.435803
0.511554
0.56429
0.521054
0.571918
0.592839
0.549392
0.581361
0.531428
0.486445
0.48285
0.432648
0.452936
0.429686
0.411906
0.522314
0.499672
0.510192
0.500516
0.52005
0.544354
0.541154
0.573642
0.584668
0.504442
0.460712
0.470246
0.500539
0.461005
0.475841
0.492029
0.234977
0.135399
0.219187
-0.0692513
0.0070581
-0.00728833
-0.0547885
-0.00671446
0.278522
-0.416076
-0.391524
-1.0222
0.505629
0.967475
0.653496
0.626801
0.706225
0.687645
0.692708
0.711292
0.715483
0.644595
0.661337
0.663824
0.625878
0.649415
0.670633
0.667688
0.5334
0.398836
0.394491
0.346479
0.21734
0.254864
0.455342
0.377541
0.302558
0.303781
0.469589
0.356537
0.425805
0.462167
0.393483
0.347225
0.551608
0.61659
0.607671
0.582009
0.498986
0.513038
0.537226
0.572792
0.598989
0.63024
0.519101
0.524936
0.526185
0.523687
0.52093
0.523917
0.524094
0.526625
0.527357
0.530313
0.529335
-0.0258707
-0.0144957
-0.0279166
-0.0353322
-0.00474882
-0.0089753
0.0347688
0.0212459
0.00621324
0.0124519
-0.0141921
-0.018379
-0.0133136
-0.00416782
0.112696
0.125319
0.109183
0.0699082
0.258119
0.388877
0.460989
0.33774
0.230812
0.254663
0.276302
0.00621853
0.0332737
0.0205497
0.0590808
0.0506079
-0.0139195
-0.0175913
-0.0169111
-0.00852915
0.00120651
-0.0181563
-0.0223919
-0.0127979
-0.0174133
-0.0182639
-0.0232368
0.505611
0.49917
0.500771
0.49474
0.493472
0.507564
0.511787
0.513732
0.519116
0.521288
0.511597
0.517187
0.520881
0.0063481
-0.0190825
-0.0221792
-0.0085811
-0.0142322
-0.013727
-0.0137786
0.126849
0.0554843
0.0599509
0.0143122
-0.114665
-0.0570229
0.493839
0.493459
0.487387
0.723328
0.573278
0.493333
0.590293
0.695444
0.277864
0.476596
0.309962
0.893036
0.78719
0.933687
0.54689
0.24771
0.407108
0.455991
0.264788
0.33758
0.335014
0.22211
0.25434
0.288858
0.390661
0.26933
0.244817
0.00214537
0.190897
0.30599
0.287251
0.414745
0.477014
0.266596
0.188194
0.142273
0.61345
0.631529
0.646979
0.620536
0.641505
0.58304
0.571226
0.589488
0.5994
0.594995
-0.749487
-0.456088
-1.40157
-0.718442
-0.265935
0.536668
0.50245
0.775824
0.656603
0.711065
0.69527
0.652549
0.619782
0.637779
0.665962
0.360019
0.471414
0.44628
0.451286
0.352491
0.283941
0.585316
0.57951
0.614432
0.637856
0.606803
0.638089
0.516879
0.516554
0.516124
0.512424
0.510688
0.512982
0.0736432
0.042998
0.0775741
0.0586433
0.0359994
0.0245544
0.0124149
0.00226755
-0.00550463
-0.00673292
0.00848038
0.0130496
0.171472
0.111649
0.032591
0.0622915
0.00240451
-0.0653672
-0.0830873
0.0181205
0.112695
0.103223
0.408949
0.660711
0.480635
0.647974
0.489129
0.544843
0.477009
0.46919
0.495883
0.384479
0.463917
0.243048
-0.264286
-0.172395
0.793085
0.808242
0.591052
0.41011
0.178563
0.362409
0.555065
0.48797
0.525435
0.594705
0.58426
0.0239296
0.0864503
0.359373
0.586641
0.241467
0.232913
0.226984
0.405989
0.32708
)
;

boundaryField
{
    wall-4
    {
        type            zeroGradient;
    }
    velocity-inlet-5
    {
        type            zeroGradient;
    }
    velocity-inlet-6
    {
        type            zeroGradient;
    }
    pressure-outlet-7
    {
        type            fixedValue;
        value           uniform 0;
    }
    wall-8
    {
        type            zeroGradient;
    }
    frontAndBackPlanes
    {
        type            empty;
    }
}


// ************************************************************************* //
