/*--------------------------------*- C++ -*----------------------------------*\
  =========                 |
  \\      /  F ield         | OpenFOAM: The Open Source CFD Toolbox
   \\    /   O peration     | Website:  https://openfoam.org
    \\  /    A nd           | Version:  9
     \\/     M anipulation  |
\*---------------------------------------------------------------------------*/
FoamFile
{
    format      ascii;
    class       surfaceScalarField;
    location    "48";
    object      phi;
}
// * * * * * * * * * * * * * * * * * * * * * * * * * * * * * * * * * * * * * //

dimensions      [0 3 -1 0 0 0 0];

internalField   nonuniform List<scalar> 
1300
(
3.75095
5.62643
-3.24816
3.75095
-7.72647
5.62643
-4.34422
4.34422
-0.691265
0.691265
1.8764
1.87455
-2.82801
2.82801
-2.30702
2.30702
-2.54433
2.54433
-5.24648
5.24648
-5.069
5.069
4.66173
-4.66173
-6.29467
6.29467
-1.04406
1.04406
-3.7331
3.7331
3.1697
-3.1697
-2.17577
2.17577
-0.131106
0.131106
-0.553497
4.30445
3.19746
3.19746
-2.00747
2.00747
-4.86702
4.86702
6.21816
-6.21816
5.23983
-5.23983
-1.99167
-2.39976
1.79717
-11.5804
-5.92931
-5.92931
-8.44039
8.44039
-2.81396
2.81247
2.94503
-2.94503
-1.78267
1.78267
-4.28846
-0.0557593
-4.28846
4.33326
0.0109592
4.33326
-0.769341
0.0780756
-0.769341
3.92472
-3.92472
0.578837
0.112429
0.578837
3.06512
-3.06512
-1.8771
3.7535
1.87385
-1.87188
6.17633
-1.87908
3.75363
-5.99528
5.99528
-3.05073
0.222723
-3.05073
2.64326
0.18475
2.64326
-6.82143
6.82143
-2.34162
0.0346087
-2.34162
2.27107
0.0359457
2.27107
2.87523
-2.87523
-2.65105
0.106715
-2.65105
2.42929
0.115044
2.42929
0.353529
5.2729
-5.97996
8.79243
-5.2729
0.0264196
5.20841
0.0380743
5.20841
-5.10597
0.0369732
-5.10597
5.01166
0.0573379
5.01166
4.75065
-0.0889195
4.75065
-4.7777
0.11597
-4.7777
-3.40992
-4.05468
-6.4458
0.151125
-6.4458
-1.0949
0.0508375
-1.0949
0.976619
0.0674455
0.976619
-3.65915
3.65915
-4.1245
0.391408
-4.1245
3.12412
0.0455813
3.12412
1.8685
1.88245
5.61945
-5.61945
2.44975
-2.16898
-0.00678834
-2.16898
-2.20992
-3.02991
2.20992
-0.0341448
-0.36121
0.230104
-0.36121
3.15936
0.038099
3.15936
2.26748
0.161805
-2.26748
0.260011
3.25413
-3.25413
1.34433
0.663145
1.34433
-5.56491
5.56491
4.955
0.0566564
-4.955
0.0879807
6.15667
0.0614898
6.15667
-6.19953
-0.018632
-6.19953
2.57214
-4.9719
-2.57796
6.1116
0.183076
-6.1116
0.182291
2.91615
0.0288833
2.91615
-2.92013
2.92013
-2.98394
0.0389078
-2.98394
-2.18224
0.399569
-2.18224
1.48297
0.299701
1.48297
-4.17849
-0.109963
-4.17849
-4.2456
0.1211
4.2456
0.0876542
1.11473
-1.11473
-0.866319
0.096978
-0.866319
-4.04297
-0.135528
4.04297
-0.118252
-3.82221
-0.102503
-3.82221
-3.02406
0.0401204
3.02406
0.041055
3.11275
0.0466113
-3.11275
0.0476299
-1.87083
3.75328
-1.88012
3.75398
-5.61494
-0.380336
-5.61494
6.30354
-0.308256
6.30354
3.40961
0.323488
-3.40961
0.358877
2.50397
0.139284
2.50397
-6.78361
-0.0378167
-6.78361
6.80816
0.0132651
6.80816
2.40696
0.097013
-2.40696
0.0653375
2.22824
0.0428268
2.22824
2.89314
-0.0179081
2.89314
-2.871
-0.00422464
-2.871
2.79753
-2.79753
2.72844
0.0690942
-2.72844
0.0773951
-11.1331
11.1144
-0.0352933
-11.0978
5.17311
5.17311
4.18031
0.570347
4.18031
-4.9936
0.2159
-4.9936
2.6944
-5.27236
3.04157
-6.45149
4.68197
-16.2624
4.33141
-8.38609
6.68189
-6.68189
6.5737
0.108194
-6.5737
0.127901
-1.1867
0.0917992
-1.1867
-3.05363
-0.60552
-3.05363
4.3061
-0.646945
4.3061
-3.02854
3.02854
-3.07771
0.0491712
3.07771
0.046412
2.19308
0.0351657
-2.19308
0.0240942
0.469501
0.109336
-0.469501
0.108292
3.45752
-0.203386
3.45752
-3.0622
-0.191928
-3.0622
-1.27008
0.083376
1.27008
0.0742481
-5.81506
0.250151
-5.81506
-11.1907
0.092932
-11.1526
-6.1066
-6.1066
2.33379
11.1262
-2.89042
0.0194141
2.89042
0.0257306
2.97551
0.0530278
-2.97551
0.0553786
-2.86142
0.0638806
2.86142
0.058714
-2.55781
0.375572
-2.55781
-1.07561
1.07561
-1.2464
0.170791
1.2464
0.236569
1.37863
-0.263905
1.37863
0.926411
0.0502081
-0.926411
0.0600925
-3.73213
-0.0900781
-3.73213
6.53588
-0.232348
6.53588
-2.95201
-0.110192
2.95201
-0.0588734
-0.0333069
11.1478
-5.13981
0.0338354
5.13981
-11.2092
11.2431
-3.2295
0.671694
3.2295
0.950803
5.28545
0.279458
-5.28545
0.291848
6.76208
0.0460798
-6.76208
0.0801893
-2.56118
-0.492455
-2.56118
-5.03284
-0.582106
5.03284
-0.726739
-11.4754
-0.20361
11.679
-11.418
6.01867
0.137999
-6.01867
11.3811
-1.0244
-0.090329
1.0244
0.0512101
1.70274
-0.324112
1.70274
3.64201
-0.184497
-3.64201
-0.0901214
-6.68866
-0.0949485
6.68866
-0.152777
-2.11794
-0.443235
2.11794
-0.4152
-4.26705
4.30515
1.90928
-2.42611
-2.54579
-5.45602
1.8519
1.90138
4.30165
-10.1994
-6.06293
-10.0172
7.26312
-6.97128
-9.25765
9.16873
7.79754
-7.90004
-5.78512
5.83154
6.4825
-6.44145
1.87875
1.87476
7.94565
-7.72293
-15.6426
15.2623
7.48744
-7.45283
15.7728
-15.8106
-17.8608
17.9069
-5.703
5.80972
-6.73282
6.7286
-6.96097
6.9021
-2.87583
-3.57566
13.1575
-13.0064
8.51199
-8.51877
-8.55936
8.95077
3.38252
0.922635
3.42913
-1.88224
3.76099
-1.87139
3.78066
2.67306
-5.54888
2.5993
-5.14509
4.27494
4.23704
-4.2408
-1.21523
-5.92237
5.95125
-5.81768
5.8764
9.02572
-9.08148
-1.88512
3.75987
-1.86886
3.77024
-3.42506
-2.36006
3.37948
0.92217
8.10482
5.05273
-8.28789
-1.72926
-7.98615
7.80165
-8.20114
8.00921
-0.436697
5.81867
-5.38197
4.43033
-1.55939
7.37805
5.70374
5.91964
5.86599
-5.58653
1.10529
-6.48726
-6.39928
-2.39598
2.49296
2.32372
-2.21129
6.06207
1.73547
5.94381
-5.70853
-2.19151
-5.79861
3.8209
2.01063
3.87007
4.07766
2.40484
4.11778
3.03065
-3.03577
0.00512155
-3.05645
6.0871
0.724107
-5.41652
-4.49435
4.96051
2.98514
5.14526
-5.5061
-2.21683
-5.14722
-9.55559
-6.08701
-10.1377
10.099
5.16322
9.79078
-11.9688
11.8161
4.78213
2.7053
4.81808
-4.91715
-2.53568
-4.85181
11.6241
-2.60785
-9.01629
-10.3227
-7.53816
10.3094
5.46341
10.9746
6.93224
11.0548
4.42449
7.19964
-9.8879
2.34975
-3.86283
-1.84017
-3.78544
3.67345
2.13626
3.7885
-4.21509
-2.51773
-4.19568
-4.29109
-2.66989
4.30899
2.4196
-4.4078
-3.79334
4.51799
2.38411
4.03933
-10.1023
4.34676
-7.92242
-9.21724
-3.78918
-9.08934
3.46278
2.63487
-6.09764
-2.08611
8.44642
-4.20938
7.23119
-5.17433
-3.34444
-5.15024
-6.81613
-1.74323
-6.69503
-8.89731
8.40486
-9.19408
8.54713
12.5949
-5.67797
-6.91689
-3.96828
-2.47316
3.92065
-0.491526
-3.7108
3.71592
0.0501937
3.83085
4.75349
4.26196
-3.88578
-1.9319
-3.8304
3.82857
2.04783
3.89245
6.78003
2.24568
6.79099
-6.52348
-2.55799
-6.63345
9.06462
-8.66505
2.88458
-2.80121
5.36442
2.6448
-5.16103
-2.82512
6.2066
-3.20272
-3.00388
-12.2009
10.5426
1.65829
-4.82288
-0.392556
-0.26145
-5.49361
-3.76404
5.37764
0.541998
11.0846
7.3206
-5.51177
5.76192
6.16723
6.22389
-0.175391
5.82502
-5.15332
5.30456
-2.53207
-2.77249
5.40083
-5.53636
-1.23262
-5.45113
4.21851
0.407455
1.62545
-1.39535
-1.86331
-0.532668
-1.80322
1.39463
0.929083
1.50397
0.921734
1.57123
-2.93521
0.561984
2.37323
-2.01348
-1.6493
-3.72301
-1.12958
4.85259
5.68578
2.11587
-5.59566
-0.202945
2.60857
-2.54113
-0.731952
-2.99106
2.20896
-2.94092
-3.65966
-1.98367
5.64333
-3.37026
-0.460142
3.31724
0.552837
-3.82647
-2.0959
3.78756
0.330219
-3.12645
6.19051
-3.06405
-5.05835
2.52812
3.55898
4.53876
-4.78966
2.44698
2.34268
-1.23069
4.24161
0.903652
4.38089
-6.83726
4.62043
5.77051
3.18025
-6.094
0.946783
-5.89048
8.50405
-7.31933
-1.18472
4.11973
4.38431
7.10936
5.4855
-5.70056
12.8099
-1.16598
-6.15335
7.05645
-3.8762
4.80463
-8.68083
-10.2901
4.13678
-9.17359
10.9402
-1.7666
-3.623
-8.34584
12.7966
-1.2126
-11.584
8.57818
-4.2077
-4.29283
8.50054
-6.81555
6.82851
-1.97671
-4.8518
-10.1098
-5.70083
10.2047
1.61133
-9.85895
12.2087
-2.65931
4.09701
0.721067
4.13984
3.26686
-5.43245
2.16559
3.54869
-5.5254
2.08135
-7.5138
-6.72669
12.0663
-5.33966
-10.5159
-9.51832
-0.997554
2.54024
9.66846
-9.47248
7.44463
2.02786
3.30565
0.586803
-3.37474
-0.410696
0.236427
4.537
-4.77342
4.02492
4.18673
3.31621
1.22079
3.84311
2.10814
-3.86884
-0.326833
-4.15869
1.4888
-1.73909
-3.68404
5.17284
-4.06542
0.381384
-2.74203
-3.50321
6.24524
-4.5822
3.0376
3.15291
5.08543
-4.91211
1.4089
-2.39595
-2.51616
2.65652
-4.3956
1.98138
3.19146
4.36549
0.572149
5.85542
6.21093
-8.49028
0.567866
11.2637
-9.5344
2.45976
8.59508
-9.90439
0.386065
-8.70327
1.01143
-5.22081
-5.08621
5.1312
-6.87443
-3.54963
6.17217
0.618826
-6.25982
-0.435205
-6.04567
-2.85164
-6.48891
-3.05069
-6.14338
-8.75125
-1.65596
-7.0953
6.7489
-6.69168
-3.44601
7.41842
1.12871
-7.42094
7.33061
-7.50066
7.17655
0.0951186
3.6208
4.35708
1.88392
-2.39012
4.27404
-5.11874
7.36443
-8.68767
3.56893
4.14965
-6.70764
-4.53802
5.0362
4.02842
5.3359
8.92152
-10.4078
1.48631
-10.7122
12.0454
-1.33318
-16.4883
5.77604
-7.56673
2.52851
0.356071
2.62031
0.578496
2.49642
-3.07491
-2.22271
-2.14847
-2.40516
-3.46092
5.86608
1.12655
-3.48681
2.36026
-3.56151
4.68806
-0.155549
-3.33126
5.29533
-2.79891
5.6514
-3.71706
1.93434
3.40768
5.73642
-2.32874
4.38802
-1.74322
1.89803
-4.22676
-1.5629
-2.96368
5.09995
-3.28156
3.66295
-0.326522
3.98947
-4.08243
0.879717
-0.766223
3.42051
3.68052
4.29771
-3.07693
2.93293
-4.67615
-1.29383
-4.104
-0.91254
-0.278764
-3.75708
4.03584
6.02087
-6.29963
-5.24648
9.55174
-4.30526
7.71094
-5.39275
-2.31819
-4.26643
-4.39862
3.89086
1.93416
9.6451
0.211717
-5.60447
-4.94161
-3.9908
3.16175
2.14281
-1.85145
3.50974
2.1129
-0.487449
0.490987
1.01298
1.81512
-1.32414
0.274072
1.54105
-1.12127
1.85902
0.749551
-1.90923
0.106008
-1.30296
3.51193
1.07027
-1.99935
0.67521
0.994452
-3.52652
4.97887
-2.63984
-2.33904
5.97332
1.13049
-3.77032
4.32064
-3.91319
2.34882
-3.4784
-1.4215
-5.33469
-3.59922
-2.53453
4.8948
-3.33155
5.44742
1.23514
-5.24447
6.47961
-3.67146
1.68779
-3.08097
3.83052
-1.01661
-2.06436
2.86591
2.77742
-3.00316
0.0121079
-0.137252
2.37321
-2.51046
-0.567707
-2.58118
-4.57265
4.90287
-2.10623
4.55321
2.1678
-1.91579
6.46899
1.81005
-3.72583
-3.2483
-3.70845
-1.38315
3.15561
-0.595017
-4.25679
-5.44682
4.15978
0.221112
-6.9526
7.76611
-0.813514
-3.96746
-0.652969
4.7727
-6.00953
0.484129
-3.92818
3.83793
4.74158
4.96269
-11.3813
-0.202694
-6.21808
1.13959
-7.35768
5.52391
-3.57115
7.70793
-10.3675
6.92147
-9.23877
6.52321
-0.834461
6.2426
-4.07701
2.77368
-8.47452
-6.86318
5.44681
-2.74151
6.16788
-3.09972
9.2676
-5.75903
5.21981
4.04778
-0.98459
-4.16565
-5.22917
4.24458
-0.00935798
4.13048
4.9774
-2.86927
4.65057
2.26277
-4.65872
-2.13284
-6.49555
1.83683
-3.34264
-1.91841
3.75524
3.16702
3.75382
1.23908
-3.34312
7.14919
-8.14674
-1.80953
-3.27668
5.21158
-0.966999
3.35367
-6.63035
-1.86714
4.84225
-0.796089
-4.04616
0.835721
-4.38535
1.68109
-6.06643
5.19335
-5.62855
2.2194
-9.78613
-5.20154
-5.15033
-2.25797
-5.2427
-7.60005
5.34208
-1.82401
5.5066
-8.55431
7.75822
-3.49109
8.83317
-5.43853
-1.05038
5.85373
1.32283
10.156
0.196677
-4.7347
-1.91125
3.92801
-2.01677
1.2505
-3.5604
0.367611
2.47326
3.50006
-6.69178
-0.0158639
-4.75056
-3.9248
7.95322
5.62694
11.6478
1.23998
9.13993
-1.18672
10.3799
4.14919
4.38575
-3.03203
4.51834
1.00381
4.57274
-0.894489
2.82883
1.72582
1.77666
0.764466
2.30892
1.3716
3.18864
0.113724
-2.03474
4.62898
-8.61978
-0.975492
-8.04943
1.11929
5.71757
-4.59828
3.05487
-0.912059
1.0381
-0.00234107
-1.45295
1.45529
-2.77483
-1.9404
-0.399343
-1.65814
2.33335
1.85379
-1.93401
-0.840822
0.364537
-3.96375
3.11387
-3.10176
-0.324345
6.15527
-2.79199
0.281527
-1.1042
-2.29966
-2.83232
2.72632
6.17649
0.292502
3.11244
5.19537
3.09947
0.230203
3.90925
-5.67585
-3.60455
-5.87854
-0.354635
4.41807
1.73107
7.93738
5.77885
4.81185
-1.8185
-9.96524
6.5665
-2.04816
5.23332
-1.18716
-4.87928
5.02694
2.33748
-5.64577
0.0172167
-4.86206
-6.91023
-0.519859
8.27808
-9.63614
8.58576
5.73411
1.36118
-4.41581
-0.734523
4.24502
0.140736
10.5206
-1.12575
-6.77529
7.90104
-4.59183
3.61634
0.794591
2.71515
2.24988
1.33782
-5.43747
-10.0358
-1.99875
-1.52777
-4.33779
0.514803
-2.36859
6.24027
-2.62393
3.92208
5.27711
6.31521
-2.14385
-4.15578
6.44912
-2.52704
3.78817
)
;

boundaryField
{
    wall-4
    {
        type            calculated;
        value           uniform 0;
    }
    velocity-inlet-5
    {
        type            calculated;
        value           uniform -3.75095;
    }
    velocity-inlet-6
    {
        type            calculated;
        value           uniform -5.62643;
    }
    pressure-outlet-7
    {
        type            calculated;
        value           nonuniform List<scalar> 8(3.24816 7.72647 4.39143 9.78325 7.4646 5.1501 5.73596 9.01338);
    }
    wall-8
    {
        type            calculated;
        value           uniform 0;
    }
    frontAndBackPlanes
    {
        type            empty;
        value           nonuniform List<scalar> 0();
    }
}


// ************************************************************************* //
