/*--------------------------------*- C++ -*----------------------------------*\
  =========                 |
  \\      /  F ield         | OpenFOAM: The Open Source CFD Toolbox
   \\    /   O peration     | Website:  https://openfoam.org
    \\  /    A nd           | Version:  9
     \\/     M anipulation  |
\*---------------------------------------------------------------------------*/
FoamFile
{
    format      ascii;
    class       volVectorField;
    location    "48";
    object      U;
}
// * * * * * * * * * * * * * * * * * * * * * * * * * * * * * * * * * * * * * //

dimensions      [0 1 -1 0 0 0 0];

internalField   nonuniform List<vector> 
918
(
(0.985163 -0.0005037 0)
(0.00501349 2.96625 0)
(0.00869725 0.865918 0)
(0.979703 0.00214759 0)
(-0.0143752 2.05951 3.10797e-20)
(-0.00704466 2.94879 -2.50946e-18)
(0.812413 1.15039 4.35228e-19)
(0.223186 0.109858 -1.56659e-20)
(0.999907 -0.000282697 0)
(0.0622182 0.786769 0)
(0.0136034 0.59362 0)
(0.734708 -0.0172765 0)
(0.0110903 2.93039 0)
(0.00252378 2.79499 0)
(-0.0176039 3.15324 7.71512e-19)
(-0.0185932 1.9099 -8.23359e-22)
(0.295903 0.0339249 1.03441e-18)
(0.187721 1.15951 3.08266e-19)
(0.962754 0.00501763 0)
(-0.00935138 0.525585 0)
(0.0322045 0.146863 -7.39729e-19)
(1.00198 -0.00497889 0)
(1.00022 -0.00978985 0)
(0.975729 -0.00643999 0)
(0.583123 -0.0381487 0)
(0.0153288 2.64074 0)
(-0.0149075 2.91002 9.26233e-19)
(0.00983293 0.927618 0)
(-0.00651596 1.17062 0)
(0.0100595 0.906414 0)
(-0.0163783 2.6086 0)
(-0.0035629 2.11199 -2.48192e-20)
(-0.00948849 1.88843 0)
(-0.0206143 2.9876 -9.03227e-23)
(-0.0166892 3.00529 1.95037e-18)
(0.00210038 3.00018 0)
(0.870972 -0.00957659 0)
(0.404998 0.937942 1.84192e-19)
(0.792717 1.16701 -4.90817e-19)
(0.941464 1.00814 5.32513e-19)
(0.664464 1.25872 -1.00408e-19)
(0.665595 1.24067 5.80659e-19)
(0.259707 0.179719 1.52834e-20)
(0.236732 0.0833392 0)
(1.14146 0.553249 0)
(0.227691 0.171361 6.97422e-20)
(0.194753 0.108621 -7.23698e-20)
(0.919825 -0.00744373 0)
(1.00026 0.000156617 0)
(0.99991 0.000336289 0)
(1.00363 -0.00776778 0)
(1.00096 -0.00092082 0)
(1.00017 3.22208e-05 0)
(0.0761235 1.81681 -7.99567e-19)
(0.0298201 0.977951 0)
(0.0951563 0.857084 0)
(0.0132795 0.931617 0)
(0.0363634 0.717425 0)
(0.0110014 2.00351 0)
(0.000792721 0.831076 0)
(0.00850025 0.605905 0)
(0.000408444 0.819671 0)
(0.0122327 0.582867 0)
(0.839792 -0.01586 0)
(0.844459 0.0301027 0)
(0.767615 -0.00622572 0)
(0.812821 0.039804 0)
(0.704834 -0.0196314 0)
(0.0146883 3.0004 9.30791e-19)
(0.0114987 3.008 0)
(0.00611792 3.00277 0)
(0.0135323 2.99734 1.05688e-23)
(0.00797734 2.95848 -1.38338e-18)
(0.0144905 2.98207 0)
(0.0108422 2.9036 0)
(0.0245081 2.93089 2.12964e-24)
(0.00461449 2.82484 0)
(0.0302369 2.9164 0)
(-0.00517797 2.74501 0)
(0.307291 3.54875 0)
(-0.131753 3.62993 0)
(0.139062 3.24356 -7.17972e-19)
(-0.0129215 2.97996 0)
(-0.0186232 1.99068 0)
(-0.0076315 2.16842 8.12074e-22)
(-0.0106797 1.91703 -1.04812e-20)
(0.396804 0.144153 -3.58336e-19)
(0.310109 0.0193803 -3.46888e-19)
(0.36881 0.15276 -1.07703e-18)
(0.274369 0.0413089 -7.07415e-19)
(0.225419 0.969013 0)
(0.26899 1.30539 -3.62521e-19)
(0.362099 1.23677 6.04188e-19)
(0.987464 0.00855696 0)
(0.941911 0.00583475 0)
(1.0003 0.000578591 0)
(1.00286 0.00930652 0)
(1.00302 0.00846272 -2.77396e-18)
(0.991912 0.00969916 2.0948e-18)
(-0.00441499 0.804801 0)
(-0.00424877 0.531942 0)
(-0.0321621 0.987948 0)
(-0.0188324 0.830783 0)
(0.00185394 0.518829 0)
(0.0555411 0.149541 2.28525e-19)
(0.119075 0.12407 0)
(0.993544 -0.00837822 0)
(0.954435 -0.00652392 0)
(0.7583 0.04666 0)
(0.693717 0.0572528 0)
(0.664261 -0.0316557 0)
(0.965426 -0.00797269 0)
(0.608539 0.0765875 0)
(0.44442 -0.0110805 1.54837e-18)
(-0.0372356 2.86234 6.92364e-19)
(0.0415762 2.90944 0)
(0.0537582 2.88571 0)
(-0.00446197 2.6999 0)
(-0.0132628 2.98524 8.77955e-19)
(-0.0179 2.89514 0)
(-0.01536 2.9881 -2.72028e-18)
(-0.0133489 2.9252 9.30775e-19)
(-0.00974697 1.34248 0)
(0.0101267 1.37316 0)
(-0.00886092 2.13414 3.30797e-22)
(-0.00640284 2.09279 0)
(-0.0203972 1.90113 0)
(0.93824 -0.00755468 0)
(0.856849 -0.00984734 0)
(0.863341 0.00604225 0)
(0.949367 -0.00793185 0)
(0.883811 -0.00814471 0)
(0.516946 1.13134 -2.3246e-19)
(0.566152 1.18243 0)
(0.369205 0.88282 3.42609e-20)
(0.311413 0.74173 0)
(0.902171 1.04745 -1.46153e-19)
(1.01671 0.855152 2.93163e-19)
(0.354121 1.35478 0)
(0.52028 1.31894 0)
(0.541761 1.26753 0)
(0.117988 0.183896 -3.03208e-19)
(0.290927 0.171326 0)
(0.259127 0.0804319 1.99813e-19)
(0.988876 0.910774 0)
(1.06192 0.766073 0)
(1.08608 0.707268 -2.27294e-19)
(1.1213 0.612607 0)
(1.1731 0.399553 5.59205e-20)
(0.957617 -0.00878382 0)
(0.962434 -0.0100869 0)
(0.901605 -0.00794993 0)
(0.984182 -0.00916532 0)
(0.974669 -0.00936644 0)
(0.93709 -0.00636658 0)
(1.00019 0.00233579 0)
(1.0009 0.00141054 0)
(0.99991 0.000852322 0)
(0.0349452 2.06861 4.41952e-19)
(0.120062 1.75967 0)
(0.0168673 2.18325 6.85919e-19)
(0.0488519 1.87062 -5.77211e-19)
(0.102313 1.16759 -2.52252e-19)
(0.0449199 1.0538 0)
(0.143102 1.00923 0)
(0.00806335 0.890693 0)
(0.0143677 0.667254 0)
(-0.00115209 2.23595 -1.08582e-21)
(0.0200613 2.00769 0)
(-0.00145157 2.23858 -4.63573e-20)
(0.0120302 2.01352 7.94684e-20)
(0.00432712 0.862129 0)
(0.00246048 0.843671 0)
(0.00774646 0.632332 0)
(0.0063226 0.807979 0)
(0.00620486 0.568329 0)
(0.93674 0.00943235 0)
(0.847759 -0.0150578 0)
(0.926395 0.000105721 0)
(0.841205 -0.0129457 0)
(0.812013 0.000133077 0)
(0.900514 0.0207404 0)
(0.875915 0.025327 0)
(0.788874 -0.00261742 0)
(0.00578453 3.06492 -8.7015e-21)
(0.01669 3.05775 0)
(0.0147175 2.96905 0)
(0.00868882 2.87621 0)
(0.924033 3.9639 0)
(1.23835 3.29702 9.29709e-19)
(0.0698422 3.07203 0)
(-0.028562 2.90384 0)
(-0.00389923 1.39056 0)
(-0.0188684 1.69745 0)
(-0.00813308 1.52874 0)
(-0.0276086 2.56678 -9.34743e-21)
(-0.0101354 2.25395 0)
(-0.0171885 2.40303 0)
(0.00429112 1.94227 1.75995e-21)
(-0.00394169 2.23747 7.41747e-21)
(-0.0056714 2.20071 1.05354e-20)
(-0.00353046 1.93045 0)
(0.435687 0.126218 5.4382e-19)
(0.353156 0.0108711 -5.33847e-19)
(0.260037 1.5808 0)
(0.273671 0.742928 -3.1688e-19)
(0.177081 1.66678 -1.05989e-18)
(0.226738 1.20891 1.06237e-18)
(0.902148 0.00643746 0)
(0.967464 0.011084 0)
(0.97459 0.0107868 0)
(0.923388 0.00644507 0)
(-0.00241979 0.806454 0)
(-0.000406456 0.80329 0)
(0.00669456 0.543946 0)
(0.19452 0.163144 6.43745e-19)
(0.162016 0.149039 -7.61e-19)
(0.161036 0.114072 0)
(1.09086 0.0841211 2.8193e-20)
(1.07316 0.0382148 0)
(1.00753 0.0389839 0)
(0.903168 -0.00650795 0)
(0.477915 0.107455 0)
(0.529004 0.0876293 -2.47584e-18)
(0.395053 0.00662064 9.27099e-19)
(0.00894941 2.98123 7.4065e-19)
(-0.0323011 2.86595 4.78038e-20)
(0.00360719 3.05024 -1.84054e-20)
(0.0201943 3.04337 6.54413e-19)
(-0.0150149 2.99658 3.05494e-20)
(-0.0129344 2.94946 -1.22925e-22)
(-0.0172542 3.01195 -5.64833e-19)
(0.0148331 3.02389 4.08704e-19)
(0.00735337 3.03678 -6.47674e-19)
(0.933192 -0.00150608 0)
(0.938937 -0.00344701 0)
(0.845048 -0.00938366 0)
(0.95664 0.0118257 0)
(0.942878 0.0131068 0)
(0.881694 0.00598049 0)
(0.917584 0.0167613 0)
(0.926256 0.014824 0)
(0.838565 0.00309947 0)
(0.719781 1.40916 3.70748e-20)
(0.75311 1.51798 0)
(0.186474 0.324407 7.19929e-20)
(0.222956 0.664531 5.81239e-19)
(0.261877 0.722156 -3.38501e-19)
(0.265941 0.532557 6.72881e-19)
(0.339886 0.799513 1.59428e-18)
(0.136912 0.225544 3.75008e-19)
(0.341598 0.165618 7.50263e-19)
(0.317924 0.171093 1.95838e-19)
(0.26671 0.0609335 3.72585e-19)
(1.1623 0.457086 4.53621e-20)
(1.17987 0.253017 4.04009e-20)
(0.0091925 2.23037 2.67929e-19)
(0.0432327 1.93761 0)
(0.967071 0.0286622 0)
(0.940871 0.0134232 0)
(0.865923 -0.0184297 0)
(0.0111903 3.07419 0)
(0.0196669 2.94414 1.20136e-18)
(0.0164359 2.95627 0)
(0.0064135 2.85058 -1.19153e-18)
(0.00636746 3.0915 2.91763e-19)
(0.00719705 3.08262 0)
(0.786113 1.82011 -1.59138e-19)
(1.24626 2.49692 4.05174e-19)
(0.768163 1.95957 -1.23425e-18)
(0.019833 2.98074 -6.40686e-19)
(0.0356227 3.00025 0)
(-0.0342655 2.87723 0)
(-0.00317555 2.21848 -1.315e-20)
(-0.00298184 2.24089 -2.12551e-20)
(0.00609779 1.9756 -7.73576e-21)
(0.276998 1.38853 1.03072e-18)
(0.23237 0.532101 -7.06994e-19)
(0.063411 1.99348 7.7695e-19)
(0.135874 1.88127 -9.23423e-19)
(0.179959 1.50117 9.30003e-20)
(0.00378769 3.11797 -1.76722e-18)
(0.016565 3.1181 1.89081e-18)
(-0.00914727 2.98073 8.09885e-19)
(-0.00334286 2.97724 -7.67794e-19)
(-0.0213878 2.88137 -8.24845e-19)
(0.00866804 3.09871 -2.16971e-18)
(0.00188593 3.10689 2.11845e-18)
(0.277144 0.689766 0)
(0.243152 0.679565 -1.20109e-18)
(0.0966321 0.225274 5.32869e-19)
(0.353571 0.925278 1.11333e-18)
(0.192103 0.270331 -1.71651e-18)
(1.1744 0.172044 6.87824e-20)
(1.18045 0.306885 0)
(1.16288 0.120608 -1.38566e-20)
(0.000527082 2.24731 -1.73408e-21)
(0.00392047 2.23977 0)
(0.0283111 1.97347 0)
(0.340132 1.29719 -3.70703e-19)
(0.371353 1.13666 -8.0265e-19)
(0.206244 0.369684 1.42958e-18)
(1.00587 -0.0108501 0)
(1.00766 -0.00764532 5.11877e-19)
(-0.00826275 1.32013 0)
(-0.0248414 1.30719 0)
(1.00222 0.00350571 1.80685e-21)
(1.00367 0.00945532 1.04486e-18)
(-0.0187609 2.54994 1.18433e-20)
(-0.0238305 2.59225 0)
(0.035371 3.17783 4.27339e-19)
(0.39358 3.48838 0)
(1.16644 0.653092 -6.51262e-20)
(1.01289 0.013102 -2.14529e-21)
(1.02128 -0.0103502 0)
(1.0017 0.000119417 7.53143e-23)
(0.103067 1.35987 0)
(0.144158 2.57519 0)
(0.022571 1.30203 0)
(0.000164343 2.62351 4.55328e-20)
(-0.0201329 2.5806 1.82988e-20)
(1.00054 0.0291576 2.50321e-21)
(1.06226 0.00402382 0)
(1.09584 0.023851 0)
(-0.0206598 1.73612 0)
(-0.017215 2.58821 0)
(0.00263022 1.30275 0)
(0.298205 1.47245 -1.61058e-19)
(1.01128 -0.00964134 0)
(1.00939 -0.014921 0)
(1.00237 0.000736264 6.54124e-19)
(1.00547 -0.00481781 -7.68789e-19)
(1.00118 -0.000993526 0)
(-0.00311913 1.45772 0)
(-0.002397 1.36614 0)
(0.00112807 1.41367 0)
(0.00038406 1.29055 0)
(-0.00833002 1.26882 0)
(-0.000839213 1.25113 0)
(1.03475 -0.00626538 0)
(1.02021 0.0156671 -8.80877e-22)
(0.809464 1.26459 2.49242e-19)
(1.00224 0.000309025 -6.51618e-19)
(1.00407 0.0052485 7.62756e-19)
(1.00117 0.002065 0)
(1.01278 0.0103187 6.48459e-19)
(1.008 0.00829487 -7.85595e-19)
(1.00858 0.0146859 0)
(-0.0231136 2.61794 0)
(-0.0248566 2.59902 -1.29828e-20)
(-0.0225772 2.61228 9.172e-21)
(1.23123 0.262522 6.08154e-19)
(1.15792 0.0845892 0)
(0.042087 3.07762 -9.44846e-19)
(0.0650318 2.85503 -6.87487e-20)
(0.140796 3.19239 1.44646e-18)
(0.136101 3.22083 -2.09749e-19)
(0.134682 3.23259 0)
(0.0194316 3.13729 2.44463e-19)
(0.0755694 3.16032 9.32056e-19)
(0.0684397 3.18568 -4.60638e-19)
(0.0219209 3.12995 0)
(0.616252 0.278839 0)
(0.545266 0.322308 0)
(1.1358 0.688811 1.54654e-19)
(1.1313 0.809616 -1.46122e-19)
(1.19314 0.576999 0)
(1.22158 0.512644 0)
(1.01611 0.0133306 -1.20884e-18)
(1.01499 0.0142618 1.51737e-18)
(1.02527 -0.00989575 0)
(1.02333 -0.0119127 0)
(1.00643 0.00258695 0)
(1.01041 0.00370286 0)
(1.00457 0.00184579 0)
(1.0098 0.00620321 0)
(1.00783 0.00594989 0)
(1.00451 0.00467268 0)
(0.0916357 1.35715 0)
(0.0857151 1.32722 0)
(0.122594 1.39317 0)
(0.137454 1.40346 0)
(0.144707 2.59997 0)
(0.185202 2.66825 -4.35001e-19)
(0.100258 2.65586 0)
(0.0847975 2.65811 2.09446e-19)
(0.0384741 2.67896 -1.7197e-19)
(0.0184828 1.31454 0)
(0.0209005 1.24748 0)
(0.0184254 1.32715 0)
(0.0326565 1.26861 0)
(0.00240814 1.98122 -1.34856e-20)
(-0.0188239 2.60858 -1.06012e-21)
(-0.00795942 2.66484 3.544e-20)
(-0.0172755 2.68434 0)
(-0.0213947 2.61489 -4.13633e-20)
(-0.0212982 2.60985 -9.08351e-21)
(0.0117574 1.97996 1.2672e-20)
(-0.00567582 2.39501 1.42243e-21)
(-0.012445 2.41734 -4.01975e-20)
(1.01065 0.0370489 1.23335e-18)
(1.00594 0.0161867 -1.52344e-18)
(1.00183 0.0441778 -1.23436e-18)
(0.978666 0.0220872 1.57492e-18)
(1.06348 0.00781716 0)
(1.04878 -0.00855892 0)
(1.09291 0.0339347 0)
(1.07331 0.0121681 0)
(1.07109 -8.73088e-05 0)
(1.13839 0.0811524 0)
(1.10978 0.0432903 0)
(1.11288 0.0312776 0)
(-0.0218598 2.43981 2.75411e-22)
(-0.00668461 2.01339 0)
(-0.0116694 2.22103 0)
(-0.0188153 2.60857 -3.85267e-21)
(-0.0165224 2.6171 -1.3028e-22)
(0.00949003 1.56552 -2.22807e-20)
(0.00289502 1.495 2.26714e-20)
(-0.00525525 1.38513 0)
(-0.00771207 1.39112 0)
(-0.00880879 1.38523 0)
(0.00472411 1.30482 0)
(0.0142514 1.23741 0)
(0.378136 1.48865 2.60493e-19)
(0.41875 1.49123 1.40495e-19)
(0.597989 2.45043 -2.41084e-19)
(0.400688 2.54538 7.11392e-19)
(0.351132 2.06461 7.31998e-20)
(1.021 -0.00817853 0)
(1.01547 -0.0097824 0)
(1.01489 -0.0155105 0)
(1.00744 -0.00114429 0)
(1.00494 -0.00093302 0)
(1.00776 -0.00474036 0)
(1.00925 -0.00368576 0)
(1.01418 -0.00444673 0)
(1.02095 0.0161635 1.18372e-18)
(1.01789 0.0156504 -1.51589e-18)
(1.02133 0.0181443 -1.19258e-18)
(1.01915 0.0168619 1.49007e-18)
(0.772131 1.31499 0)
(0.708067 1.36596 2.33995e-19)
(0.885889 1.21305 8.70622e-20)
(0.931332 1.15955 -1.1582e-19)
(1.15785 2.60614 2.90656e-19)
(0.789988 0.11657 6.04201e-19)
(1.1608 0.106423 0)
(1.20791 0.190832 -4.88792e-19)
(1.1936 0.15261 -2.07171e-20)
(1.00515 0.15229 0)
(0.13311 2.95944 5.54315e-19)
(0.110108 2.86538 -1.19999e-18)
(0.0196422 2.37516 8.06089e-19)
(0.0903406 -0.0698389 -3.56741e-19)
(0.338587 3.41794 -2.07029e-19)
(0.193407 3.3111 0)
(0.236461 3.35252 2.69623e-19)
(0.242824 3.03264 -1.83394e-18)
(0.337206 3.1916 0)
(0.00564598 3.12112 4.74672e-20)
(0.0161592 3.12972 -5.58406e-19)
(0.0141371 3.12579 8.21858e-19)
(0.0347594 3.14001 0)
(0.0331825 3.15036 0)
(1.21517 2.60458 0)
(0.544299 0.822418 -5.36171e-19)
(1.05631 0.982352 2.63879e-21)
(0.990972 1.06643 0)
(0.844507 0.968023 -1.15419e-19)
(1.0816 0.882405 2.845e-20)
(0.353151 0.369088 -9.17997e-19)
(0.671974 0.312275 -2.02095e-20)
(0.617306 0.21944 4.2601e-19)
(0.56891 0.356515 3.14153e-20)
(0.476499 0.317745 -1.26413e-18)
(0.639651 0.322362 0)
(0.700418 0.415274 7.23567e-19)
(0.709152 0.418045 0)
(0.602768 0.348018 0)
(0.554299 0.264546 0)
(0.810137 0.614612 4.26901e-19)
(1.23124 0.284682 -5.1374e-19)
(1.22957 0.422633 0)
(1.23969 0.362621 0)
(0.725113 0.189399 6.32407e-19)
(0.856753 0.539706 -3.92383e-19)
(0.753671 0.510078 6.958e-19)
(0.951757 0.433189 -7.64453e-19)
(1.01952 0.014798 8.12971e-19)
(1.01774 0.014271 -8.1798e-19)
(1.01592 0.0154756 0)
(1.0362 -0.00580722 0)
(1.02972 -0.00849931 -7.66414e-19)
(1.02777 -0.0120408 7.58825e-19)
(1.02496 0.0101026 0)
(1.02354 0.0137691 0)
(1.01141 0.00409641 0)
(1.01425 0.00906249 0)
(1.01514 0.00403965 0)
(1.01424 0.00280743 0)
(0.0628889 1.34246 0)
(0.0650568 1.29733 0)
(0.143455 1.36799 -3.66791e-21)
(0.271476 1.46933 8.29167e-20)
(0.164589 1.4405 1.72349e-19)
(0.196578 1.44749 -2.82352e-19)
(0.164609 1.39292 0)
(0.130602 1.5951 -8.28677e-20)
(0.114521 1.56898 0)
(0.348756 2.01677 -1.06418e-19)
(0.344732 2.34926 6.2744e-19)
(0.187546 1.45279 7.22564e-20)
(0.261424 1.38302 1.92172e-20)
(0.196515 1.3724 -1.55554e-20)
(0.272118 1.32589 -1.09629e-19)
(0.239894 1.57792 0)
(0.262387 1.61723 1.17665e-19)
(0.0295273 2.26487 -3.61503e-20)
(0.0426581 2.66861 0)
(0.0645622 2.402 1.48955e-19)
(0.0607648 2.42234 0)
(0.0689301 2.67143 -2.31994e-19)
(0.0488125 2.69881 0)
(0.0274028 1.41771 1.0923e-20)
(0.0337422 1.4701 0)
(0.0284354 1.38736 0)
(0.0240203 1.39 -1.23243e-20)
(0.000568203 2.65128 -1.69365e-20)
(0.0291817 2.69689 1.95861e-19)
(0.0106538 2.72118 1.38273e-21)
(0.00358114 1.8283 1.25671e-20)
(-0.00300973 1.68055 4.61443e-21)
(0.0126891 1.29308 0)
(0.0179722 1.21957 0)
(0.0456128 1.57819 -1.52445e-21)
(0.0285063 1.45277 -7.7418e-21)
(0.035837 1.51734 9.55502e-21)
(0.0382781 1.60212 0)
(-0.0252478 2.27005 6.49496e-20)
(-0.0261492 2.55379 -2.68255e-20)
(-0.0131173 2.44816 -8.07395e-24)
(-0.000397492 1.84454 -1.52322e-20)
(-0.0226857 2.499 -4.91754e-21)
(-0.0187999 2.44129 2.79513e-20)
(1.01923 0.0209929 -8.0802e-19)
(1.01526 0.0267496 8.12927e-19)
(1.01429 0.0161893 0)
(1.01229 0.0708809 1.14168e-18)
(0.989797 0.059595 -1.28458e-18)
(0.947197 0.0443077 1.4388e-18)
(1.01361 0.10906 -1.52195e-19)
(1.04252 -0.00584981 0)
(1.05073 -0.00161959 7.31425e-19)
(1.03881 -0.00996215 -7.32951e-19)
(1.07058 0.0415585 -4.35583e-20)
(1.06418 0.0230585 3.75448e-19)
(1.06319 0.0551964 0)
(1.05324 0.0486221 -1.34954e-19)
(1.03242 0.04173 0)
(1.02574 0.0381969 0)
(1.02782 0.0130954 0)
(1.0241 0.0158581 0)
(1.03994 0.031816 2.77878e-19)
(1.03883 0.026467 -6.14003e-19)
(1.05073 0.0333696 -2.94654e-19)
(1.04806 0.033391 -3.24404e-19)
(1.07042 0.0629361 6.3383e-19)
(1.09554 0.0511194 0)
(1.10368 0.094563 0)
(-0.0194858 2.27583 4.20265e-20)
(-0.0166595 2.0168 -2.90436e-22)
(-0.0129955 2.02346 0)
(-0.0240648 2.45014 -4.18236e-20)
(-0.0187794 2.40733 3.67558e-23)
(-0.0298027 2.48034 3.79906e-21)
(-0.0189129 2.62359 7.5256e-21)
(-0.0198243 2.56569 -1.19693e-21)
(-0.0181332 2.5154 2.84083e-21)
(-0.0141331 2.61912 3.543e-22)
(-0.0190509 2.62025 9.88248e-22)
(0.00194805 1.48128 -3.19898e-22)
(0.0106137 1.61464 -1.77073e-20)
(0.363764 1.43469 -1.09043e-19)
(0.364913 1.37219 4.08158e-20)
(0.650239 1.41595 -2.26434e-19)
(0.518264 1.48331 -1.38063e-19)
(0.574922 1.44994 0)
(0.593731 2.4273 2.08751e-19)
(0.6614 2.42074 3.39479e-19)
(0.41095 2.51777 8.60948e-20)
(0.402744 2.54389 -6.23882e-19)
(0.511263 2.4873 6.18468e-19)
(0.553278 2.46422 0)
(0.489161 2.52024 -5.64815e-19)
(0.2478 2.59313 1.16924e-18)
(0.354069 2.56644 -7.95928e-20)
(0.283948 2.65463 -1.61159e-18)
(0.946139 2.3809 7.30888e-19)
(0.837645 2.38539 0)
(1.01104 0.000463273 2.65373e-20)
(1.01528 -0.00545295 -2.15344e-20)
(1.01763 -0.00358454 -3.93353e-19)
(1.01498 -0.000929494 3.95424e-19)
(1.01241 0.00114218 0)
(0.639341 1.2875 0)
(0.66459 1.18447 0)
(0.775664 1.09646 0)
(0.657221 1.14803 0)
(1.18721 2.62022 5.91051e-20)
(1.07603 2.36703 0)
(0.838686 2.17857 3.85236e-21)
(0.826087 2.4436 0)
(0.923272 2.53528 -4.25147e-19)
(0.958896 2.49099 2.82905e-19)
(0.81071 0.174958 0)
(0.768564 0.148969 1.64137e-19)
(0.917888 0.146188 9.56233e-19)
(0.833134 0.148238 -3.57778e-19)
(0.796076 0.0842245 -1.10345e-18)
(1.07888 0.235206 -9.14771e-19)
(0.993841 0.293323 -1.60948e-20)
(0.92872 0.29515 8.78097e-19)
(1.00617 0.224446 7.34127e-19)
(0.951367 0.191321 -1.26896e-18)
(0.915983 0.193294 1.58588e-19)
(0.954985 0.257169 -3.37812e-19)
(0.930712 0.21893 0)
(0.992588 0.185986 6.26179e-19)
(1.04634 0.188178 0)
(1.04217 0.214909 0)
(1.105 0.118011 2.94781e-19)
(1.07026 0.176052 -1.44351e-20)
(1.07339 0.236357 -1.60679e-19)
(1.10191 0.202619 0)
(1.02284 0.0458752 6.26893e-19)
(1.03993 0.0586407 7.8176e-19)
(1.0338 0.0443584 -6.21861e-19)
(1.04277 0.0653377 -5.23893e-19)
(1.01891 0.0731218 -8.02758e-19)
(0.988104 0.159069 0)
(0.998705 0.10546 0)
(0.965266 0.0672572 -5.12745e-19)
(0.911413 0.0905367 2.01404e-19)
(1.03894 0.104557 7.24599e-19)
(1.06875 0.120909 -8.50521e-19)
(1.07543 0.154012 7.59802e-19)
(1.0288 0.144125 0)
(1.07461 0.109325 0)
(1.05476 0.0904423 -3.47979e-19)
(1.04417 0.0952054 -5.92981e-19)
(0.583253 1.07348 1.41492e-19)
(0.611093 1.39978 -4.30053e-20)
(1.15735 2.73574 -2.29316e-19)
(1.22351 3.07742 1.96314e-21)
(1.24946 2.71899 -1.33216e-19)
(1.27886 2.70259 -2.89976e-20)
(1.20702 2.34357 -1.0559e-20)
(1.21097 2.98152 -9.45019e-20)
(1.23065 2.9469 2.36443e-19)
(1.21421 3.23078 -1.43107e-19)
(1.37457 2.96259 1.97849e-19)
(1.36445 2.88086 0)
(0.553092 0.830268 -5.04528e-20)
(0.127813 1.24329 5.78301e-19)
(0.54053 0.414487 5.94343e-19)
(0.379625 0.163013 6.53967e-19)
(0.509494 0.354663 7.14271e-19)
(0.544546 0.456222 -1.1507e-18)
(0.546886 0.456552 9.40426e-19)
(0.487674 0.368855 -3.59935e-19)
(0.395093 0.300605 8.15726e-19)
(0.731686 0.256329 -3.6297e-19)
(0.692158 0.279704 0)
(0.662961 0.198108 8.25752e-21)
(0.7349 0.505324 3.80571e-19)
(0.706984 0.47369 -1.38746e-18)
(0.614828 0.455693 1.39592e-20)
(0.620784 0.444329 0)
(0.683276 0.720923 4.04878e-19)
(0.84503 0.772381 4.09257e-19)
(0.768143 0.85493 -4.78489e-19)
(0.890723 0.808715 -1.6166e-19)
(0.920612 0.852261 -3.99213e-20)
(0.928092 0.852019 4.08829e-20)
(0.855795 0.648287 -7.07442e-19)
(0.93803 0.703828 1.50183e-19)
(0.995491 0.718768 0)
(0.986552 0.69594 -2.04618e-19)
(1.02338 0.333193 2.20302e-19)
(1.14389 0.299814 3.00792e-19)
(1.06564 0.27235 3.74237e-19)
(1.00982 0.364943 -4.44026e-19)
(1.05963 0.430698 0)
(1.11811 0.415739 0)
(0.918525 0.366802 4.99542e-21)
(0.841553 0.298816 0)
(0.881593 0.294412 4.13828e-19)
(0.909328 0.302035 -5.61831e-21)
(0.945772 0.43582 2.13058e-18)
(0.904898 0.493246 5.50379e-19)
(0.907803 0.458621 -5.85592e-19)
(0.827903 0.443086 6.27162e-19)
(0.810707 0.43569 3.76609e-19)
(0.779919 0.417044 -3.70263e-19)
(1.02727 -0.000378499 6.55295e-19)
(1.02 -6.86371e-05 0)
(1.0185 0.000866353 4.2722e-19)
(1.0217 -0.00170295 -9.67775e-19)
(1.0223 0.00431073 4.70079e-19)
(1.02037 0.0112744 -9.84521e-19)
(1.02131 0.0106603 0)
(1.02061 0.0109065 -2.05151e-19)
(1.01597 0.00771898 5.14672e-19)
(1.01669 0.0104829 -2.56797e-19)
(1.01739 0.009831 1.89128e-19)
(0.0279478 1.31826 0)
(0.0335404 1.36055 0)
(0.0438966 1.32032 0)
(0.0448198 1.27603 0)
(0.0705658 1.38305 -1.79992e-20)
(0.0777866 1.35317 1.25592e-20)
(0.110769 1.51785 -2.0676e-20)
(0.0935875 1.36458 1.09977e-21)
(0.0330662 1.45749 -1.25484e-20)
(0.0369835 1.45025 9.86665e-21)
(0.0620953 1.36763 -7.93667e-21)
(0.0542304 1.3695 2.19298e-20)
(0.0475254 1.34534 3.07731e-21)
(0.0384277 1.36883 -2.08917e-22)
(0.105895 2.37319 -1.64587e-19)
(0.0949211 2.41998 0)
(0.169428 2.04838 1.12363e-19)
(0.108599 1.70889 4.51521e-20)
(0.230594 2.044 -9.24075e-20)
(0.203407 2.43721 0)
(0.264318 2.38787 -6.10873e-19)
(0.303208 2.38575 4.32803e-19)
(0.229559 2.00429 -2.57028e-19)
(0.152953 2.16489 1.72095e-19)
(0.14237 2.27607 0)
(0.0165339 1.87651 -2.25579e-20)
(-0.0014633 2.39445 -6.95067e-20)
(0.00440169 2.14934 0)
(0.0101023 2.45735 -1.34596e-20)
(0.0258086 2.3023 2.27546e-20)
(0.0166806 1.39903 -2.85503e-21)
(0.0169179 1.38535 5.16425e-20)
(0.0176046 1.39004 -1.89486e-20)
(0.0210439 1.39033 -1.22494e-20)
(0.0267232 1.42157 0)
(0.0149676 1.37219 0)
(0.00878393 1.29165 -2.38834e-20)
(0.0127646 1.36272 6.12192e-21)
(0.0149334 1.3634 0)
(0.0115042 1.28303 -1.71842e-20)
(0.0199619 1.21611 3.62477e-20)
(1.04053 0.0115051 0)
(1.04652 0.00778384 -6.86307e-20)
(1.03854 0.0214524 -4.95013e-19)
(1.04816 0.0203219 0)
(1.05205 0.0201783 0)
(1.03626 0.0116574 -6.70506e-21)
(1.03096 0.0114984 7.95241e-19)
(1.03173 0.0163945 9.63886e-19)
(1.02569 0.0202851 0)
(1.02277 0.0206824 0)
(1.0351 0.025215 4.93532e-19)
(1.02594 0.0264342 0)
(1.02414 0.0264549 0)
(-0.0142365 2.01691 0)
(0.00894472 1.64527 -3.45666e-21)
(0.000796794 1.7519 -2.35414e-20)
(0.00551879 1.37365 0)
(-0.000862478 1.54434 -7.04753e-21)
(0.000364759 1.45117 6.03662e-21)
(0.0015603 1.38416 0)
(0.391876 1.66511 0)
(0.36835 1.30147 -7.7572e-20)
(0.302947 1.34331 0)
(0.422008 1.30281 1.69446e-20)
(0.467641 1.46017 0)
(0.448831 1.40573 1.94401e-20)
(1.03654 2.68422 -1.55072e-20)
(0.967213 2.41045 -9.18803e-19)
(0.919032 2.19471 1.04267e-18)
(0.851323 2.37747 2.43159e-19)
(0.848252 2.49521 0)
(0.918189 2.49106 0)
(0.929456 2.3746 0)
(0.908259 2.36261 -9.46977e-19)
(0.689436 2.46182 -3.97656e-19)
(0.801666 2.45162 -9.82483e-20)
(0.812444 2.42541 7.47795e-20)
(0.69587 2.39462 0)
(0.800614 2.39018 0)
(0.75911 2.40296 -3.69706e-19)
(0.769256 2.48547 0)
(0.625192 1.09867 0)
(0.486004 0.919045 -5.08914e-19)
(0.561369 0.955272 -3.23357e-20)
(0.524719 1.05192 0)
(0.525307 0.998775 7.63773e-19)
(0.790836 0.87942 -1.34378e-19)
(0.799726 1.01669 0)
(0.774049 0.979446 1.94147e-19)
(0.659143 1.03533 0)
(0.662681 0.939648 0)
(1.16564 2.75832 -2.33721e-19)
(1.14334 2.82155 -9.91297e-20)
(0.932519 2.33957 1.03506e-19)
(0.90019 2.31893 -8.43285e-20)
(1.13088 2.73187 0)
(1.08434 2.70179 1.01501e-19)
(1.09102 2.48571 -3.19184e-19)
(0.985733 2.23661 -3.07439e-20)
(0.498849 1.34934 0)
(0.513485 1.07546 -1.24784e-19)
(0.572968 1.17122 0)
(0.857836 0.235986 0)
(0.779389 0.189905 0)
(0.715042 0.150666 0)
(0.850678 0.236988 -6.51365e-19)
(0.753209 0.226416 3.79535e-19)
(0.927775 0.0769095 -4.15938e-19)
(0.942636 0.12369 0)
(0.923039 0.136798 1.78464e-19)
(0.860102 0.11155 7.16317e-19)
(0.826973 0.0689875 -4.48305e-19)
(1.16035 3.35598 -7.19637e-19)
(1.20875 3.2753 0)
(1.15816 3.38444 -1.48552e-18)
(0.645768 3.5454 1.2616e-18)
(0.86976 3.11329 6.94661e-20)
(0.521095 0.832464 6.09011e-19)
(0.43219 0.82989 0)
(0.326286 0.451863 -1.52862e-19)
(0.457527 0.667088 8.70033e-19)
(0.542636 0.4183 -2.06445e-19)
(0.511386 0.486794 2.38666e-19)
(0.665519 0.516625 5.13453e-19)
(0.698611 0.546512 0)
(0.651532 0.59331 0)
(0.608876 0.536324 0)
(0.997909 0.605618 9.70627e-20)
(0.911413 0.542273 -5.35386e-19)
(0.937749 0.575383 4.05855e-19)
(0.96937 0.513706 -4.13817e-19)
(1.07784 0.486727 0)
(1.08549 0.57636 -1.0255e-19)
(0.850558 0.396013 -8.59569e-19)
(0.853293 0.384848 -1.06178e-18)
(0.794222 0.38432 6.70431e-19)
(0.795579 0.356648 -6.85047e-19)
(0.84444 0.318275 -5.36146e-19)
(0.793747 0.31664 6.57872e-19)
(1.02667 0.0057853 -5.00746e-19)
(1.02639 0.00600875 1.0193e-18)
(1.0293 -1.54731e-05 6.3521e-19)
(1.03349 0.000894845 -7.65032e-19)
(1.03358 0.00879426 0)
(1.03004 0.00947109 -1.24516e-18)
(0.0613339 1.64382 2.45891e-20)
(0.0442265 1.57852 0)
(0.084247 1.69411 1.48109e-19)
(0.0945597 1.67575 -1.30829e-19)
(0.087598 1.53215 3.87741e-20)
(0.085209 1.51911 0)
(0.0126641 1.6757 0)
(-0.000892939 1.48177 4.64739e-22)
(0.00308423 1.4272 -4.17816e-22)
(-0.000865962 1.53983 6.58742e-21)
(0.00447243 1.87567 -4.71235e-22)
(-0.00593131 1.92988 3.98003e-21)
(0.498819 1.37061 -2.78522e-19)
(0.492139 1.37346 3.05712e-19)
(0.44864 1.29867 -3.53255e-20)
(0.437155 1.2935 8.06643e-21)
(0.63065 1.30338 0)
(0.54651 1.39098 9.72955e-20)
(0.561759 1.39838 -9.47416e-20)
(0.460139 1.28455 3.43357e-20)
(0.516121 1.23997 0)
(0.568519 1.20681 0)
(0.656275 2.4211 5.84276e-19)
(0.671016 2.46081 1.27357e-18)
(0.715998 2.47155 -8.77221e-19)
(0.612886 2.44614 -2.03644e-19)
(0.561075 2.53775 2.85891e-19)
(0.509805 2.51121 -7.6248e-19)
(0.97801 2.38044 -5.83424e-19)
(1.0138 2.39335 0)
(0.92535 2.17277 -6.74265e-19)
(1.05471 2.68118 0)
(1.05698 2.66797 0)
(0.608342 2.26759 -1.21059e-19)
(1.04154 3.15946 1.32879e-19)
(0.912412 3.02959 -3.63262e-20)
(0.276061 0.888147 0)
(0.310342 0.742034 -3.2081e-19)
(0.475136 0.699619 -3.23417e-19)
(0.38528 2.01353 0)
(0.465279 2.78277 -4.83568e-20)
(0.420344 2.54616 0)
(0.701674 0.669325 -8.57355e-19)
(0.784059 0.676872 1.16093e-18)
(0.804581 0.620045 -1.14824e-18)
(0.680328 0.63208 -1.10587e-19)
(0.735207 0.588306 -4.56281e-19)
(1.00431 2.76123 -1.01048e-19)
(1.04293 2.81907 -1.66191e-19)
(0.63768 2.13828 6.79115e-19)
(0.593859 1.70764 -4.84063e-19)
(0.69904 1.90157 -4.08094e-19)
(0.990188 2.44474 -1.13961e-19)
(0.995904 2.43715 2.99095e-19)
(0.657952 1.83738 2.8289e-20)
(0.450122 1.32863 1.4619e-19)
)
;

boundaryField
{
    wall-4
    {
        type            noSlip;
    }
    velocity-inlet-5
    {
        type            fixedValue;
        value           uniform (1 0 0);
    }
    velocity-inlet-6
    {
        type            fixedValue;
        value           uniform (0 3 0);
    }
    pressure-outlet-7
    {
        type            zeroGradient;
    }
    wall-8
    {
        type            noSlip;
    }
    frontAndBackPlanes
    {
        type            empty;
    }
}


// ************************************************************************* //
