/*--------------------------------*- C++ -*----------------------------------*\
  =========                 |
  \\      /  F ield         | OpenFOAM: The Open Source CFD Toolbox
   \\    /   O peration     | Website:  https://openfoam.org
    \\  /    A nd           | Version:  9
     \\/     M anipulation  |
\*---------------------------------------------------------------------------*/
FoamFile
{
    format      ascii;
    class       volScalarField;
    location    "15";
    object      p;
}
// * * * * * * * * * * * * * * * * * * * * * * * * * * * * * * * * * * * * * //

dimensions      [0 2 -2 0 0 0 0];

internalField   nonuniform List<scalar> 
918
(
0.207599
0.88587
0.0139642
0.206934
0.000700466
0.853003
-0.858073
0.391665
0.187544
-0.226618
0.0198067
0.179271
0.713551
0.480447
-1.48897
0.0141166
0.345989
-0.729076
0.186217
0.00831933
0.460972
0.194378
0.19736
0.187952
0.245325
0.473318
0.593905
0.00618584
-0.00415108
0.00093453
0.00442132
-0.00185914
0.00390932
0.736624
0.787727
0.810373
0.157663
-0.0187726
-0.707248
-0.786979
-0.768295
-0.920966
0.380907
0.38475
-0.510992
0.393022
0.408296
0.175082
0.186889
0.187902
0.189112
0.187901
0.189381
0.251796
-0.282671
-0.347757
-0.146756
-0.106778
0.0697183
0.0220456
0.0144339
0.0255948
0.0235825
0.116707
0.176132
0.17364
0.184783
0.193241
0.825415
0.797296
0.823423
0.737236
0.75369
0.691492
0.663918
0.500762
0.521855
0.465526
0.455672
-1.93152
-2.90249
-0.888313
-0.629693
0.00247416
0.0210616
0.0258008
0.328697
0.335855
0.337789
0.350548
0.740128
-0.721733
-0.850158
0.186169
0.185131
0.19412
0.19479
0.190825
0.189955
0.0150804
0.0210415
-0.000502188
0.00666614
0.00612355
0.44113
0.438319
0.188465
0.185287
0.201273
0.224172
0.213754
-0.0402831
0.259765
0.284527
0.274263
0.453921
0.452046
0.459423
0.567451
0.529849
0.631317
0.654728
0.00839959
0.00208324
0.011058
0.008962
0.0119304
0.152927
0.147424
0.168931
0.159736
0.161578
-0.0968925
-0.229641
0.0578085
0.0752451
-0.611041
-0.684313
-0.787807
-0.799913
-0.90508
0.176125
0.366348
0.370372
-0.524611
-0.440506
-0.591811
-0.365421
-0.438699
0.165328
0.172895
0.167676
0.182396
0.176932
0.17876
0.191288
0.188347
0.189866
0.267551
0.352112
0.191131
0.188105
-0.596441
-0.42532
-0.554407
-0.0612304
-0.0417462
0.0786994
0.0889827
0.0609707
0.0576309
-0.0149314
0.00865482
-0.00558477
0.024689
0.0249214
0.110667
0.101999
0.125301
0.13188
0.167592
0.168448
0.170485
0.170592
0.614613
0.637034
0.644536
0.61832
-3.91096
-6.73241
-0.296133
-0.15237
0.00206406
0.00333929
0.00118108
0.00352512
0.00435961
0.00183866
0.0350934
0.0341073
0.0291898
0.0331595
0.313952
0.320292
0.714775
0.719374
0.664679
0.665405
0.174493
0.176685
0.181854
0.177553
0.0248989
0.0223158
0.0257634
0.407076
0.424755
0.425869
-0.0737978
-0.162479
0.00754063
0.0345395
0.302012
0.286786
0.305174
0.338411
0.375405
0.662114
0.680447
0.678762
0.687171
0.731214
0.747618
0.712931
0.136341
0.144842
0.140279
0.174103
0.170291
0.171592
0.167329
0.169162
0.166724
-0.382435
-0.769377
0.12762
0.130255
0.107413
0.111651
0.264906
0.338948
0.346429
0.354913
0.35979
-0.299489
-0.36753
0.16078
0.148545
0.0590473
0.0901345
0.0736068
0.585786
0.546438
0.596276
0.569856
0.531398
0.557251
-0.721355
-2.25163
-1.35367
0.21405
0.017886
0.109964
0.0529239
0.0373637
0.0459584
0.652236
0.715143
0.410978
0.560876
0.538525
0.417881
0.450424
0.502505
0.425818
0.461678
0.499349
0.482421
0.136838
0.132751
0.112951
0.407394
0.471975
-0.188146
-0.235471
-0.29504
0.0961525
0.126062
0.119886
0.682015
0.544898
0.6399
0.185401
0.185992
0.0130599
0.0238514
0.190051
0.190263
0.0076931
0.00969038
0.0891617
-1.20242
-0.194168
0.178459
0.168785
0.18547
-0.286519
0.311935
0.0158431
0.0815381
0.0572873
0.177837
0.127245
0.0929907
0.00747704
0.0195933
0.0152709
-0.519136
0.183046
0.18124
0.185087
0.186173
0.186983
0.00932132
0.0116317
0.00772964
0.0130491
0.0132946
0.0111616
0.152506
0.165599
-0.508987
0.185153
0.187347
0.187191
0.180673
0.185904
0.183891
0.0172429
0.011719
0.0110298
-0.0885305
0.0273165
0.348172
0.463101
0.293315
0.0690998
-0.173838
0.244693
0.314164
0.209803
0.380049
0.348358
0.377785
-0.136322
-0.283441
-0.126818
-0.18162
0.176
0.174993
0.167394
0.165333
0.18093
0.179211
0.183246
0.18053
0.182992
0.184211
-0.188789
-0.135426
-0.347184
-0.411719
0.275279
0.414122
0.206181
0.208836
0.129487
0.0204659
0.0231891
0.0163357
0.0139575
0.0453488
0.0590929
0.0771612
0.0608486
0.0509128
0.0413248
0.0445347
0.0523097
0.0550589
0.172248
0.170302
0.176629
0.183539
0.134955
0.137582
0.109373
0.125261
0.115319
0.0599504
0.09035
0.0698685
0.00895813
0.00865291
0.00645499
0.0232212
0.0278382
0.0146473
0.011868
0.0150386
0.0124253
0.0112493
0.0185223
0.0211888
-0.516581
-0.597103
0.655577
0.582853
-0.546485
0.171798
0.178188
0.174845
0.180192
0.183233
0.183795
0.181527
0.178578
0.166535
0.168828
0.164474
0.16472
-0.447997
-0.585003
-0.408145
-0.47465
-0.205764
0.291254
0.038621
-0.0206301
-0.0244739
0.184598
0.545318
0.359686
0.415592
0.440737
-0.699941
-0.300624
-0.630674
-0.0199535
-0.190105
0.348555
0.402673
0.42732
0.37191
0.319132
-0.46062
0.178507
-0.383649
-0.349618
-0.159851
-0.254434
0.393385
0.332522
0.340044
0.364717
0.387706
0.340128
0.32126
0.320556
0.356225
0.360894
0.152757
-0.053243
-0.101232
-0.135746
0.316276
0.19564
0.250533
0.168773
0.170783
0.173805
0.172788
0.157252
0.162688
0.157705
0.164418
0.166659
0.176735
0.17612
0.172041
0.174626
-0.0850919
-0.0567591
-0.316054
-0.514743
-0.43746
-0.51241
-0.432446
-0.374986
-0.230599
-0.384315
-0.0255859
-0.562549
-0.599098
-0.526478
-0.642812
-0.480594
-0.513789
0.0798113
0.144008
0.119292
0.147243
0.180382
0.180696
0.0343981
0.0364731
0.0153483
0.023515
0.0765143
0.0896893
0.100753
0.0388112
0.0396279
0.0249063
0.0242264
0.0290991
0.0150511
0.0230856
0.0380532
0.0218921
0.0239887
0.0279501
0.0314272
0.0365004
0.0394487
0.165036
0.167559
0.166383
0.17954
0.190289
0.204436
0.174532
0.151495
0.144276
0.146531
0.125527
0.132234
0.130248
0.139723
0.157954
0.164338
0.162448
0.16493
0.15217
0.152959
0.140084
0.14394
0.125941
0.108321
0.0977401
0.018287
0.0120679
0.0151567
0.0162012
0.0115221
0.0133682
0.0391582
0.0315581
0.0358448
0.0313996
0.0347576
0.0186092
0.018345
-0.507978
-0.515036
-0.540113
-0.558589
-0.631836
0.532448
0.635394
0.468484
0.242231
0.193907
0.473871
0.630948
0.340536
0.382499
0.478296
0.139146
0.408987
0.17703
0.176851
0.174401
0.173947
0.17471
-0.356191
-0.259218
-0.249172
-0.198568
-0.0835059
0.0249914
-0.0397235
-0.138853
-0.00254596
0.0274776
0.286465
0.302369
0.246422
0.271557
0.270037
0.0991141
0.174515
0.222661
0.183448
0.224294
0.244508
0.208914
0.236981
0.187173
0.147714
0.147413
0.0962397
0.111509
0.0911592
0.0765846
0.167969
0.147833
0.157304
0.149292
0.168893
0.197272
0.190787
0.214241
0.229735
0.157364
0.118306
0.127775
0.155853
0.116844
0.12896
0.142725
-0.171473
-0.27032
-0.190322
-0.457467
-0.357069
-0.373695
-0.416413
-0.399226
-0.120016
-0.803093
-0.764422
-1.4
0.114634
0.579683
0.345857
0.311427
0.383311
0.357723
0.357456
0.392239
0.401139
0.307972
0.324651
0.327501
0.282738
0.307995
0.334718
0.333701
0.155994
0.0457476
0.0335886
0.0019287
-0.12292
-0.0925989
0.118387
0.0412539
-0.033881
-0.0275647
0.134909
0.0319207
0.0901437
0.127549
0.0614411
0.0193764
0.207052
0.277489
0.268158
0.239519
0.161486
0.175211
0.197911
0.229598
0.25743
0.296413
0.165792
0.16858
0.170642
0.169333
0.164768
0.167938
0.168101
0.170158
0.170779
0.173658
0.17288
0.00868804
0.00586819
-0.0288305
-0.00723986
-0.12829
-0.163594
-0.206461
-0.201445
0.0104735
-0.010535
-0.0841086
-0.0437324
-0.0232741
-0.00821736
0.0329012
0.0462682
-0.0651686
-0.0998086
-0.221745
0.0502403
0.0947531
-0.0511273
-0.216962
-0.106927
-0.0278073
0.0459477
0.0670378
0.0604417
0.0628261
0.0607602
0.0314504
0.0276451
0.0273285
0.0329304
0.0325188
0.0250345
0.0229276
0.0247678
0.0252027
0.0245776
0.0238519
0.151748
0.146495
0.149065
0.143873
0.142769
0.154432
0.157769
0.159351
0.16398
0.165645
0.157317
0.161398
0.164765
0.027603
0.02239
0.0244656
0.0240678
0.0232254
0.0208188
0.0210465
-0.102363
-0.457457
-0.453155
-0.419084
-0.495823
-0.457655
0.142113
0.0808241
0.114932
0.277927
0.173211
0.0570934
0.118448
0.240658
-0.00937005
0.13933
-0.00200171
0.487194
0.360502
0.504877
0.189226
-0.132784
0.0114541
0.0596412
-0.132572
-0.0562752
-0.0269347
-0.141172
-0.108084
-0.0800563
0.0150961
-0.108727
-0.146803
-0.37804
-0.194043
-0.067759
-0.085213
0.0354958
0.0870743
-0.0941021
-0.198921
-0.233269
0.273598
0.294949
0.311477
0.283474
0.30444
0.233206
0.222949
0.240729
0.251123
0.245933
-1.13439
-0.844641
-1.7899
-1.10593
-0.650075
0.147231
0.102047
0.379453
0.281934
0.357943
0.341673
0.30836
0.274486
0.279117
0.314915
0.0289542
0.135999
0.11228
0.115038
0.0218561
-0.0405066
0.241853
0.235202
0.276391
0.300315
0.268121
0.301807
0.161343
0.161022
0.164008
0.160826
0.157128
0.159069
0.0185568
0.0240637
-0.050515
-0.0810476
-0.09482
-0.0437726
0.0311968
0.0291842
0.0258137
0.0258578
0.0296201
0.0320116
-0.152318
-0.206203
-0.353262
-0.229715
-0.355131
-0.441376
-0.450052
-0.375749
-0.254226
-0.263723
0.0136969
0.268876
0.124288
0.215727
-0.0458018
0.0315235
0.115505
0.0906952
0.120222
0.0188624
0.109892
-0.159344
-0.654098
-0.562841
0.393108
0.420043
0.210161
0.0212897
-0.200787
-0.0100717
0.188841
0.132681
0.172777
0.237349
0.235128
-0.36844
-0.298379
-0.0661502
0.155807
-0.166322
-0.170326
-0.191341
0.000261843
-0.0638387
)
;

boundaryField
{
    wall-4
    {
        type            zeroGradient;
    }
    velocity-inlet-5
    {
        type            zeroGradient;
    }
    velocity-inlet-6
    {
        type            zeroGradient;
    }
    pressure-outlet-7
    {
        type            fixedValue;
        value           uniform 0;
    }
    wall-8
    {
        type            zeroGradient;
    }
    frontAndBackPlanes
    {
        type            empty;
    }
}


// ************************************************************************* //
