/*--------------------------------*- C++ -*----------------------------------*\
  =========                 |
  \\      /  F ield         | OpenFOAM: The Open Source CFD Toolbox
   \\    /   O peration     | Website:  https://openfoam.org
    \\  /    A nd           | Version:  9
     \\/     M anipulation  |
\*---------------------------------------------------------------------------*/
FoamFile
{
    format      ascii;
    class       volVectorField;
    location    "15";
    object      U;
}
// * * * * * * * * * * * * * * * * * * * * * * * * * * * * * * * * * * * * * //

dimensions      [0 1 -1 0 0 0 0];

internalField   nonuniform List<vector> 
918
(
(0.985211 -0.000444765 0)
(0.00499192 2.96626 0)
(-0.00162412 1.6379 0)
(0.979755 0.00207653 0)
(-0.000612449 1.5942 6.49373e-22)
(-0.00702523 2.94877 -1.80928e-18)
(0.84998 1.19303 7.52061e-19)
(0.483853 0.228646 -8.57104e-21)
(0.99992 -0.000360427 0)
(-0.00584576 1.09917 0)
(-0.000590219 1.33302 0)
(0.814035 -0.00629554 0)
(0.0111529 2.93027 0)
(0.0014245 2.79504 0)
(-0.0173788 3.16731 1.11275e-18)
(-0.00477038 1.50791 -1.63935e-20)
(0.582804 0.102679 5.3099e-19)
(0.167392 1.16925 6.60631e-19)
(0.964259 0.00522247 0)
(-0.00268896 1.45686 0)
(0.164251 0.269745 -4.53993e-19)
(1.00155 -0.00518114 0)
(1.00023 -0.00980584 0)
(0.975653 -0.0065371 0)
(0.731313 -0.0248646 0)
(0.0182913 2.62974 0)
(-0.0152338 2.91019 6.19336e-19)
(-0.0123684 1.65924 0)
(-0.0114566 1.75919 0)
(-0.0105367 1.65492 0)
(-0.00155613 1.81433 0)
(-0.000852851 1.611 -5.13933e-22)
(-0.00448149 1.51612 0)
(-0.0206221 2.98758 -6.3038e-23)
(-0.016712 3.00531 1.40645e-18)
(0.00210988 3.00022 0)
(0.865987 -0.00664103 0)
(0.38021 0.917172 -4.57503e-20)
(0.843283 1.2078 -1.06652e-18)
(0.990586 1.05942 9.95613e-19)
(0.705546 1.29747 -1.75816e-19)
(0.710351 1.27386 1.0001e-18)
(0.511855 0.298989 8.36293e-21)
(0.504541 0.201776 0)
(1.18904 0.573307 0)
(0.479244 0.317666 3.92647e-20)
(0.441234 0.222123 -4.07455e-20)
(0.920402 -0.00673605 0)
(1.00042 2.97771e-05 0)
(0.999941 0.000362455 0)
(1.00365 -0.00773782 0)
(1.00086 -0.00102142 0)
(1.00015 6.36575e-06 0)
(0.0578767 1.55987 -4.70411e-19)
(-0.0253401 1.1672 0)
(0.00674001 1.00405 0)
(-0.038949 1.26415 0)
(-0.0175192 1.18586 0)
(-0.00618071 1.57452 0)
(-0.00365652 1.49482 0)
(-0.00159578 1.32823 0)
(-0.0107406 1.52147 0)
(-0.007071 1.34806 0)
(0.890521 -0.000926713 0)
(0.895721 0.00870535 0)
(0.827113 0.00053387 0)
(0.887981 0.0134171 0)
(0.799553 -0.00815215 0)
(0.0147155 3.00039 6.61176e-19)
(0.0115486 3.00787 0)
(0.00614581 3.00289 0)
(0.0135696 2.99732 7.35403e-24)
(0.00800384 2.95843 -9.82671e-19)
(0.0145137 2.98202 0)
(0.010813 2.90359 0)
(0.024824 2.93028 1.29695e-24)
(0.00413859 2.82545 0)
(0.0319706 2.91556 0)
(-0.00656911 2.74411 0)
(0.310521 3.56703 0)
(-0.132791 3.6485 0)
(0.140808 3.25831 -1.03558e-18)
(-0.0117529 2.99152 0)
(-0.0112829 1.79467 0)
(-0.00447165 1.64078 1.61721e-20)
(-0.00563431 1.52386 -2.50479e-20)
(0.646014 0.166275 -1.82925e-19)
(0.606107 0.06674 -1.7693e-19)
(0.611013 0.194332 -5.46283e-19)
(0.564323 0.12923 -3.65307e-19)
(0.246789 1.01324 0)
(0.247919 1.2725 -6.51468e-19)
(0.324796 1.2661 1.0749e-18)
(0.988204 0.00843172 0)
(0.943971 0.00640445 0)
(1.00032 0.000572001 0)
(1.00282 0.00933645 0)
(1.00271 0.00844889 -9.67773e-19)
(0.99204 0.00980546 7.30753e-19)
(-0.0128571 1.57636 0)
(-0.00829614 1.44372 0)
(-0.0179 1.66728 0)
(-0.0151669 1.60897 0)
(-0.00104522 1.48153 0)
(0.239113 0.283248 1.39914e-19)
(0.283242 0.265084 0)
(0.993485 -0.00840686 0)
(0.954169 -0.00681321 0)
(0.862721 0.0171069 0)
(0.829717 0.0337716 0)
(0.778201 -0.0140056 0)
(1.01861 -0.00581411 0)
(0.776367 0.0450279 0)
(0.646697 -0.0168659 7.04562e-19)
(-0.0351474 2.86635 2.93029e-19)
(0.0434326 2.90788 0)
(0.057398 2.88284 0)
(-0.00582053 2.69635 0)
(-0.0128772 2.98529 5.66248e-19)
(-0.0183353 2.89558 0)
(-0.0153996 2.98813 -1.79798e-18)
(-0.013407 2.9252 6.22115e-19)
(-0.00944628 1.81386 0)
(-0.00742912 1.80866 0)
(-0.00123945 1.64081 -3.30089e-22)
(-0.00326064 1.61192 0)
(-0.00576849 1.50887 0)
(0.930269 -0.00357804 0)
(0.858902 -0.00335267 0)
(0.857201 0.0091383 0)
(0.940019 -0.00414344 0)
(0.882599 -0.00611863 0)
(0.494525 1.11491 4.65192e-20)
(0.548671 1.17617 0)
(0.337624 0.845485 1.69314e-21)
(0.282517 0.706651 0)
(0.956568 1.08835 -2.87716e-19)
(1.06994 0.897556 5.91345e-19)
(0.427978 1.34274 0)
(0.559728 1.35997 0)
(0.540788 1.29553 0)
(0.0980481 0.122884 -1.02025e-19)
(0.54343 0.273897 0)
(0.528707 0.176528 1.05562e-19)
(1.04206 0.945951 0)
(1.11149 0.792112 0)
(1.13793 0.738286 -5.19083e-19)
(1.16731 0.631145 0)
(1.21828 0.413278 6.0339e-20)
(0.953517 -0.00728081 0)
(0.962031 -0.00937731 0)
(0.901463 -0.00820887 0)
(0.98406 -0.00894743 0)
(0.975423 -0.00870152 0)
(0.937245 -0.00625497 0)
(1.00004 0.00224208 0)
(1.00086 0.00147428 0)
(0.999903 0.000815531 0)
(0.0671118 1.7603 2.5937e-19)
(0.0844812 1.51654 0)
(0.0381923 1.77215 4.01088e-19)
(0.0348855 1.59036 -3.43479e-19)
(0.085433 1.16111 -5.43823e-19)
(-0.008287 1.10817 0)
(0.105955 1.03179 0)
(-0.0275998 1.36726 0)
(-0.00471738 1.25636 0)
(-0.00912058 1.70815 -1.08691e-21)
(-0.00496776 1.60253 0)
(-0.00635841 1.69145 -5.1652e-20)
(-0.00455116 1.56398 9.9565e-20)
(-0.0166774 1.43355 0)
(-0.00994472 1.47494 0)
(-0.00287304 1.29782 0)
(-0.0144253 1.54014 0)
(-0.0105442 1.37187 0)
(0.96389 0.0140938 0)
(0.909407 0.0036717 0)
(0.946991 0.00892543 0)
(0.879822 0.00145601 0)
(0.828482 -0.00463363 0)
(0.91479 4.90662e-05 0)
(0.908084 0.00580956 0)
(0.828318 -0.0040324 0)
(0.00579187 3.06478 -5.76023e-21)
(0.0163174 3.0581 0)
(0.0146624 2.96914 0)
(0.00847537 2.87636 0)
(0.928353 3.98625 0)
(1.2438 3.31585 1.01907e-18)
(0.0711865 3.08387 0)
(-0.0264779 2.91247 0)
(-0.0114205 1.79443 0)
(-0.0124115 1.79277 0)
(-0.011348 1.79344 0)
(-0.00662573 1.80305 4.88584e-21)
(-0.0116158 1.79876 0)
(-0.00717491 1.7972 0)
(-0.00138184 1.53892 1.42347e-21)
(-0.0035214 1.66863 3.01192e-20)
(-0.00501491 1.65682 2.55918e-20)
(-0.00377344 1.52861 0)
(0.676607 0.122279 2.66761e-19)
(0.62711 0.0311046 -2.59818e-19)
(0.175852 1.44348 0)
(0.295428 0.74716 -2.26026e-19)
(0.140023 1.52659 -7.41641e-19)
(0.205734 1.19489 7.39798e-19)
(0.901919 0.0100045 0)
(0.968253 0.0126856 0)
(0.975933 0.0114816 0)
(0.925627 0.00854864 0)
(-0.0168503 1.55475 0)
(-0.0165533 1.56601 0)
(-0.0108196 1.4047 0)
(0.435797 0.333774 3.59761e-19)
(0.360199 0.312959 -4.37704e-19)
(0.377162 0.241943 0)
(1.13515 0.0828872 -5.48632e-21)
(1.11969 0.038027 0)
(1.05201 0.0331941 0)
(0.965656 0.00525202 0)
(0.688316 0.0820322 0)
(0.714915 0.0611847 -1.13427e-18)
(0.629645 0.0121888 4.34142e-19)
(0.00995807 2.98199 3.86927e-19)
(-0.0326318 2.86764 4.76604e-20)
(0.00385148 3.05024 -1.2487e-20)
(0.0198929 3.04356 4.50162e-19)
(-0.0150268 2.99656 2.07272e-20)
(-0.0130177 2.94944 -8.39681e-23)
(-0.0173077 3.01202 -3.94448e-19)
(0.0148099 3.02406 2.85191e-19)
(0.00729183 3.03678 -4.44948e-19)
(0.941648 0.00838645 0)
(0.935926 0.00388054 0)
(0.864535 0.00119431 0)
(0.955677 0.0129143 0)
(0.940652 0.0136224 0)
(0.879649 0.00807013 0)
(0.917009 0.00322436 0)
(0.92184 0.0109679 0)
(0.835357 0.00188588 0)
(0.708994 1.409 3.44801e-19)
(0.747518 1.52196 0)
(0.21918 0.368803 1.84908e-20)
(0.17279 0.535475 1.40176e-19)
(0.250686 0.65556 -8.00551e-20)
(0.212815 0.543423 1.43545e-19)
(0.279891 0.66439 6.02933e-19)
(0.11877 0.156559 1.90278e-19)
(0.591518 0.225454 3.94955e-19)
(0.564878 0.246022 9.65988e-20)
(0.543502 0.157515 1.99501e-19)
(1.20584 0.468908 3.12914e-19)
(1.22131 0.260406 3.28381e-19)
(0.0226527 1.76678 1.62316e-19)
(0.0246094 1.61123 0)
(1.00601 0.0253577 0)
(0.976525 0.0163038 0)
(0.932943 -0.00152972 0)
(0.011022 3.07478 0)
(0.0200035 2.94406 7.64229e-19)
(0.016551 2.95651 0)
(0.00603739 2.85083 -7.58225e-19)
(0.00597361 3.09113 1.80362e-19)
(0.00740458 3.08236 0)
(0.783065 1.82845 -2.4335e-19)
(1.25059 2.51196 6.71535e-19)
(0.767216 1.96986 -1.50657e-18)
(0.0214193 2.98518 -2.71858e-19)
(0.0372116 3.00858 0)
(-0.0314497 2.8837 0)
(-0.000508128 1.66374 -4.86675e-21)
(-0.00134358 1.67114 -6.81013e-20)
(0.000660173 1.54814 -6.74342e-21)
(0.246719 1.32727 6.77226e-19)
(0.264841 0.49948 -4.63225e-19)
(0.0739045 1.70619 4.95623e-19)
(0.109001 1.625 -6.13239e-19)
(0.115429 1.38852 8.1498e-20)
(0.0019916 3.11898 -1.05184e-18)
(0.0150909 3.11839 1.1304e-18)
(-0.00846944 2.98141 4.84971e-19)
(-0.00315091 2.97807 -4.22789e-19)
(-0.0212789 2.88228 -4.93928e-19)
(0.00887483 3.10009 -1.31939e-18)
(0.00259573 3.10526 1.28845e-18)
(0.195534 0.575381 0)
(0.139534 0.535926 -2.92108e-19)
(0.148863 0.19852 1.26882e-19)
(0.318821 0.801259 5.76631e-19)
(0.178894 0.203395 -8.82826e-19)
(1.21647 0.170718 -6.47788e-20)
(1.21939 0.31195 0)
(1.20369 0.118608 1.30815e-19)
(-0.00313439 1.74387 -1.36444e-21)
(0.00865787 1.76287 0)
(0.00413259 1.60493 0)
(0.324635 1.18931 -2.36155e-19)
(0.366661 1.01925 -5.13191e-19)
(0.181709 0.313861 8.55123e-19)
(1.00576 -0.0110904 0)
(1.00775 -0.00780791 1.76028e-19)
(-0.00903383 1.80167 0)
(-0.0170613 1.81008 0)
(1.00244 0.00368723 1.94388e-21)
(1.00318 0.00919079 3.62708e-19)
(-0.0067208 1.8065 -6.42016e-21)
(-0.00553891 1.80528 0)
(0.0395861 3.1843 7.92493e-20)
(0.399287 3.50327 0)
(1.09987 0.645093 7.15802e-20)
(1.01173 0.0121345 -2.49362e-21)
(1.02025 -0.0142171 0)
(1.00175 0.000234565 3.54665e-23)
(-0.159185 1.33262 0)
(-0.0766596 2.26763 0)
(-0.0366464 1.74898 0)
(-0.0447339 1.89076 6.77563e-20)
(-0.0233523 1.84489 4.34822e-20)
(1.0035 0.00914804 2.31648e-21)
(1.04534 0.0133242 0)
(1.07065 0.0269744 0)
(-0.0134727 1.79316 0)
(-0.010247 1.81762 0)
(-0.0234863 1.79321 0)
(0.29191 1.22785 -4.56822e-19)
(1.01117 -0.00986906 0)
(1.00964 -0.014938 0)
(1.00234 0.000574402 2.2158e-19)
(1.00587 -0.00502007 -2.65135e-19)
(1.00095 -0.000894598 0)
(-0.0149434 1.79187 0)
(-0.0123066 1.79465 0)
(-0.0118374 1.79533 0)
(-0.0213328 1.79637 0)
(-0.0161087 1.79334 0)
(-0.0198147 1.7964 0)
(1.0242 -0.00252182 0)
(1.02209 0.0154573 -1.08994e-21)
(0.798811 1.25864 5.43537e-19)
(1.00291 0.000386022 -2.24456e-19)
(1.00336 0.00568413 2.69655e-19)
(1.00121 0.00200407 0)
(1.01113 0.00999663 2.17778e-19)
(1.00793 0.00817293 -2.71229e-19)
(1.00835 0.0142388 0)
(-0.00929515 1.81764 0)
(-0.00704819 1.81262 1.43773e-20)
(-0.00730441 1.81191 -9.98168e-21)
(1.18149 0.255107 -1.09643e-19)
(1.12038 0.0814976 0)
(0.0570369 3.07913 -4.74821e-19)
(0.0690692 2.85101 -3.90014e-20)
(0.146846 3.2006 7.24039e-19)
(0.141537 3.22896 1.87743e-20)
(0.13917 3.24395 0)
(0.0227146 3.13897 9.93344e-20)
(0.0812135 3.16344 4.62919e-19)
(0.0743779 3.19089 -1.93204e-19)
(0.0271236 3.12816 0)
(0.704177 0.32745 0)
(0.623082 0.394397 0)
(1.08049 0.674292 -2.71222e-19)
(1.07391 0.807059 4.18307e-19)
(1.13506 0.560979 0)
(1.16783 0.51055 0)
(1.01556 0.0130703 -4.05825e-19)
(1.01364 0.0149719 5.06806e-19)
(1.02278 -0.0162711 0)
(1.01576 -0.0221444 0)
(1.00703 0.00301434 0)
(1.00994 0.00358633 0)
(1.004 0.00229971 0)
(1.00963 0.00693904 0)
(1.00722 0.00548105 0)
(1.00562 0.00493204 0)
(-0.155771 1.36621 0)
(-0.146612 1.40812 0)
(-0.143852 1.28327 0)
(-0.00843703 1.2592 0)
(-0.112285 2.36828 0)
(0.0370248 2.38851 -2.87677e-19)
(-0.0701665 2.26829 0)
(-0.0383326 2.15647 1.37802e-19)
(-0.0328329 1.99447 -1.32295e-19)
(-0.0305761 1.75408 0)
(-0.0211408 1.76165 0)
(-0.0533219 1.72798 0)
(-0.0413232 1.68884 0)
(-0.0842778 1.841 -3.79044e-20)
(-0.0370383 1.8578 5.49138e-20)
(-0.0434822 1.88741 6.76013e-20)
(-0.0327493 1.87122 0)
(-0.0172573 1.84533 -9.70239e-20)
(-0.00845508 1.83637 -5.11337e-20)
(-0.0775733 1.83327 3.00393e-20)
(-0.0502588 1.84369 -7.16705e-20)
(-0.0574937 1.8605 -8.8732e-20)
(1.01136 0.0165406 3.9608e-19)
(1.01136 0.00589228 -4.88075e-19)
(1.00544 0.0199154 -4.15587e-19)
(0.993219 0.0154704 5.26758e-19)
(1.04083 0.0208217 0)
(1.03869 0.0100007 0)
(1.06283 0.0412522 0)
(1.05002 0.0232758 0)
(1.05622 0.0115644 0)
(1.10415 0.075059 0)
(1.08009 0.047546 0)
(1.09076 0.0358566 0)
(-0.0105639 1.80776 -1.69226e-21)
(-0.0137724 1.79719 0)
(-0.0118067 1.80121 0)
(-0.0104229 1.82155 1.47131e-20)
(-0.00977457 1.82249 -6.73973e-22)
(-0.0183958 1.79286 1.51327e-20)
(-0.0179982 1.7935 -1.5285e-20)
(-0.0216715 1.79574 0)
(-0.0182948 1.79603 0)
(-0.0172472 1.79645 0)
(-0.0245675 1.79264 0)
(-0.0244811 1.78586 0)
(0.452628 1.31558 9.04553e-19)
(0.404097 1.38135 3.28299e-19)
(0.628921 2.43958 -1.52748e-19)
(0.293967 2.5497 3.94202e-19)
(0.562413 2.28279 -1.73905e-19)
(1.02064 -0.00885682 0)
(1.01586 -0.00909022 0)
(1.01642 -0.0148395 0)
(1.00807 -0.000917671 0)
(1.00446 -0.00127185 0)
(1.00715 -0.0048828 0)
(1.01019 -0.00359843 0)
(1.0135 -0.00457575 0)
(1.02265 0.0155268 3.87247e-19)
(1.01475 0.0217868 -4.89223e-19)
(1.02456 0.0106689 -3.86191e-19)
(1.02085 0.00715921 4.84417e-19)
(0.763408 1.28597 0)
(0.682226 1.35461 6.478e-19)
(0.871435 1.18839 3.84251e-19)
(0.905258 1.16906 -5.10189e-19)
(1.13198 2.61971 -6.01759e-19)
(0.831878 0.100071 2.71767e-19)
(1.12215 0.0949802 0)
(1.16266 0.168696 9.42394e-20)
(1.15733 0.150791 4.03653e-21)
(0.971575 0.123803 0)
(0.148819 2.97285 7.81872e-20)
(0.128484 2.87885 -5.98699e-19)
(0.0444869 2.34796 4.47312e-19)
(0.115701 0.127182 -1.83066e-19)
(0.344505 3.43073 -4.63197e-19)
(0.198281 3.3232 0)
(0.238446 3.36688 6.0323e-19)
(0.256296 3.04339 -6.05411e-19)
(0.347656 3.19957 0)
(0.00800794 3.12059 2.44177e-20)
(0.0179895 3.12974 -3.17631e-19)
(0.0164547 3.12549 4.67519e-19)
(0.0388831 3.14011 0)
(0.0377371 3.15212 0)
(1.21371 2.61849 0)
(0.502417 0.840316 -2.09509e-19)
(1.01489 0.98079 -2.17035e-19)
(0.960599 1.05323 0)
(0.800335 0.956703 6.90428e-20)
(1.03686 0.869978 3.16695e-20)
(0.405627 0.480235 -5.0148e-19)
(0.727445 0.323418 -2.227e-20)
(0.711449 0.286262 2.08568e-19)
(0.623744 0.427379 1.68295e-20)
(0.566168 0.418118 -6.92864e-19)
(0.708663 0.353446 0)
(0.709452 0.430754 3.46668e-19)
(0.716077 0.423429 0)
(0.667602 0.40877 0)
(0.673125 0.340925 0)
(0.734295 0.600065 1.14344e-19)
(1.17679 0.269977 7.23807e-20)
(1.17808 0.406542 0)
(1.18789 0.364931 0)
(0.769382 0.214264 3.10814e-19)
(0.779264 0.525215 -1.71465e-19)
(0.698006 0.507137 2.73819e-19)
(0.898804 0.396546 -2.49304e-19)
(1.01928 0.0172578 2.63804e-19)
(1.01746 0.0140015 -2.71089e-19)
(1.01362 0.0176179 0)
(1.02237 -0.00796508 0)
(1.02166 -0.0168667 -2.38199e-19)
(1.01183 -0.0207343 2.35302e-19)
(1.0355 0.00591256 0)
(1.02886 0.0119879 0)
(1.01156 0.00388822 0)
(1.01497 0.00819733 0)
(1.01765 0.00334214 0)
(1.01381 0.00102407 0)
(-0.149402 1.482 0)
(-0.11339 1.52824 0)
(-0.192981 1.23069 2.75806e-19)
(0.280421 1.23605 2.74348e-19)
(0.0357967 1.20301 5.81184e-19)
(0.182401 1.1906 -9.40589e-19)
(-0.0317989 1.2757 0)
(-0.314517 1.97386 5.05992e-19)
(-0.349366 1.90747 0)
(0.469732 2.3395 2.5661e-19)
(0.303962 2.52236 1.74049e-19)
(-0.185648 1.84017 -4.46643e-19)
(0.29037 1.13364 2.95792e-19)
(0.0121378 1.23136 -2.34379e-19)
(0.371653 1.17576 7.40791e-19)
(0.11313 1.84808 0)
(0.308965 1.88108 -5.60535e-19)
(-0.157615 1.95679 -2.06681e-20)
(-0.0349963 2.02721 0)
(-0.174411 2.07439 8.18003e-20)
(-0.143757 1.99756 0)
(-0.0364458 2.12667 -1.53307e-19)
(-0.022678 2.05808 0)
(-0.0830047 1.78396 -3.00373e-20)
(-0.108 1.81243 0)
(-0.104166 1.73669 0)
(-0.0871917 1.75716 3.38896e-20)
(-0.0499287 1.91108 -8.36161e-21)
(-0.0375788 1.97342 1.48305e-19)
(-0.0372607 1.94666 1.05167e-21)
(-0.0428153 1.82026 2.62408e-20)
(-0.054635 1.81273 1.59569e-20)
(-0.0216626 1.77007 0)
(-0.0208012 1.77147 0)
(-0.157391 1.87533 4.6265e-20)
(-0.148456 1.75241 2.57079e-20)
(-0.138839 1.81972 -3.81074e-20)
(-0.220272 1.88985 0)
(-0.015652 1.81197 -5.3305e-20)
(-0.0152075 1.82013 2.38579e-20)
(-0.0154036 1.81988 -7.47291e-21)
(-0.0357519 1.81829 -3.14643e-20)
(-0.0173167 1.82994 -1.21207e-20)
(-0.0197604 1.83814 6.20598e-20)
(1.02275 0.00477533 -2.58968e-19)
(1.01856 0.00928087 2.63512e-19)
(1.0173 0.000969519 0)
(0.998776 0.0452778 3.69295e-19)
(0.993295 0.0328963 -4.4306e-19)
(0.966308 0.0241563 5.14198e-19)
(0.993757 0.0805364 -4.88777e-20)
(1.02533 0.00366456 0)
(1.03154 0.0120982 2.17675e-19)
(1.02781 0.00601957 -2.13773e-19)
(1.03645 0.0392979 -1.17661e-20)
(1.0405 0.0265634 1.04601e-19)
(1.03262 0.0524572 0)
(1.02732 0.0419066 -3.9368e-20)
(1.02259 0.0234497 0)
(1.02001 0.0222684 0)
(1.03745 0.00690684 0)
(1.03149 0.00646021 0)
(1.02965 0.0238446 8.20038e-20)
(1.03179 0.0173751 -1.84282e-19)
(1.03093 0.0287061 -8.21695e-20)
(1.03065 0.0285807 -9.63892e-20)
(1.02908 0.055907 1.70086e-19)
(1.06407 0.0508708 0)
(1.05776 0.0906026 0)
(-0.0159471 1.81244 -2.18853e-20)
(-0.0147272 1.80103 -1.95385e-21)
(-0.0165709 1.80076 0)
(-0.0107723 1.81371 2.33102e-20)
(-0.010224 1.80897 3.49709e-21)
(-0.0104533 1.81282 -3.83731e-21)
(-0.00793042 1.83406 4.28547e-20)
(-0.01508 1.82501 -2.7859e-21)
(-0.0146348 1.82579 1.34441e-20)
(-0.00900737 1.82733 -2.21726e-20)
(-0.00816417 1.82922 2.63616e-20)
(-0.0218471 1.79478 5.00828e-22)
(-0.0207673 1.796 2.46121e-20)
(0.526953 1.23383 -4.71753e-19)
(0.55179 1.3283 -6.50613e-19)
(0.649237 1.38231 -6.26036e-19)
(0.537371 1.40478 -3.16564e-19)
(0.53573 1.4173 0)
(0.605828 2.4174 1.1087e-19)
(0.702257 2.38279 2.23669e-19)
(0.391924 2.54606 1.10004e-19)
(0.334645 2.64541 -9.61291e-20)
(0.512686 2.61449 1.36914e-19)
(0.526518 2.47555 0)
(0.544131 2.46988 -3.50154e-19)
(0.0546329 2.51177 7.36813e-19)
(0.236515 2.5494 -4.21849e-20)
(0.185046 2.51241 -8.96904e-19)
(0.919318 2.34209 1.45967e-19)
(0.825632 2.33861 0)
(1.01066 -0.000272395 8.84636e-21)
(1.01394 -0.00520934 -7.2155e-21)
(1.016 -0.00488342 -1.30576e-19)
(1.01317 -0.00429474 1.29816e-19)
(1.01294 0.000305635 0)
(0.649329 1.26321 0)
(0.647196 1.15981 0)
(0.746825 1.06634 0)
(0.634734 1.10636 0)
(1.16682 2.63864 4.79583e-20)
(1.03721 2.35875 0)
(0.790426 2.27558 -2.0282e-21)
(0.830253 2.47212 0)
(0.896418 2.55988 -1.16513e-20)
(0.912073 2.52562 7.91071e-21)
(0.836444 0.13257 0)
(0.804042 0.150633 7.87236e-20)
(0.910279 0.121888 3.96344e-19)
(0.861475 0.114125 -1.6125e-19)
(0.85659 0.0732407 -4.79504e-19)
(1.02296 0.214075 -2.03923e-19)
(0.957637 0.268594 -1.52053e-20)
(0.888666 0.263836 3.52318e-19)
(0.963743 0.208554 2.61853e-19)
(0.930607 0.161581 -4.92337e-19)
(0.899342 0.175538 6.37159e-20)
(0.915496 0.239878 -1.2349e-19)
(0.898205 0.195664 0)
(0.969376 0.16247 2.3418e-19)
(1.00011 0.162365 0)
(0.997323 0.196355 0)
(1.05434 0.0976714 7.03507e-20)
(1.01814 0.149523 -1.29982e-20)
(1.01459 0.213336 -3.86385e-20)
(1.04696 0.179645 0)
(1.01358 0.0240365 1.97932e-19)
(1.02263 0.0434385 2.3122e-19)
(1.02022 0.0270106 -1.9637e-19)
(1.01435 0.0481332 -1.55789e-19)
(1.00157 0.0484895 -2.61359e-19)
(0.975457 0.12651 0)
(0.985141 0.0785844 0)
(0.967512 0.0470188 -1.87006e-19)
(0.931288 0.0556028 7.79295e-20)
(0.997529 0.079096 2.20785e-19)
(1.01884 0.0979547 -2.16357e-19)
(1.02611 0.121541 1.97877e-19)
(0.993874 0.120456 0)
(1.03039 0.0880318 0)
(1.01719 0.0747811 -9.18916e-20)
(1.01408 0.0774356 -1.76617e-19)
(0.568696 1.06937 -1.23491e-19)
(0.629351 1.49539 2.22821e-19)
(1.15141 2.78516 1.55462e-19)
(1.22514 3.1036 -7.71916e-20)
(1.23523 2.74357 6.05328e-19)
(1.27309 2.72342 -3.59035e-19)
(1.19265 2.34869 -4.00367e-21)
(1.20943 3.01153 2.3091e-19)
(1.2219 2.97992 -2.78102e-19)
(1.21639 3.25325 -2.77309e-19)
(1.37586 2.9848 3.84136e-19)
(1.37038 2.89648 0)
(0.506503 0.850748 -9.36521e-21)
(0.156907 1.30193 3.41132e-19)
(0.520317 0.547388 3.33889e-19)
(0.344504 0.318906 3.60803e-19)
(0.560826 0.450912 3.87006e-19)
(0.540795 0.502362 -6.09056e-19)
(0.542967 0.525439 4.98728e-19)
(0.515512 0.484966 -2.00093e-19)
(0.478713 0.431967 4.65879e-19)
(0.773666 0.256257 -1.7306e-19)
(0.741954 0.299267 0)
(0.737714 0.251011 1.14314e-20)
(0.690007 0.522447 1.7768e-19)
(0.673777 0.488746 -6.5683e-19)
(0.604571 0.507127 1.96139e-20)
(0.626647 0.482034 0)
(0.627455 0.735369 1.30343e-19)
(0.775463 0.767695 3.3341e-20)
(0.707627 0.851616 -4.79359e-20)
(0.8171 0.794056 -9.34966e-21)
(0.86696 0.833506 1.82078e-20)
(0.873561 0.839529 -1.86434e-20)
(0.780823 0.627356 -1.96605e-19)
(0.867106 0.68218 8.68572e-21)
(0.929728 0.695019 0)
(0.920305 0.671582 -4.38588e-21)
(0.978946 0.303276 5.23784e-20)
(1.07123 0.27853 -9.08062e-21)
(1.00768 0.256859 8.32428e-20)
(0.956506 0.33212 -1.25004e-19)
(0.992067 0.397128 0)
(1.05244 0.389249 0)
(0.883253 0.324819 4.05592e-21)
(0.834142 0.26973 0)
(0.834989 0.260601 1.86269e-19)
(0.887318 0.266509 -7.20468e-21)
(0.886822 0.398484 6.80159e-19)
(0.831462 0.462395 1.75119e-19)
(0.842337 0.427185 -2.25888e-19)
(0.787789 0.41532 2.42537e-19)
(0.771991 0.414478 1.70326e-19)
(0.769037 0.407901 -1.66437e-19)
(1.02506 -0.0123398 2.07112e-19)
(1.02436 -0.00871385 0)
(1.02206 -0.00882568 1.39968e-19)
(1.02393 -0.0130181 -3.09346e-19)
(1.03243 -0.000360787 1.51835e-19)
(1.02662 0.0103863 -3.21283e-19)
(1.02576 0.0144026 0)
(1.02136 0.014052 -6.71589e-20)
(1.01976 0.00629537 1.67159e-19)
(1.01677 0.0105169 -8.49328e-20)
(1.0211 0.0121663 6.34041e-20)
(-0.0696481 1.67274 0)
(-0.122274 1.71819 0)
(-0.100867 1.59487 0)
(-0.0612565 1.61748 0)
(-0.289731 1.64337 -2.6782e-19)
(-0.277092 1.47792 7.78284e-20)
(-0.343201 1.91685 7.22754e-20)
(-0.416334 1.67763 -1.91229e-19)
(-0.195314 1.75767 -4.25467e-21)
(-0.211035 1.74945 1.62365e-21)
(-0.250499 1.62214 4.9699e-20)
(-0.228568 1.63051 8.743e-20)
(-0.17216 1.6557 6.60699e-21)
(-0.161409 1.69322 -2.42329e-22)
(-0.207256 2.14264 -8.43902e-20)
(-0.223947 2.22844 0)
(-0.320828 2.23314 -3.9426e-20)
(-0.372137 1.99132 -4.01112e-20)
(-0.0384122 2.28196 8.26738e-20)
(-0.0365244 2.56599 0)
(0.0715704 2.54951 -5.02948e-20)
(0.143013 2.57661 3.57508e-20)
(-0.197968 2.28134 1.62265e-19)
(-0.284459 2.26071 -1.42469e-19)
(-0.206605 2.43794 0)
(-0.123165 1.86827 -7.17321e-20)
(-0.095497 1.86719 -1.29805e-19)
(-0.101382 1.85274 0)
(-0.0984052 1.9282 -3.88397e-21)
(-0.137486 1.92726 4.1703e-20)
(-0.0441066 1.78228 5.44682e-21)
(-0.0301263 1.78409 -8.3086e-20)
(-0.0315274 1.79273 2.16793e-20)
(-0.048012 1.79437 3.05213e-20)
(-0.0675109 1.79413 0)
(-0.0287531 1.79287 0)
(-0.0251206 1.78524 2.54594e-20)
(-0.0267461 1.79312 -8.49718e-21)
(-0.0268062 1.79299 0)
(-0.0233957 1.77802 1.94321e-20)
(-0.0228096 1.77805 -3.83691e-20)
(1.03236 0.0175121 0)
(1.03493 0.0176759 -2.01911e-20)
(1.03578 0.018908 -1.4745e-19)
(1.03392 0.0197559 0)
(1.03354 0.0214852 0)
(1.03822 0.0107929 -5.34506e-21)
(1.03752 0.009705 2.4754e-19)
(1.03399 0.00956664 3.01099e-19)
(1.03188 0.00737424 0)
(1.02588 0.00536047 0)
(1.0304 0.0160275 1.50511e-19)
(1.02426 0.0115596 0)
(1.02526 0.00857414 0)
(-0.0192078 1.81465 0)
(-0.0218916 1.79643 2.10961e-21)
(-0.0203721 1.80641 1.27478e-20)
(-0.0265348 1.79455 0)
(-0.0237271 1.79896 1.65338e-20)
(-0.02436 1.79682 -8.34984e-21)
(-0.0260194 1.79427 0)
(0.565646 1.64003 0)
(0.600774 1.30464 9.89454e-19)
(0.528384 1.45078 0)
(0.596496 1.3202 -1.09552e-18)
(0.543086 1.34366 0)
(0.581844 1.32024 4.87901e-19)
(1.01749 2.69203 -3.32615e-21)
(0.942794 2.36796 -1.83115e-19)
(0.859173 2.09799 2.53684e-19)
(0.838016 2.32783 9.55e-20)
(0.85761 2.49362 0)
(0.882486 2.50353 0)
(0.889857 2.339 0)
(0.904941 2.28537 -3.73736e-19)
(0.750349 2.47288 -5.35966e-21)
(0.829823 2.46964 -1.78509e-20)
(0.819466 2.44922 1.41441e-20)
(0.700492 2.36802 0)
(0.791313 2.34058 0)
(0.762063 2.36254 -1.97885e-19)
(0.803888 2.4687 0)
(0.603918 1.07341 0)
(0.48589 0.918316 4.4396e-20)
(0.5292 0.948745 1.95564e-21)
(0.512608 1.03201 0)
(0.517261 0.985387 -6.51707e-20)
(0.724804 0.874686 2.51679e-20)
(0.762694 1.00139 0)
(0.736804 0.974457 -8.38683e-20)
(0.626619 1.00423 0)
(0.608742 0.927399 0)
(1.14551 2.80173 8.10142e-20)
(1.12699 2.86654 1.47498e-19)
(0.912679 2.40618 -3.25131e-19)
(0.884018 2.37823 4.46481e-20)
(1.1049 2.76348 0)
(1.05531 2.73275 -5.38061e-20)
(1.06072 2.48916 -4.4064e-20)
(0.940544 2.20464 -2.57693e-20)
(0.454201 1.42264 0)
(0.457581 1.06498 1.08786e-19)
(0.540412 1.15732 0)
(0.839939 0.220049 0)
(0.810524 0.174096 0)
(0.772209 0.191574 0)
(0.829545 0.225244 -2.9368e-19)
(0.782277 0.227302 1.82019e-19)
(0.93294 0.0533695 -1.54898e-19)
(0.939547 0.101939 0)
(0.925955 0.107089 7.39598e-20)
(0.887604 0.0807119 3.04334e-19)
(0.886752 0.0558221 -1.87151e-19)
(1.16625 3.37519 -1.00087e-18)
(1.21332 3.29575 0)
(1.16662 3.40125 -1.97814e-18)
(0.652564 3.56319 1.6964e-18)
(0.875927 3.12703 3.9928e-19)
(0.48224 0.87245 1.93342e-19)
(0.440564 0.854087 0)
(0.34118 0.565139 -7.60462e-20)
(0.402872 0.69036 3.39664e-19)
(0.515503 0.543028 -1.03143e-19)
(0.499039 0.566194 1.16669e-19)
(0.620872 0.547889 2.49508e-19)
(0.637303 0.562432 0)
(0.593999 0.629534 0)
(0.559147 0.565076 0)
(0.911399 0.581593 -6.14917e-20)
(0.836301 0.516402 -1.69008e-19)
(0.859693 0.556439 7.19714e-20)
(0.904366 0.489371 -1.20246e-19)
(1.00583 0.461643 0)
(1.01806 0.544188 -6.33713e-22)
(0.830772 0.363588 -3.67755e-19)
(0.836314 0.351806 -4.14024e-19)
(0.81539 0.362096 2.88326e-19)
(0.798352 0.335611 -3.31822e-19)
(0.831123 0.296792 -2.46516e-19)
(0.794 0.302669 3.02111e-19)
(1.03688 0.000353711 -1.58519e-19)
(1.03912 0.0011903 3.23029e-19)
(1.02752 -0.00668445 1.96862e-19)
(1.03282 -0.00380383 -2.35797e-19)
(1.03475 0.0117765 0)
(1.03725 0.0101283 -3.89631e-19)
(-0.243135 1.91249 3.14611e-20)
(-0.249513 1.87529 0)
(-0.33766 1.97472 -1.19438e-19)
(-0.338783 1.97274 1.29952e-19)
(-0.341994 1.90403 -1.29854e-19)
(-0.326741 1.90733 0)
(-0.0287142 1.81625 0)
(-0.0276342 1.80189 -9.15151e-21)
(-0.0260835 1.79889 8.23063e-21)
(-0.0252475 1.80103 1.94843e-21)
(-0.0218569 1.81426 -1.62014e-20)
(-0.0221643 1.81655 1.00127e-20)
(0.502169 1.43042 3.59064e-19)
(0.505511 1.43347 -3.85041e-19)
(0.560734 1.32712 4.78233e-19)
(0.600777 1.39674 -2.17774e-20)
(0.631818 1.2874 0)
(0.579641 1.36095 5.70309e-19)
(0.595694 1.3633 -5.68482e-19)
(0.557053 1.30209 -4.68648e-19)
(0.554649 1.28166 0)
(0.547334 1.23557 0)
(0.793928 2.46839 7.96109e-21)
(0.739648 2.49194 4.74326e-19)
(0.799214 2.47757 -3.2209e-19)
(0.704708 2.49313 -1.01741e-19)
(0.661497 2.66289 -1.92891e-21)
(0.536846 2.68129 -8.67988e-20)
(0.951338 2.34072 -1.39365e-19)
(0.985155 2.37989 0)
(0.87006 2.10038 -1.66155e-19)
(1.02828 2.71396 0)
(1.01979 2.69171 0)
(0.618412 2.28418 2.64361e-19)
(1.04598 3.1717 5.03731e-19)
(0.920751 3.03809 -4.51833e-19)
(0.284951 0.981374 0)
(0.337626 0.851761 -1.38859e-19)
(0.483634 0.78833 -5.07679e-20)
(0.41089 2.05926 0)
(0.467156 2.78989 -2.78311e-19)
(0.434132 2.56231 0)
(0.632808 0.689184 -2.69116e-19)
(0.712374 0.670884 3.46265e-19)
(0.732601 0.616389 -3.3719e-19)
(0.611679 0.644255 -4.14422e-20)
(0.671041 0.59982 -1.71443e-19)
(1.01386 2.77932 -3.82855e-19)
(1.04145 2.84088 3.35747e-19)
(0.661148 2.20333 3.19498e-21)
(0.596762 1.72996 -3.46886e-20)
(0.722658 1.92739 1.74818e-19)
(0.997865 2.47366 -4.31437e-20)
(1.0037 2.49892 -2.38021e-19)
(0.688448 1.88229 -9.3563e-21)
(0.469643 1.33068 -1.1455e-19)
)
;

boundaryField
{
    wall-4
    {
        type            noSlip;
    }
    velocity-inlet-5
    {
        type            fixedValue;
        value           uniform (1 0 0);
    }
    velocity-inlet-6
    {
        type            fixedValue;
        value           uniform (0 3 0);
    }
    pressure-outlet-7
    {
        type            zeroGradient;
    }
    wall-8
    {
        type            noSlip;
    }
    frontAndBackPlanes
    {
        type            empty;
    }
}


// ************************************************************************* //
