/*--------------------------------*- C++ -*----------------------------------*\
  =========                 |
  \\      /  F ield         | OpenFOAM: The Open Source CFD Toolbox
   \\    /   O peration     | Website:  https://openfoam.org
    \\  /    A nd           | Version:  9
     \\/     M anipulation  |
\*---------------------------------------------------------------------------*/
FoamFile
{
    format      ascii;
    class       volScalarField;
    location    "28";
    object      p;
}
// * * * * * * * * * * * * * * * * * * * * * * * * * * * * * * * * * * * * * //

dimensions      [0 2 -2 0 0 0 0];

internalField   nonuniform List<scalar> 
2200
(
0.603043
0.581543
0.565634
0.549964
0.535353
0.522826
0.512461
0.504342
0.498606
0.495551
0.49591
0.499584
0.505784
0.51423
0.524824
0.537535
0.552263
0.568068
0.584051
0.605562
0.535482
0.532224
0.529299
0.52518
0.519714
0.513234
0.5066
0.500611
0.496064
0.493579
0.493934
0.497079
0.50212
0.508477
0.515372
0.522029
0.527646
0.531782
0.534686
0.538
0.495596
0.495817
0.497874
0.49921
0.499592
0.498733
0.496722
0.493995
0.491366
0.489783
0.490183
0.492478
0.495639
0.498761
0.501036
0.502025
0.501735
0.500648
0.498856
0.498613
0.473105
0.474559
0.477153
0.479599
0.482047
0.484058
0.485205
0.485431
0.484997
0.484575
0.485038
0.486258
0.487294
0.48752
0.486732
0.48499
0.482741
0.480452
0.477854
0.476431
0.458783
0.460744
0.463579
0.466443
0.469306
0.472121
0.474572
0.476401
0.477587
0.478261
0.478805
0.479064
0.478607
0.477329
0.475303
0.472809
0.470158
0.467367
0.464559
0.462634
0.451646
0.453243
0.455449
0.457973
0.460617
0.463255
0.465773
0.468099
0.470003
0.471325
0.471962
0.47176
0.470732
0.469061
0.467013
0.464741
0.462346
0.459963
0.457837
0.456258
0.448339
0.449362
0.450638
0.452516
0.454665
0.456811
0.458927
0.46111
0.463183
0.464825
0.465596
0.465336
0.464313
0.462899
0.461351
0.459611
0.457772
0.456095
0.454923
0.45391
0.445744
0.446387
0.447056
0.448432
0.450121
0.451847
0.453586
0.455438
0.457352
0.459096
0.46003
0.459965
0.459333
0.458441
0.457397
0.456203
0.454918
0.453807
0.45326
0.452613
0.442927
0.44335
0.443798
0.444872
0.446212
0.447637
0.449119
0.450694
0.452352
0.454008
0.455145
0.455529
0.455427
0.455054
0.454449
0.453676
0.452792
0.452033
0.451728
0.451298
0.439414
0.439703
0.440115
0.441105
0.442353
0.443739
0.445215
0.446737
0.448294
0.449907
0.451332
0.45225
0.452623
0.452553
0.452153
0.45153
0.450846
0.450236
0.449982
0.449688
0.435099
0.435262
0.435674
0.436694
0.43803
0.439591
0.441341
0.443179
0.445043
0.446917
0.448701
0.449941
0.450497
0.450434
0.450005
0.44941
0.448773
0.448196
0.447951
0.447777
0.430506
0.430572
0.430976
0.431978
0.433338
0.434994
0.436941
0.439135
0.441526
0.443988
0.446158
0.447517
0.448054
0.44806
0.447763
0.44731
0.446774
0.446308
0.446114
0.446033
0.425973
0.425975
0.426375
0.427274
0.428557
0.430146
0.432024
0.434253
0.436935
0.439905
0.442589
0.444417
0.445414
0.445946
0.446067
0.445891
0.445591
0.445318
0.445191
0.44516
0.421556
0.421453
0.421826
0.422601
0.423894
0.425452
0.427285
0.429518
0.432291
0.435622
0.438985
0.441665
0.443528
0.444668
0.445234
0.445451
0.445469
0.44541
0.445348
0.44533
0.416911
0.416846
0.417175
0.417947
0.419402
0.421062
0.423135
0.425701
0.428863
0.432733
0.436854
0.44028
0.442716
0.444303
0.445326
0.445906
0.446189
0.446292
0.446301
0.446286
0.411892
0.411897
0.412178
0.412981
0.41446
0.41635
0.41881
0.421969
0.425902
0.430703
0.43579
0.439954
0.442879
0.444894
0.446306
0.447176
0.447667
0.447926
0.448015
0.448001
0.405992
0.405953
0.406324
0.407187
0.408637
0.41067
0.413453
0.417167
0.421962
0.42795
0.434328
0.439595
0.443364
0.446069
0.447988
0.449253
0.450042
0.450494
0.45065
0.450619
0.398656
0.398591
0.39899
0.399977
0.401589
0.403871
0.407042
0.411358
0.417087
0.42441
0.432386
0.439104
0.444064
0.447681
0.450262
0.452048
0.453224
0.453893
0.454127
0.454073
0.389777
0.389704
0.390135
0.391264
0.393209
0.396016
0.399921
0.40523
0.41225
0.421215
0.431042
0.439349
0.44557
0.450113
0.453414
0.45574
0.457307
0.458171
0.458465
0.458385
0.37898
0.378922
0.379497
0.380929
0.383371
0.386935
0.391912
0.398632
0.407474
0.4186
0.430589
0.440678
0.448199
0.453724
0.457719
0.460519
0.462398
0.463417
0.46378
0.463687
0.365777
0.365685
0.36642
0.368255
0.371404
0.375989
0.382337
0.390921
0.402092
0.41592
0.430542
0.44278
0.451823
0.458492
0.463252
0.466617
0.468885
0.470097
0.47052
0.4704
0.349079
0.349021
0.350047
0.352477
0.356591
0.362563
0.370837
0.381842
0.395906
0.413002
0.43077
0.44551
0.456373
0.46438
0.470156
0.474243
0.476925
0.478349
0.478849
0.478699
0.328161
0.328035
0.329437
0.332732
0.338285
0.346359
0.357285
0.3715
0.389209
0.410192
0.431592
0.449191
0.462164
0.471683
0.478581
0.483486
0.486725
0.488441
0.489018
0.488809
0.30065
0.300778
0.303069
0.307868
0.31574
0.3269
0.341575
0.360067
0.382265
0.407828
0.433372
0.454105
0.469333
0.480537
0.488717
0.494544
0.498372
0.500366
0.501014
0.500767
0.264083
0.264469
0.268282
0.276037
0.287818
0.303809
0.323775
0.347653
0.375278
0.406159
0.436258
0.460369
0.478021
0.491035
0.500601
0.507496
0.512064
0.51445
0.51518
0.514812
0.215286
0.215825
0.223158
0.23604
0.2542
0.277228
0.303981
0.334487
0.368454
0.405215
0.440185
0.467853
0.488086
0.503047
0.514164
0.522269
0.527672
0.53035
0.531036
0.530591
0.149742
0.152759
0.168547
0.190342
0.217267
0.248422
0.28304
0.321074
0.36214
0.405531
0.446129
0.478105
0.501648
0.519296
0.532579
0.542544
0.549448
0.552656
0.553261
0.552996
0.0741834
0.0845015
0.111159
0.142803
0.17947
0.219526
0.262219
0.308059
0.356505
0.406956
0.453793
0.490787
0.518413
0.539456
0.555655
0.567958
0.577084
0.581458
0.58249
0.582806
0.00778319
0.0236878
0.0570064
0.0968828
0.142667
0.191316
0.242131
0.295716
0.351406
0.408732
0.461601
0.503319
0.534422
0.558222
0.576628
0.5908
0.600937
0.60665
0.608449
0.608447
-0.0418807
-0.0278348
0.0107003
0.0563579
0.109165
0.164923
0.223063
0.283853
0.346467
0.410459
0.468942
0.514776
0.548665
0.574589
0.594792
0.610353
0.621109
0.626934
0.628702
0.62883
-0.0827773
-0.069701
-0.0278633
0.0216096
0.0796688
0.141067
0.205447
0.272635
0.341572
0.411613
0.475099
0.524363
0.560653
0.588057
0.608875
0.624752
0.63605
0.642104
0.644157
0.644324
-0.118099
-0.10475
-0.0605943
-0.00830765
0.0537694
0.11971
0.189298
0.261938
0.336373
0.411751
0.479862
0.532325
0.570393
0.598489
0.619918
0.636206
0.647718
0.654145
0.656376
0.656549
-0.148955
-0.135485
-0.0893956
-0.0347616
0.0306383
0.100367
0.1743
0.251545
0.330834
0.411183
0.483451
0.538451
0.577756
0.606895
0.628738
0.645116
0.657204
0.663785
0.666243
0.666376
-0.176809
-0.163289
-0.115557
-0.0587398
0.00956955
0.0824775
0.160078
0.241344
0.325027
0.409953
0.486003
0.543375
0.584231
0.614037
0.636328
0.653026
0.664877
0.671836
0.674061
0.673918
-0.202303
-0.188828
-0.139842
-0.0809147
-0.00999864
0.0656095
0.146369
0.231197
0.318798
0.407716
0.487319
0.54733
0.589848
0.620582
0.643294
0.660177
0.671893
0.678574
0.680931
0.680819
-0.226386
-0.212621
-0.16267
-0.10173
-0.0284571
0.0494962
0.132977
0.220897
0.311946
0.404587
0.488153
0.551213
0.595223
0.626889
0.650012
0.666866
0.678576
0.685167
0.687507
0.687511
-0.249014
-0.235094
-0.184366
-0.121595
-0.0462745
0.0338196
0.119724
0.210364
0.304607
0.40112
0.488629
0.554573
0.600595
0.633329
0.656712
0.673628
0.685352
0.691738
0.694162
0.694158
-0.270401
-0.256519
-0.205127
-0.140805
-0.0637423
0.0183395
0.106479
0.199609
0.29678
0.39674
0.487885
0.557234
0.605756
0.639526
0.663568
0.680641
0.692369
0.698687
0.700917
0.700917
-0.291024
-0.27694
-0.22514
-0.159562
-0.0810424
0.00287951
0.0931251
0.188544
0.288399
0.391706
0.487145
0.56001
0.61065
0.646015
0.670785
0.688015
0.699621
0.705652
0.707845
0.707776
-0.311348
-0.296646
-0.244533
-0.177913
-0.0981908
-0.0126175
0.0795654
0.17714
0.279597
0.386178
0.485109
0.561307
0.615221
0.652841
0.678515
0.695851
0.707086
0.712923
0.714769
0.714607
-0.331353
-0.315861
-0.263425
-0.195851
-0.11512
-0.0281201
0.0658041
0.165402
0.270113
0.37927
0.481477
0.562013
0.619527
0.659755
0.686965
0.704477
0.715028
0.719995
0.721533
0.721278
-0.350919
-0.334676
-0.281828
-0.213339
-0.131749
-0.0435479
0.0518562
0.153141
0.25981
0.37147
0.477451
0.561867
0.623285
0.666895
0.696311
0.714299
0.723667
0.727342
0.727955
0.727694
-0.369865
-0.353083
-0.299742
-0.230348
-0.147991
-0.0588243
0.0377561
0.140481
0.249004
0.362983
0.471645
0.559824
0.626005
0.673965
0.706633
0.726121
0.734357
0.734105
0.73333
0.73384
-0.388168
-0.370985
-0.317113
-0.246856
-0.163803
-0.0738531
0.0236844
0.127629
0.237616
0.353411
0.464608
0.557238
0.627797
0.680538
0.717809
0.74026
0.748699
0.744011
0.738719
0.736475
-0.405791
-0.388291
-0.3339
-0.262849
-0.179145
-0.0885299
0.00975377
0.114602
0.225788
0.343192
0.456816
0.552411
0.627407
0.686198
0.729512
0.757255
0.770055
0.75983
0.755225
0.759937
-0.422747
-0.404931
-0.350045
-0.278293
-0.194001
-0.102824
-0.00395681
0.101591
0.213782
0.332601
0.448021
0.545893
0.625193
0.689595
0.740184
0.775994
0.79764
0.777226
0.732801
0.689519
-0.438971
-0.420916
-0.365588
-0.293273
-0.208503
-0.116878
-0.0175666
0.0884969
0.201391
0.321309
0.437769
0.537342
0.619738
0.689736
0.748378
0.795368
0.832356
0.837911
0.856616
0.907878
-0.454425
-0.436298
-0.380615
-0.307916
-0.222834
-0.13093
-0.0313685
0.0749522
0.188165
0.308422
0.42545
0.526146
0.61031
0.683999
0.746384
0.795621
0.825498
0.824865
0.794796
0.803653
-0.469078
-0.451046
-0.395083
-0.322164
-0.236912
-0.144893
-0.0452612
0.0610561
0.174169
0.294288
0.411568
0.512021
0.595282
0.668311
0.729363
0.774348
0.77713
0.73562
0.678304
0.668682
-0.482952
-0.465161
-0.408986
-0.336004
-0.250722
-0.158768
-0.0592676
0.0467788
0.159419
0.278976
0.395444
0.494356
0.574849
0.64178
0.695528
0.713674
0.684738
0.615264
0.544242
0.530348
-0.496079
-0.478634
-0.42234
-0.349455
-0.264282
-0.172573
-0.0733999
0.0321205
0.14396
0.262328
0.37729
0.473764
0.548013
0.602089
0.631644
0.623596
0.575403
0.476386
0.390498
0.372825
-0.508919
-0.491886
-0.435543
-0.362881
-0.277934
-0.186608
-0.0879242
0.0168683
0.127598
0.244321
0.356931
0.449457
0.517005
0.554811
0.550085
0.516718
0.412714
0.2919
0.18547
0.161919
-0.522361
-0.505687
-0.44929
-0.37691
-0.292254
-0.201348
-0.103238
0.000681893
0.110093
0.224716
0.334092
0.421756
0.481673
0.496504
0.459936
0.37502
0.218684
0.0663317
-0.0612754
-0.0864103
-0.536913
-0.520478
-0.463901
-0.391771
-0.307412
-0.216904
-0.119408
-0.0164366
0.0914718
0.203514
0.30886
0.390825
0.438968
0.427562
0.368626
0.219073
0.01476
-0.201463
-0.383427
-0.429604
-0.552651
-0.536299
-0.479426
-0.407489
-0.323389
-0.23324
-0.136374
-0.0344466
0.0717919
0.180928
0.281346
0.357721
0.390695
0.347662
0.254855
0.0597146
-0.181517
-0.48026
-0.81022
-0.953368
-0.569637
-0.553292
-0.495963
-0.42413
-0.340219
-0.2504
-0.154183
-0.0533706
0.0510851
0.157067
0.251618
0.321778
0.337929
0.261705
0.118358
-0.100158
-0.34892
-0.709573
-1.31586
-1.89797
-0.587887
-0.571454
-0.513566
-0.44175
-0.357917
-0.268372
-0.172782
-0.0731161
0.0294552
0.132133
0.220847
0.283189
0.283173
0.185062
-0.0148813
-0.267443
-0.487871
-0.744999
-1.33698
-2.92506
-0.607435
-0.59092
-0.532307
-0.460451
-0.376622
-0.287339
-0.192405
-0.0939803
0.00657454
0.10598
0.18897
0.242075
0.222723
0.123461
-0.115313
-0.379628
-0.543329
-0.59856
-0.615216
-1.01862
-0.628184
-0.611678
-0.552348
-0.480522
-0.396707
-0.307766
-0.213634
-0.116631
-0.0183799
0.0770899
0.15442
0.197334
0.160481
0.0749283
-0.166055
-0.398407
-0.528098
-0.546496
-0.501568
-0.546288
-0.650131
-0.63363
-0.573662
-0.502003
-0.418219
-0.329745
-0.236572
-0.141224
-0.0456736
0.0454291
0.118172
0.151346
0.104709
0.0209735
-0.203943
-0.390601
-0.486925
-0.49768
-0.543457
-0.554373
-0.673141
-0.656489
-0.596215
-0.524889
-0.441099
-0.353243
-0.261211
-0.167683
-0.075081
0.0114514
0.0794571
0.103895
0.0538789
-0.0405817
-0.235718
-0.381366
-0.467838
-0.433087
-0.458638
-0.460844
-0.696999
-0.679953
-0.619903
-0.549056
-0.465182
-0.378147
-0.287392
-0.195847
-0.106435
-0.0247026
0.0383253
0.0532596
0.0099483
-0.110994
-0.273807
-0.379976
-0.439688
-0.47303
-0.454873
-0.461585
-0.721135
-0.703755
-0.644735
-0.574275
-0.490182
-0.404187
-0.314835
-0.22541
-0.139546
-0.0623145
-0.00350217
-0.000161982
-0.0334659
-0.176227
-0.316357
-0.390885
-0.389902
-0.452814
-0.428058
-0.436356
-0.745088
-0.727666
-0.67016
-0.59996
-0.515805
-0.431103
-0.343198
-0.255907
-0.173891
-0.10119
-0.0454972
-0.0527145
-0.083549
-0.228489
-0.353281
-0.427008
-0.393172
-0.429911
-0.426649
-0.428783
-0.768362
-0.751349
-0.695351
-0.625453
-0.541664
-0.458354
-0.371872
-0.286786
-0.208838
-0.140591
-0.0860176
-0.103592
-0.1454
-0.276455
-0.370008
-0.431964
-0.447957
-0.432294
-0.437452
-0.432372
-0.790271
-0.773979
-0.71927
-0.649915
-0.567395
-0.48541
-0.40034
-0.317291
-0.243207
-0.180197
-0.124429
-0.152599
-0.211938
-0.322129
-0.375061
-0.40804
-0.474519
-0.428983
-0.441602
-0.432573
-0.809878
-0.794661
-0.741381
-0.672785
-0.592347
-0.511338
-0.427614
-0.346665
-0.275526
-0.218892
-0.161464
-0.198322
-0.285879
-0.384533
-0.391143
-0.332691
-0.428832
-0.396195
-0.431737
-0.427505
-0.826068
-0.812245
-0.760807
-0.693372
-0.615265
-0.535085
-0.452847
-0.37376
-0.304851
-0.255118
-0.196859
-0.236643
-0.363327
-0.457947
-0.42136
-0.303321
-0.35284
-0.385348
-0.412278
-0.42513
-0.837765
-0.825737
-0.77689
-0.710956
-0.634773
-0.55564
-0.474928
-0.397382
-0.329504
-0.285998
-0.231836
-0.261267
-0.440106
-0.60705
-0.665203
-0.661796
-0.662653
-0.652843
-0.642681
-0.632291
-0.843959
-0.833912
-0.788204
-0.724064
-0.649498
-0.571666
-0.492435
-0.41635
-0.348719
-0.307477
-0.264737
-0.27791
-0.501758
-0.824117
-1.23565
-1.43621
-1.46641
-1.42644
-1.34077
-1.26465
-0.843811
-0.835668
-0.79372
-0.731473
-0.658439
-0.582221
-0.504239
-0.428604
-0.360469
-0.315903
-0.283415
-0.282535
-0.5161
-0.905253
-1.45555
-1.76906
-1.81904
-1.71664
-1.61595
-1.53223
-0.836252
-0.829141
-0.791535
-0.732021
-0.660881
-0.585946
-0.50875
-0.432717
-0.361077
-0.308733
-0.275343
-0.257677
-0.407701
-0.605024
-0.859152
-0.969318
-0.911871
-0.813571
-0.682247
-0.602898
-0.818679
-0.811524
-0.780054
-0.724601
-0.655906
-0.582158
-0.505153
-0.427686
-0.349753
-0.282414
-0.232738
-0.152776
-0.109796
0.0619924
0.233681
0.396489
0.559119
0.669654
0.735019
0.776143
-0.786576
-0.779952
-0.75772
-0.709025
-0.643558
-0.570966
-0.493623
-0.413187
-0.326953
-0.238453
-0.16011
-0.00970192
0.204274
0.585569
0.984054
1.30907
1.53908
1.67972
1.74767
1.77135
-0.739979
-0.735278
-0.72659
-0.686353
-0.62473
-0.552884
-0.475221
-0.391894
-0.299879
-0.192362
-0.0848674
0.0633378
0.374181
0.784078
1.20001
1.55435
1.81633
1.97388
2.04313
2.06049
-0.699995
-0.699013
-0.695179
-0.660606
-0.602999
-0.532288
-0.453538
-0.369074
-0.276648
-0.163143
-0.045488
0.0581028
0.327433
0.669616
1.01138
1.30452
1.53458
1.67559
1.74165
1.76176
-0.669339
-0.671455
-0.664704
-0.635337
-0.579139
-0.510273
-0.432851
-0.350051
-0.262882
-0.16235
-0.0544442
0.0169219
0.20278
0.468701
0.736502
0.953417
1.12398
1.23807
1.29304
1.31129
-0.627333
-0.629558
-0.626456
-0.603667
-0.550479
-0.485711
-0.41322
-0.335664
-0.2573
-0.175297
-0.0779444
-0.0208596
0.0953917
0.300574
0.515352
0.680001
0.806517
0.897934
0.939429
0.950359
-0.569166
-0.570623
-0.571257
-0.554493
-0.51025
-0.454646
-0.392027
-0.323946
-0.255686
-0.188588
-0.103325
-0.052204
0.013034
0.163104
0.330321
0.451819
0.541921
0.607927
0.637504
0.643592
-0.491827
-0.493607
-0.494204
-0.483245
-0.452181
-0.411944
-0.363596
-0.30892
-0.250277
-0.194692
-0.124022
-0.0772999
-0.0406589
0.0668253
0.189425
0.273562
0.338021
0.384607
0.406365
0.41347
-0.405002
-0.40664
-0.406928
-0.400451
-0.382877
-0.358161
-0.325041
-0.28633
-0.237555
-0.194339
-0.139175
-0.0968077
-0.0768197
0.00546963
0.0920112
0.146725
0.195941
0.232737
0.248935
0.254321
-0.324804
-0.325994
-0.326618
-0.323849
-0.315785
-0.302749
-0.283248
-0.259274
-0.221815
-0.190956
-0.150705
-0.113379
-0.10167
-0.0363747
0.0270935
0.0658677
0.0994607
0.124392
0.138316
0.142888
-0.262928
-0.263652
-0.264505
-0.264556
-0.262414
-0.257121
-0.247137
-0.233677
-0.208079
-0.185861
-0.156772
-0.130725
-0.117991
-0.0684745
-0.0259769
0.00580407
0.029412
0.0435306
0.0505366
0.0517134
-0.222623
-0.223136
-0.224235
-0.225915
-0.227259
-0.226471
-0.221759
-0.214309
-0.197959
-0.179716
-0.157774
-0.1435
-0.130124
-0.097013
-0.0668957
-0.0437885
-0.0280628
-0.0222607
-0.0217962
-0.0223341
-0.200282
-0.200644
-0.201748
-0.203866
-0.20668
-0.208042
-0.206177
-0.201826
-0.189652
-0.173732
-0.154519
-0.145191
-0.136998
-0.114653
-0.0925402
-0.0792657
-0.0724084
-0.0698355
-0.0708958
-0.0727266
-0.190863
-0.191012
-0.191778
-0.193622
-0.196324
-0.198157
-0.197497
-0.195086
-0.182676
-0.168344
-0.14623
-0.137007
-0.131288
-0.118289
-0.10436
-0.0979194
-0.0954244
-0.0942003
-0.0955754
-0.0985612
-0.191483
-0.191378
-0.191605
-0.192647
-0.194322
-0.195351
-0.193948
-0.19021
-0.180452
-0.16597
-0.13656
-0.12181
-0.117
-0.112167
-0.104401
-0.102721
-0.105407
-0.112535
-0.115708
-0.11708
-0.201483
-0.201108
-0.200785
-0.200824
-0.201232
-0.200636
-0.198443
-0.19181
-0.180575
-0.165193
-0.13882
-0.105754
-0.101238
-0.100044
-0.10123
-0.10559
-0.106962
-0.113544
-0.117119
-0.116846
-0.221766
-0.220953
-0.22027
-0.218726
-0.218113
-0.216207
-0.213186
-0.205587
-0.194253
-0.174742
-0.138782
-0.109624
-0.0933767
-0.102177
-0.096892
-0.0953104
-0.0834206
-0.0710737
-0.0707673
-0.0715965
-0.250261
-0.249512
-0.248804
-0.247551
-0.246159
-0.243382
-0.240193
-0.233044
-0.224046
-0.204009
-0.168301
-0.133293
-0.113964
-0.121932
-0.092193
-0.0749201
-0.0522008
-0.0258289
-0.013848
-0.0255954
-0.287933
-0.287147
-0.28655
-0.285574
-0.28448
-0.282916
-0.281896
-0.27948
-0.277425
-0.264177
-0.229077
-0.184881
-0.174917
-0.17067
-0.127851
-0.09017
-0.0669926
-0.0524008
-0.0384658
-0.0473297
-0.334575
-0.333944
-0.333523
-0.33334
-0.333719
-0.33543
-0.340154
-0.348583
-0.359532
-0.36032
-0.320354
-0.253766
-0.240037
-0.226076
-0.189569
-0.155426
-0.129345
-0.128751
-0.119613
-0.119058
-0.385951
-0.385803
-0.386207
-0.387442
-0.390774
-0.39834
-0.413382
-0.438824
-0.469529
-0.496307
-0.455096
-0.348189
-0.308582
-0.275048
-0.237051
-0.205735
-0.164706
-0.154084
-0.165161
-0.16079
-0.4343
-0.434777
-0.436451
-0.43996
-0.447719
-0.463855
-0.494399
-0.544106
-0.611468
-0.676702
-0.636075
-0.489968
-0.41804
-0.353144
-0.287493
-0.242238
-0.209004
-0.185792
-0.200929
-0.201471
-0.467201
-0.468645
-0.472041
-0.478413
-0.491462
-0.517596
-0.566059
-0.64644
-0.769717
-0.869108
-0.829654
-0.660545
-0.558217
-0.454279
-0.367637
-0.303711
-0.295189
-0.282386
-0.279963
-0.280794
-0.472856
-0.474794
-0.478886
-0.488536
-0.505397
-0.538808
-0.600799
-0.705131
-0.859594
-0.999875
-1.00159
-0.788851
-0.659676
-0.520918
-0.431239
-0.37588
-0.343699
-0.360841
-0.349833
-0.349511
-0.440378
-0.442629
-0.445841
-0.454011
-0.47392
-0.51145
-0.576898
-0.686854
-0.853653
-1.02233
-1.02335
-0.822051
-0.657144
-0.529692
-0.437993
-0.406831
-0.380608
-0.384619
-0.382242
-0.381773
-0.376843
-0.379081
-0.382636
-0.389917
-0.405805
-0.438432
-0.497552
-0.598163
-0.746849
-0.894533
-0.897728
-0.720152
-0.558057
-0.492403
-0.446818
-0.393165
-0.406562
-0.395643
-0.392227
-0.390263
-0.284866
-0.286391
-0.289077
-0.293995
-0.305101
-0.329392
-0.376197
-0.455537
-0.570086
-0.676193
-0.667363
-0.527739
-0.43335
-0.412792
-0.403683
-0.381835
-0.377512
-0.368498
-0.362604
-0.360163
-0.18596
-0.186705
-0.188205
-0.190666
-0.197077
-0.212014
-0.241199
-0.290353
-0.36311
-0.434309
-0.411159
-0.309075
-0.297943
-0.309307
-0.304111
-0.322805
-0.299361
-0.294889
-0.289943
-0.287712
-0.0923088
-0.0924967
-0.0923354
-0.0923336
-0.094082
-0.100048
-0.113111
-0.139854
-0.180655
-0.221256
-0.201492
-0.159485
-0.165106
-0.169104
-0.188345
-0.198029
-0.186362
-0.183488
-0.181994
-0.180714
-0.0122386
-0.0115421
-0.00936368
-0.00637534
-0.00388166
-0.00301482
-0.00376192
-0.00843469
-0.0132926
-0.0241531
-0.0711544
-0.114856
-0.103845
-0.0803521
-0.0766944
-0.0671795
-0.0571208
-0.0556045
-0.0553702
-0.0550324
-1.30756
-0.434494
-0.161857
0.124267
0.31657
0.482892
0.621936
0.763065
0.914053
0.991137
-0.298666
0.124108
0.149413
0.344112
0.477828
0.597343
0.701135
0.792542
0.822776
0.7788
0.10073
0.323605
0.365632
0.505647
0.598241
0.68342
0.753695
0.806051
0.809964
0.822465
0.341586
0.493245
0.529578
0.637644
0.696323
0.758088
0.805193
0.838676
0.848554
0.871679
0.530643
0.634436
0.664736
0.737891
0.782384
0.826256
0.859699
0.884602
0.894982
0.926071
0.676286
0.748675
0.779181
0.824989
0.861969
0.893395
0.918584
0.939589
0.954234
0.982172
0.798576
0.850967
0.877164
0.906519
0.935252
0.959742
0.980261
0.999756
1.01493
1.04122
0.904116
0.942538
0.964031
0.985358
1.00695
1.02687
1.04456
1.06289
1.07785
1.10145
0.999645
1.02873
1.04603
1.06179
1.07842
1.09482
1.11055
1.12762
1.14122
1.16353
1.08871
1.10962
1.12483
1.13828
1.15212
1.16609
1.17965
1.19428
1.20581
1.22548
1.1751
1.191
1.20498
1.21698
1.22904
1.24072
1.25186
1.26356
1.27122
1.28803
1.26067
1.27362
1.28743
1.29912
1.30969
1.31944
1.32821
1.33645
1.34002
1.35131
1.35004
1.36104
1.37451
1.38373
1.39115
1.39834
1.40554
1.4121
1.4131
1.42054
1.44849
1.45322
1.46126
1.46575
1.46903
1.47349
1.47949
1.48726
1.49108
1.50097
1.5618
1.54809
1.54065
1.53502
1.53236
1.53376
1.54026
1.55267
1.56743
1.59708
1.6827
1.62698
1.59612
1.57905
1.57091
1.5709
1.57959
1.59909
1.63111
1.70029
)
;

boundaryField
{
    wall-4
    {
        type            zeroGradient;
    }
    pressure-outlet-7
    {
        type            fixedValue;
        value           uniform 0;
    }
    velocity-inlet-6
    {
        type            zeroGradient;
    }
    velocity-inlet-5
    {
        type            zeroGradient;
    }
    frontAndBackPlanes
    {
        type            empty;
    }
}


// ************************************************************************* //
