/*--------------------------------*- C++ -*----------------------------------*\
  =========                 |
  \\      /  F ield         | OpenFOAM: The Open Source CFD Toolbox
   \\    /   O peration     | Website:  https://openfoam.org
    \\  /    A nd           | Version:  9
     \\/     M anipulation  |
\*---------------------------------------------------------------------------*/
FoamFile
{
    format      ascii;
    class       surfaceScalarField;
    location    "28";
    object      phi;
}
// * * * * * * * * * * * * * * * * * * * * * * * * * * * * * * * * * * * * * //

dimensions      [0 3 -1 0 0 0 0];

internalField   nonuniform List<scalar> 
4262
(
0.107147
0.470841
0.0955936
0.70514
0.0694435
0.858453
0.047498
1.02071
0.0311963
1.21482
0.0200266
1.44939
0.0125999
1.73329
0.00731579
2.07632
0.00329861
2.48926
-0.000265074
2.98586
-0.00381073
2.98584
-0.00780644
2.48924
-0.0130471
2.07628
-0.0204019
1.73322
-0.0314302
1.44925
-0.0475872
1.21467
-0.0693857
1.02056
-0.0955006
0.858418
-0.107167
0.705253
0.470821
0.112872
0.357969
0.135289
0.682723
0.12035
0.873392
0.0977593
1.0433
0.0745267
1.23805
0.0527566
1.47116
0.0343093
1.75174
0.0202636
2.09037
0.00919869
2.50033
-0.000928991
2.99598
-0.0110439
2.99595
-0.0219599
2.50016
-0.0358016
2.09012
-0.0541022
1.75152
-0.0758009
1.47095
-0.0991525
1.23802
-0.121999
1.04341
-0.136282
0.872701
-0.113298
0.682268
0.357523
0.0920304
0.265939
0.124953
0.649801
0.121068
0.877277
0.10463
1.05974
0.085767
1.25691
0.0667007
1.49023
0.0480696
1.77037
0.030322
2.10811
0.0140519
2.5166
-0.00149529
3.01153
-0.0170504
3.01151
-0.0331001
2.5162
-0.0505546
2.10757
-0.0686711
1.76964
-0.0872182
1.48949
-0.10533
1.25614
-0.120678
1.05876
-0.125258
0.877281
-0.0922289
0.649239
0.265294
0.0640034
0.201935
0.104903
0.608901
0.106832
0.875348
0.0955876
1.07098
0.081568
1.27093
0.0668515
1.50494
0.0508889
1.78633
0.0339052
2.1251
0.0163541
2.53415
-0.00238746
3.03027
-0.0208175
3.02994
-0.0377374
2.53312
-0.0540126
2.12385
-0.069598
1.78522
-0.0839766
1.50387
-0.0977901
1.26995
-0.109047
1.07001
-0.106275
0.874509
-0.064568
0.607532
0.200726
0.0374022
0.164533
0.080505
0.565798
0.0908106
0.865042
0.083962
1.07783
0.0718711
1.28302
0.060017
1.5168
0.0468922
1.79946
0.0320346
2.13995
0.0155881
2.55059
-0.00302819
3.04889
-0.0213669
3.04828
-0.0373628
2.54912
-0.0518247
2.13831
-0.0643041
1.7977
-0.0755015
1.51507
-0.0870586
1.28151
-0.0933053
1.07626
-0.0820954
0.863299
-0.0379869
0.563424
0.162739
0.0193059
0.145227
0.056827
0.528277
0.0719974
0.849872
0.0699492
1.07988
0.06157
1.2914
0.0513023
1.52706
0.0402822
1.81048
0.0278069
2.15243
0.0129514
2.56545
-0.0041815
3.06602
-0.0210822
3.06518
-0.0353268
2.56337
-0.0468277
2.14981
-0.0568488
1.80772
-0.0663616
1.52458
-0.0739298
1.28908
-0.0751017
1.07743
-0.058736
0.846933
-0.0199245
0.524613
0.142815
0.0105897
0.134637
0.0422931
0.496574
0.0585087
0.833656
0.0586885
1.0797
0.0524977
1.29759
0.0434043
1.53616
0.0335406
1.82034
0.0225436
2.16343
0.00996101
2.57803
-0.00498236
3.08096
-0.0195748
3.07977
-0.0313448
2.57514
-0.041272
2.15974
-0.0502798
1.81673
-0.0584525
1.53276
-0.0635405
1.29416
-0.0622467
1.07614
-0.0445845
0.829271
-0.0113226
0.491351
0.131492
0.00647502
0.128162
0.0323163
0.470733
0.0483816
0.817591
0.049878
1.0782
0.0448673
1.30261
0.0367816
1.54424
0.0276338
1.82949
0.0175149
2.17355
0.00628673
2.58926
-0.00658301
3.09383
-0.0188846
3.09207
-0.0290154
2.58527
-0.0378881
2.16861
-0.0453066
1.82415
-0.0519022
1.53935
-0.0557075
1.29797
-0.0529006
1.07333
-0.0349734
0.811344
-0.00728376
0.463661
0.124208
0.00422576
0.123937
0.0250118
0.449947
0.0403216
0.802281
0.0426097
1.07591
0.0383672
1.30685
0.0313669
1.55124
0.0232029
1.83765
0.014029
2.18272
0.00364049
2.59965
-0.00813171
3.10561
-0.019334
3.10327
-0.0283994
2.59433
-0.0359478
2.17616
-0.0425815
1.83078
-0.0482544
1.54502
-0.0507874
1.3005
-0.0463773
1.06892
-0.0285435
0.79351
-0.00535734
0.440475
0.118851
0.00316172
0.120775
0.0199199
0.433189
0.0343077
0.787893
0.037388
1.07283
0.0338313
1.3104
0.027247
1.55783
0.0195921
1.84531
0.0107074
2.1916
0.000728066
2.60963
-0.010273
3.11661
-0.0205057
3.11351
-0.0286089
2.60243
-0.0352438
2.18279
-0.0409034
1.83644
-0.0452142
1.54933
-0.0465835
1.30187
-0.0411629
1.0635
-0.0239226
0.776269
-0.00444244
0.420995
0.114409
0.00238077
0.118394
0.0148813
0.420688
0.0274764
0.775298
0.0306646
1.06965
0.0278446
1.31322
0.0224454
1.56323
0.0158581
1.85189
0.0077945
2.19967
-0.00180017
2.61922
-0.0125792
3.12739
-0.0224411
3.12337
-0.0299841
2.60998
-0.0356
2.18841
-0.0394927
1.84033
-0.0423461
1.55219
-0.0426849
1.30221
-0.0364287
1.05724
-0.0199716
0.759812
-0.00398745
0.405011
0.110421
0.00137701
0.117017
0.00970442
0.412361
0.0201287
0.764874
0.0229546
1.06682
0.0203248
1.31585
0.0155
1.56805
0.00933902
1.85805
0.00209689
2.20691
-0.00638525
2.6277
-0.0158688
3.13687
-0.0241806
3.13168
-0.0298503
2.61565
-0.0336134
2.19217
-0.0364552
1.84318
-0.0381769
1.55391
-0.0373697
1.3014
-0.0306279
1.0505
-0.0157424
0.744927
-0.00347051
0.392739
0.106951
0.000390117
0.116627
0.00467868
0.408072
0.0121836
0.757369
0.0143221
1.06468
0.0118472
1.31833
0.0075536
1.57235
0.00198259
1.86363
-0.00452196
2.21342
-0.0116499
2.63483
-0.0190568
3.14428
-0.0250405
3.13766
-0.0289624
2.61957
-0.0315587
2.19477
-0.0333306
1.84495
-0.0340071
1.55459
-0.0325039
1.2999
-0.025329
1.04333
-0.0120401
0.731638
-0.00280976
0.383508
0.104141
-0.000526285
0.117153
0.00053084
0.407015
0.00574573
0.752154
0.00740877
1.06302
0.00489195
1.32085
0.000389188
1.57685
-0.00524311
1.86926
-0.0115489
2.21972
-0.0181337
2.64142
-0.0244719
3.15062
-0.0290882
3.14228
-0.0315672
2.62205
-0.0325949
2.1958
-0.0323953
1.84475
-0.0313055
1.5535
-0.0285647
1.29716
-0.0210722
1.03584
-0.00955149
0.720117
-0.00236893
0.376326
0.101772
-0.00138124
0.118534
-0.00238187
0.408016
-0.000411702
0.750184
6.07502e-05
1.06255
-0.00260625
1.32351
-0.00681827
1.58106
-0.0120502
1.87449
-0.0179469
2.22562
-0.0242092
2.64768
-0.0300814
3.15649
-0.0337198
3.14592
-0.0347997
2.62313
-0.0343137
2.19531
-0.0329069
1.84334
-0.0308258
1.55142
-0.0272172
1.29355
-0.0193442
1.02796
-0.00874998
0.709523
-0.00234021
0.369916
0.0994317
-0.00244481
0.120979
-0.00565264
0.411223
-0.00664778
0.751179
-0.00732255
1.06322
-0.0104433
1.32663
-0.0150745
1.58569
-0.020391
1.87981
-0.0261743
2.2314
-0.0321692
2.65367
-0.0374271
3.16175
-0.0398678
3.14836
-0.0393264
2.62259
-0.0374415
2.19343
-0.0350069
1.84091
-0.0314057
1.54781
-0.0261657
1.28831
-0.0178208
1.01962
-0.00827176
0.699974
-0.0023751
0.364019
0.0970566
-0.00339978
0.124379
-0.00882631
0.41665
-0.0123238
0.754677
-0.015184
1.06608
-0.0188882
1.33034
-0.0236859
1.59049
-0.0293359
1.88546
-0.0354541
2.23752
-0.0414027
2.65962
-0.0460659
3.16641
-0.0472928
3.14959
-0.0452461
2.62054
-0.0416395
2.18982
-0.0375611
1.83683
-0.0329718
1.54322
-0.0271428
1.28248
-0.0184543
1.01093
-0.00889729
0.690417
-0.00261911
0.357741
0.0944375
-0.00387292
0.128252
-0.0109533
0.42373
-0.0164589
0.760182
-0.0204189
1.07004
-0.0253805
1.3353
-0.031573
1.59668
-0.0384789
1.89236
-0.0458695
2.24491
-0.0528603
2.66661
-0.0577844
3.17133
-0.0581094
3.14991
-0.0551074
2.61754
-0.0502969
2.18501
-0.0446948
1.83123
-0.0381273
1.53666
-0.0302436
1.2746
-0.020232
1.00092
-0.0102397
0.680425
-0.00313567
0.350637
0.0913018
-0.00499132
0.133243
-0.0143414
0.43308
-0.0224856
0.768326
-0.0279041
1.07546
-0.0331712
1.34057
-0.0398882
1.6034
-0.0480534
1.90053
-0.0571319
2.25399
-0.0656897
2.67517
-0.0715813
3.17722
-0.0719513
3.15028
-0.0682582
2.61385
-0.0617179
2.17847
-0.0541624
1.82367
-0.0457469
1.52824
-0.0362488
1.2651
-0.0246655
0.989334
-0.0129072
0.668666
-0.00397097
0.341701
0.0873308
-0.00619231
0.139436
-0.0174851
0.444373
-0.0279217
0.778763
-0.0354211
1.08296
-0.0424627
1.34761
-0.0511366
1.61207
-0.0614642
1.91086
-0.0725525
2.26508
-0.0828932
2.68551
-0.0895053
3.18384
-0.089216
3.14999
-0.0839921
2.60862
-0.0761685
2.17065
-0.0669592
1.81446
-0.0561289
1.51741
-0.0433991
1.25237
-0.0290768
0.975012
-0.0154773
0.655067
-0.00485212
0.331076
0.0824787
-0.00834644
0.147782
-0.0234242
0.459451
-0.0371909
0.79253
-0.0468798
1.09265
-0.0554091
1.35614
-0.0659049
1.62257
-0.078372
1.92332
-0.0917162
2.27842
-0.103432
2.69723
-0.11005
3.19046
-0.10897
3.14891
-0.102259
2.60191
-0.0920167
2.1604
-0.0796836
1.80213
-0.0660766
1.5038
-0.050907
1.2372
-0.0346063
0.958711
-0.0186667
0.639127
-0.0057608
0.31817
0.0767179
-0.0103507
0.158133
-0.0292162
0.478317
-0.0473243
0.810638
-0.060847
1.10617
-0.0726416
1.36793
-0.08622
1.63615
-0.101806
1.93891
-0.117444
2.29406
-0.130283
2.71007
-0.136581
3.19675
-0.133316
3.14565
-0.123451
2.59205
-0.110451
2.1474
-0.0954503
1.78713
-0.0788599
1.48721
-0.0604274
1.21877
-0.0407764
0.93906
-0.021953
0.620304
-0.00674722
0.302964
0.0699707
-0.0149817
0.173114
-0.0406165
0.503951
-0.0638618
0.833883
-0.0813992
1.12371
-0.0969088
1.38344
-0.114291
1.65353
-0.132763
1.95738
-0.15018
2.31148
-0.163229
2.72312
-0.167587
3.20111
-0.160917
3.13898
-0.147825
2.57895
-0.131196
2.13077
-0.112247
1.76818
-0.0919825
1.46695
-0.0706603
1.19745
-0.0485795
0.91698
-0.0264899
0.598214
-0.00795524
0.284429
0.0620154
-0.0190463
0.192161
-0.0523352
0.53724
-0.0837054
0.865253
-0.108174
1.14818
-0.130147
1.40541
-0.152205
1.67559
-0.173672
1.97885
-0.192044
2.32985
-0.203831
2.7349
-0.204948
3.20223
-0.194015
3.12804
-0.175984
2.56092
-0.15494
2.10973
-0.132608
1.74585
-0.109426
1.44377
-0.0848192
1.17284
-0.0581026
0.890263
-0.0309904
0.571102
-0.00904491
0.262484
0.0529705
-0.0332159
0.225377
-0.0785968
0.582621
-0.118363
0.905019
-0.149073
1.17889
-0.176782
1.43312
-0.203155
1.70196
-0.226455
2.00215
-0.244264
2.34766
-0.253277
2.74392
-0.249437
3.19839
-0.231692
3.1103
-0.207975
2.53721
-0.18223
2.08399
-0.155377
1.71899
-0.127942
1.41633
-0.0993463
1.14424
-0.0687492
0.859666
-0.0369989
0.539352
-0.0104467
0.235932
0.0425239
-0.0471458
0.272522
-0.115558
0.651034
-0.170049
0.95951
-0.20883
1.21767
-0.243199
1.46749
-0.271639
1.7304
-0.294017
2.02452
-0.308268
2.36191
-0.311028
2.74668
-0.298732
3.18609
-0.274032
3.0856
-0.244852
2.50803
-0.214062
2.05319
-0.183547
1.68848
-0.153267
1.38605
-0.120811
1.11179
-0.0833524
0.822207
-0.0419381
0.497938
-0.0104096
0.204403
0.0321142
-0.0322408
0.304763
-0.0896823
0.708475
-0.140551
1.01038
-0.184537
1.26165
-0.225858
1.50881
-0.262526
1.76707
-0.296733
2.05873
-0.325773
2.39095
-0.345841
2.76674
-0.350667
3.19092
-0.33432
3.06925
-0.303883
2.47759
-0.266373
2.01568
-0.224559
1.64666
-0.180308
1.3418
-0.133413
1.06489
-0.0824156
0.771209
-0.0355421
0.451064
-0.00774742
0.176608
0.0243668
-0.0102052
0.314968
-0.0398832
0.738153
-0.0775934
1.04809
-0.11465
1.29871
-0.150674
1.54484
-0.184903
1.8013
-0.216168
2.09
-0.24155
2.41633
-0.256803
2.782
-0.254628
3.18874
-0.23215
3.04677
-0.199906
2.44535
-0.16266
1.97844
-0.123705
1.60771
-0.0845551
1.30265
-0.0470592
1.0274
-0.0166677
0.740818
1.59611e-05
0.43438
0.00233554
0.174289
0.0267024
0.00294287
0.312025
-0.0179338
0.75903
-0.0455567
1.07571
-0.0749759
1.32813
-0.104805
1.57467
-0.134272
1.83076
-0.161507
2.11723
-0.183302
2.43813
-0.19552
2.79421
-0.192102
3.18533
-0.172171
3.02684
-0.141699
2.41487
-0.105376
1.94212
-0.0680066
1.57034
-0.0334614
1.26811
-0.004882
0.998816
0.0137208
0.722215
0.0158211
0.43228
0.00673044
0.18338
0.0334328
0.00299904
0.309026
-0.00777911
0.769808
-0.0282154
1.09615
-0.0525681
1.35248
-0.0774906
1.59959
-0.102423
1.8557
-0.125668
2.14048
-0.144303
2.45676
-0.154178
2.80409
-0.149562
3.18071
-0.128099
3.00538
-0.0978907
2.38466
-0.0666799
1.91091
-0.0377184
1.54138
-0.0118345
1.24222
0.00871366
0.978268
0.0199634
0.710965
0.0180372
0.434206
0.00689269
0.194524
0.0403255
0.00533101
0.303695
-0.00216655
0.777306
-0.019926
1.11391
-0.0403635
1.37292
-0.0615046
1.62073
-0.0830462
1.87724
-0.103387
2.16082
-0.120013
2.47339
-0.129033
2.81311
-0.125528
3.17721
-0.107569
2.98742
-0.084048
2.36114
-0.0589935
1.88585
-0.0334051
1.51579
-0.00893338
1.21775
0.0101911
0.959144
0.018496
0.70266
0.0147498
0.437953
0.00512012
0.204154
0.0454456
0.00590886
0.297787
0.000643763
0.782571
-0.0149672
1.12952
-0.0334775
1.39143
-0.0524922
1.63975
-0.0717292
1.89648
-0.0900234
2.17911
-0.10509
2.48845
-0.113228
2.82125
-0.109598
3.17358
-0.093565
2.97139
-0.0720303
2.33961
-0.0475326
1.86135
-0.0236166
1.49187
-0.00456928
1.1987
0.00864666
0.945928
0.014748
0.696559
0.0110156
0.441685
0.00360026
0.211569
0.0490459
0.00394883
0.293838
0.000146287
0.786373
-0.0133634
1.14303
-0.0300347
1.4081
-0.0475971
1.65731
-0.0653492
1.91423
-0.0823676
2.19613
-0.0967148
2.5028
-0.10537
2.8299
-0.104026
3.17223
-0.0907156
2.95808
-0.0704899
2.31938
-0.0498145
1.84068
-0.0320721
1.47413
-0.014979
1.18161
-0.00114374
0.932092
0.00443819
0.690977
0.00466841
0.441455
0.00176941
0.214468
0.0508153
0.0026208
0.291217
-0.0006088
0.789603
-0.0128241
1.15524
-0.0284899
1.42377
-0.0452373
1.67405
-0.0620542
1.93104
-0.0783402
2.21241
-0.0925021
2.51696
-0.101476
2.83888
-0.100469
3.17123
-0.0873849
2.94499
-0.0703888
2.30239
-0.05288
1.82317
-0.0342765
1.45553
-0.019248
1.16658
-0.0087984
0.921643
-0.00310322
0.685282
-0.00260031
0.440952
-0.000838952
0.212707
0.0499763
-0.000126236
0.291343
-0.00341222
0.792889
-0.0139749
1.16581
-0.0284161
1.43821
-0.0442523
1.68989
-0.0605367
1.94733
-0.0766052
2.22848
-0.0910265
2.53138
-0.101168
2.84902
-0.103107
3.17316
-0.0932088
2.93509
-0.076262
2.28544
-0.0571693
1.80408
-0.0414881
1.43985
-0.028248
1.15334
-0.0182169
0.911612
-0.0112136
0.678278
-0.00592409
0.435662
-0.00183968
0.208622
0.0481366
-0.000573226
0.291916
-0.00536454
0.79768
-0.015587
1.17603
-0.0288141
1.45143
-0.0440213
1.7051
-0.0600105
1.96332
-0.0760857
2.24456
-0.090856
2.54615
-0.10159
2.85975
-0.103396
3.17497
-0.0940088
2.92571
-0.0798932
2.27132
-0.0653002
1.78948
-0.048903
1.42345
-0.0349423
1.13938
-0.0227457
0.899415
-0.0142161
0.669749
-0.00826096
0.429707
-0.00255863
0.20292
0.045578
-0.00256944
0.294486
-0.00792882
0.803039
-0.0174807
1.18558
-0.0298746
1.46383
-0.0442281
1.71945
-0.0598024
1.97889
-0.075979
2.26073
-0.0913097
2.56148
-0.103611
2.87205
-0.109909
3.18127
-0.104929
2.92073
-0.0897159
2.25611
-0.0714434
1.77121
-0.0568378
1.40884
-0.042234
1.12478
-0.0309691
0.88815
-0.0206643
0.659444
-0.0102107
0.419253
-0.00315261
0.195862
0.0424254
-0.00387857
0.298364
-0.00927693
0.808438
-0.0185774
1.19488
-0.0305621
1.47581
-0.0444599
1.73335
-0.059774
1.99421
-0.0760839
2.27704
-0.0922431
2.57764
-0.10627
2.88608
-0.113736
3.18873
-0.10828
2.91527
-0.096325
2.24416
-0.0810569
1.75594
-0.062917
1.3907
-0.0476365
1.1095
-0.0333888
0.873902
-0.021455
0.64751
-0.0116947
0.409493
-0.00349083
0.187658
0.0389346
-0.00443817
0.302803
-0.0107761
0.814776
-0.0199666
1.20407
-0.0314543
1.4873
-0.0447435
1.74664
-0.0596757
2.00914
-0.0760544
2.29342
-0.0928391
2.59443
-0.107937
2.90118
-0.117583
3.19838
-0.117009
2.9147
-0.105553
2.2327
-0.0871299
1.73752
-0.0699056
1.37348
-0.0540234
1.09362
-0.0409333
0.860812
-0.0275536
0.63413
-0.0131655
0.395105
-0.0037388
0.178231
0.0351958
-0.00445617
0.307259
-0.0111263
0.821446
-0.0203449
1.21329
-0.0316496
1.49861
-0.0447192
1.75971
-0.0594493
2.02387
-0.0758756
2.30985
-0.0932497
2.6118
-0.110246
2.91817
-0.1237
3.21183
-0.125368
2.91636
-0.114585
2.22192
-0.0988991
1.72183
-0.0785007
1.35308
-0.0597945
1.07491
-0.0419629
0.842981
-0.0265118
0.618679
-0.013707
0.3823
-0.00368331
0.168208
0.0315125
-0.00451256
0.311771
-0.0117478
0.828681
-0.0208537
1.2224
-0.0318272
1.50958
-0.0445272
1.77241
-0.0589787
2.03832
-0.0754147
2.32629
-0.0934402
2.62983
-0.111687
2.93642
-0.126775
3.22692
-0.13145
2.92104
-0.124661
2.21513
-0.106791
1.70396
-0.0862637
1.33255
-0.0646199
1.05327
-0.0473895
0.82575
-0.0315208
0.602811
-0.0142883
0.365068
-0.0033868
0.157306
0.0281257
-0.00447263
0.316244
-0.0116361
0.835845
-0.0205872
1.23135
-0.0313763
1.52037
-0.0439158
1.78495
-0.058225
2.05263
-0.0746527
2.34271
-0.092929
2.6481
-0.111975
2.95547
-0.12943
3.24438
-0.137804
2.92941
-0.131653
2.20898
-0.117686
1.69
-0.0953717
1.31024
-0.07059
1.02848
-0.0449827
0.800143
-0.0245605
0.582388
-0.0115076
0.352015
-0.00255951
0.148358
0.0255662
-0.00451585
0.32076
-0.0118016
0.84313
-0.0204701
1.24002
-0.0308893
1.53079
-0.0430761
1.79713
-0.0571117
2.06666
-0.0734279
2.35903
-0.0920563
2.66673
-0.112694
2.9761
-0.132933
3.26462
-0.144651
2.94113
-0.143314
2.20764
-0.127267
1.67395
-0.103927
1.2869
-0.0749437
0.999501
-0.0482357
0.773435
-0.0241048
0.558258
-0.00777324
0.335683
-0.00243992
0.143025
0.0231262
-0.00441966
0.325179
-0.0114413
0.850152
-0.0198464
1.24842
-0.0299738
1.54092
-0.0418623
1.80902
-0.0556553
2.08046
-0.0718995
2.37527
-0.0906671
2.6855
-0.111392
2.99683
-0.132045
3.28527
-0.14664
2.95573
-0.148955
2.20996
-0.139895
1.66489
-0.115876
1.26288
-0.0831197
0.966745
-0.0409567
0.731272
-0.000563384
0.517864
0.0213502
0.31377
0.0209936
0.143381
0.0441199
-0.00431147
0.329491
-0.011283
0.857123
-0.0193588
1.2565
-0.0290454
1.5506
-0.0404923
1.82047
-0.0539534
2.09392
-0.0699606
2.39128
-0.0888048
2.70434
-0.11074
3.01876
-0.135314
3.30984
-0.153437
2.97385
-0.159491
2.21601
-0.14868
1.65408
-0.126969
1.24117
-0.0897704
0.929546
-0.045261
0.686763
0.00836872
0.464235
0.0339591
0.288179
0.0151692
0.162171
0.059289
-0.00408113
0.333572
-0.0107364
0.863779
-0.0185182
1.26428
-0.0278472
1.55993
-0.0389346
1.83156
-0.052021
2.10701
-0.0677931
2.40705
-0.0865849
2.72314
-0.108519
3.0407
-0.132149
3.33347
-0.151383
2.99308
-0.161914
2.22654
-0.163045
1.65521
-0.144427
1.22255
-0.108522
0.89364
-0.0426298
0.620871
0.0585213
0.363083
0.16028
0.186421
0.17138
0.151071
0.230669
-0.00392833
0.3375
-0.0105674
0.870418
-0.01823
1.27194
-0.0274512
1.56915
-0.0386179
1.84272
-0.0520966
2.12048
-0.0686908
2.42365
-0.0890322
2.74348
-0.114064
3.06573
-0.144643
3.36405
-0.172242
3.02068
-0.188176
2.24248
-0.187927
1.65496
-0.174507
1.20913
-0.139002
0.858135
-0.0973926
0.579261
-0.120094
0.385785
-0.365114
0.431441
-0.92491
0.710867
0.893117
-1.58736
-0.00371114
0.341212
-0.0100422
0.876749
-0.0175036
1.2794
-0.0265684
1.57822
-0.0376112
1.85377
-0.0511222
2.134
-0.068063
2.44059
-0.0892602
2.76468
-0.115623
3.09209
-0.146992
3.39542
-0.176915
3.0506
-0.200524
2.26609
-0.222851
1.67729
-0.227038
1.21332
-0.222734
0.853831
-0.300842
0.657369
-0.687793
0.772735
-1.40661
1.15026
-2.02125
1.32551
1.22043
-2.34856
-0.00352063
0.344732
-0.00963891
0.882867
-0.0168252
1.28659
-0.0256114
1.587
-0.0364528
1.86461
-0.0499795
2.14752
-0.0671975
2.45781
-0.0891297
2.78661
-0.117512
3.12047
-0.154924
3.43283
-0.19443
3.09011
-0.227192
2.29885
-0.247982
1.69808
-0.25757
1.22291
-0.345671
0.941932
-0.745148
1.05685
-1.50558
1.53316
-2.08906
1.73374
-2.33372
1.57017
1.3371
-2.45039
-0.00326721
0.347999
-0.00898473
0.888585
-0.0158968
1.2935
-0.0244729
1.59558
-0.0351373
1.87527
-0.0486266
2.16101
-0.066042
2.47522
-0.0886973
2.80926
-0.118473
3.15025
-0.157281
3.47164
-0.198817
3.13165
-0.237188
2.33722
-0.281812
1.7427
-0.375148
1.31624
-0.697554
1.26434
-1.41068
1.76997
-2.01004
2.13252
-2.25435
1.97806
-2.37025
1.68607
1.40377
-2.43691
-0.00301945
0.351019
-0.00840856
0.893974
-0.0149701
1.30006
-0.0232062
1.60382
-0.033672
1.88574
-0.047087
2.17443
-0.0646478
2.49278
-0.087831
2.83245
-0.119262
3.18168
-0.163392
3.51577
-0.216475
3.18473
-0.270132
2.39088
-0.321543
1.79411
-0.493725
1.48843
-1.07005
1.84066
-1.76162
2.46154
-2.09582
2.46673
-2.24925
2.13148
-2.33372
1.77054
1.4702
-2.40015
-0.00288775
0.353907
-0.00808537
0.899171
-0.0146242
1.3066
-0.0229273
1.61212
-0.0336305
1.89644
-0.0472647
2.18806
-0.0652469
2.51076
-0.0893199
2.85652
-0.12228
3.21464
-0.16811
3.5616
-0.222297
3.23892
-0.276058
2.44464
-0.372583
1.89064
-0.746949
1.86279
-1.46547
2.55919
-1.95318
2.94925
-2.1575
2.67104
-2.26615
2.24013
-2.34386
1.84826
1.53529
-2.40895
-0.00292425
0.356831
-0.00842
0.904667
-0.0152698
1.31345
-0.0239245
1.62077
-0.0350732
1.90759
-0.0493031
2.20229
-0.0681016
2.52956
-0.0932305
2.88165
-0.127958
3.24937
-0.178887
3.61253
-0.243048
3.30308
-0.316121
2.51771
-0.499812
2.07433
-1.02447
2.38745
-1.6544
3.18912
-1.9442
3.23905
-2.09498
2.82183
-2.21161
2.35676
-2.30654
1.94319
1.59901
-2.37027
-0.0028916
0.359722
-0.00851847
0.910294
-0.0157794
1.32071
-0.0249534
1.62995
-0.0366223
1.91926
-0.0514727
2.21714
-0.0710331
2.54912
-0.0973639
2.90798
-0.133945
3.28595
-0.186596
3.66518
-0.250608
3.36709
-0.338461
2.60556
-0.612444
2.34831
-1.2369
3.0119
-1.73939
3.69161
-1.95093
3.45059
-2.09623
2.96712
-2.22467
2.48519
-2.3401
2.05862
1.65995
-2.40104
-0.00279291
0.362515
-0.00879568
0.916297
-0.0164373
1.32835
-0.0260185
1.63953
-0.0381547
1.9314
-0.0536434
2.23263
-0.0740773
2.56956
-0.101506
2.93541
-0.139555
3.324
-0.195789
3.72142
-0.27027
3.44157
-0.395866
2.73116
-0.760135
2.71258
-1.38097
3.63274
-1.75019
4.06082
-1.93019
3.6306
-2.03892
3.07586
-2.13412
2.58039
-2.2066
2.1311
1.65458
-2.20123
-0.0026459
0.365161
-0.00865996
0.922311
-0.016763
1.33646
-0.0269487
1.64971
-0.0396977
1.94414
-0.0558415
2.24877
-0.0770079
2.59072
-0.105524
2.96392
-0.145442
3.36392
-0.202789
3.77876
-0.28103
3.51981
-0.44343
2.89356
-0.878994
3.14814
-1.43741
4.19116
-1.71076
4.33418
-1.87347
3.79331
-1.97261
3.175
-1.98022
2.588
-1.92089
2.07178
1.63453
-1.90084
-0.00235043
0.367512
-0.00875656
0.928717
-0.0171806
1.34488
-0.0276834
1.66022
-0.0407674
1.95723
-0.0572679
2.26527
-0.0788192
2.61228
-0.107614
2.99272
-0.147363
3.40367
-0.204206
3.83561
-0.29178
3.60739
-0.489636
3.09142
-0.953862
3.61237
-1.40302
4.64031
-1.58203
4.51319
-1.6578
3.86908
-1.66855
3.18574
-1.52741
2.44686
-1.03311
1.57747
0.601421
-0.00186549
0.369377
-0.00812399
0.934976
-0.0170359
1.35379
-0.0283287
1.67151
-0.0424106
1.97131
-0.0600931
2.28296
-0.0832144
2.6354
-0.114289
3.02379
-0.157912
3.44729
-0.221322
3.89902
-0.3213
3.70736
-0.561652
3.33177
-1.08065
4.13136
-1.45717
5.01684
-1.56306
4.61907
-1.56951
3.87553
-1.4752
3.09144
-1.23635
2.20801
-0.652747
0.993868
-0.0513259
-0.00143559
0.370813
-0.00770672
0.941247
-0.0168906
1.36298
-0.0286861
1.6833
-0.0434978
1.98612
-0.0623354
2.30179
-0.0871613
2.66022
-0.120693
3.05732
-0.168009
3.49461
-0.236318
3.96732
-0.354964
3.82601
-0.651233
3.62804
-1.19403
4.67416
-1.47801
5.30081
-1.54697
4.68804
-1.53232
3.86088
-1.33015
2.88926
-0.806399
1.68427
-0.122163
0.309632
-0.173489
-0.000616795
0.37143
-0.00616672
0.946797
-0.0156946
1.3725
-0.0282773
1.69589
-0.0439764
2.00182
-0.063883
2.3217
-0.0901699
2.68651
-0.12589
3.09304
-0.17642
3.54514
-0.252818
4.04372
-0.392557
3.96575
-0.73764
3.97312
-1.26772
5.20424
-1.46141
5.49451
-1.49667
4.72329
-1.41623
3.78045
-1.11855
2.59158
-0.340947
0.906666
0.0346642
-0.0659786
-0.138825
0.00024765
0.371182
-0.00462704
0.951671
-0.0142017
1.38208
-0.0272257
1.70891
-0.0434079
2.018
-0.0643197
2.34261
-0.0921077
2.7143
-0.12972
3.13066
-0.182429
3.59785
-0.264838
4.12613
-0.42696
4.12787
-0.82404
4.3702
-1.3078
5.688
-1.4369
5.62361
-1.4446
4.731
-1.25116
3.587
-0.728858
2.06928
-0.0703263
0.248135
0.0389416
-0.175246
-0.0998834
0.002249
0.368933
-0.000843854
0.954764
-0.011056
1.39229
-0.0248003
1.72266
-0.0415401
2.03474
-0.0632268
2.3643
-0.0919872
2.74306
-0.131217
3.16989
-0.18641
3.65304
-0.277006
4.21673
-0.46267
4.31353
-0.908362
4.81589
-1.30423
6.08387
-1.3792
5.69857
-1.35113
4.70294
-1.07389
3.30975
-0.365639
1.36103
-0.0181749
-0.0993293
0.00834819
-0.20177
-0.0915353
0.00379307
0.36514
0.00183913
0.956718
-0.00775415
1.40188
-0.021014
1.73592
-0.0378005
2.05153
-0.0601451
2.38664
-0.0898371
2.77275
-0.129763
3.20981
-0.186229
3.7095
-0.282209
4.31271
-0.484226
4.51555
-0.951275
5.28294
-1.25162
6.38421
-1.29655
5.74351
-1.19532
4.6017
-0.830981
2.94542
-0.12551
0.655555
0.0243936
-0.249232
0.0136808
-0.191057
-0.0778544
0.00610134
0.359039
0.00601124
0.956808
-0.00188108
1.40978
-0.01496
1.74899
-0.031938
2.06851
-0.0543757
2.40908
-0.0838466
2.80222
-0.124225
3.25019
-0.181267
3.76655
-0.281166
4.41261
-0.500309
4.73469
-0.96535
5.74798
-1.17988
6.59875
-1.19909
5.76271
-1.02749
4.4301
-0.532422
2.45035
-0.00814043
0.131273
0.0201031
-0.277476
0.0171011
-0.188055
-0.0607534
0.00881286
0.350226
0.0115423
0.954079
0.00557191
1.41575
-0.00599128
1.76056
-0.0230087
2.08553
-0.0452546
2.43133
-0.0743219
2.83129
-0.113465
3.28933
-0.16959
3.82267
-0.273195
4.51621
-0.498124
4.95962
-0.919545
6.1694
-1.06892
6.74812
-1.06944
5.76324
-0.835468
4.19613
-0.30541
1.92029
-0.044324
-0.129813
-0.0224839
-0.299316
-0.000390335
-0.210148
-0.0611437
0.0129107
0.337315
0.0197855
0.947204
0.0159577
1.41957
0.00552355
1.77099
-0.0110481
2.1021
-0.0314732
2.45175
-0.0585347
2.85835
-0.0958335
3.32663
-0.148439
3.87528
-0.248127
4.6159
-0.470333
5.18183
-0.838044
6.53711
-0.93885
6.84893
-0.932186
5.75657
-0.703354
3.9673
-0.166436
1.38337
-0.0562336
-0.240015
-0.0261116
-0.329438
0.00267437
-0.238934
-0.0584693
0.0177391
0.319576
0.0299287
0.935014
0.0296305
1.41987
0.0209749
1.77965
0.00678172
2.11629
-0.0113512
2.46989
-0.0363274
2.88333
-0.0697526
3.36006
-0.117335
3.92286
-0.212035
4.7106
-0.414488
5.38428
-0.678
6.80063
-0.755531
6.92646
-0.709236
5.71028
-0.430408
3.68847
0.00405284
0.94891
-0.00823218
-0.22773
-0.00428501
-0.333385
0.0255147
-0.268734
-0.0329546
0.023988
0.295588
0.0432293
0.915773
0.0472975
1.4158
0.0413377
1.78561
0.0304168
2.12721
0.0149567
2.48535
-0.00616532
2.90445
-0.034082
3.38797
-0.0728368
3.96161
-0.144593
4.78236
-0.304117
5.5438
-0.482329
6.97884
-0.561125
7.00525
-0.599904
5.74906
-0.498807
3.58737
-0.308456
0.758559
-0.36146
-0.174726
-0.231653
-0.463193
-0.0839265
-0.41646
-0.116881
0.0310903
0.264498
0.0595433
0.88732
0.0706501
1.4047
0.0695407
1.78672
0.0621956
2.13456
0.0502842
2.49726
0.0350497
2.91968
0.0143182
3.4087
-0.0162123
3.99215
-0.0555354
4.82168
-0.146954
5.63522
-0.234311
7.0662
-0.307115
7.07806
-0.413374
5.85532
-0.531388
3.70539
-0.705657
0.932827
-0.737985
-0.142398
-0.53792
-0.663257
-0.259695
-0.694686
-0.376576
0.0392765
0.225221
0.0793705
0.847226
0.0986565
1.38541
0.102956
1.78242
0.100609
2.1369
0.094065
2.5038
0.0859133
2.92783
0.0761926
3.41842
0.0668671
4.00147
0.0584924
4.83005
0.0813903
5.61233
0.100717
7.04687
0.0817658
7.09701
0.00712829
5.92995
-0.173659
3.88617
-0.577918
1.33709
-0.72176
0.00144444
-0.622995
-0.762023
-0.334811
-0.982869
-0.711387
0.0470792
0.178142
0.102481
0.791824
0.134231
1.35366
0.146219
1.77043
0.150306
2.13282
0.149178
2.50493
0.149967
2.92704
0.152537
3.41586
0.165469
3.98854
0.197504
4.79802
0.322644
5.48719
0.564548
6.80497
0.77257
6.88899
1.01254
5.68998
0.898743
3.99997
0.369253
1.86658
-0.0420945
0.412792
-0.246385
-0.557732
-0.222102
-1.00715
-0.933489
0.0517002
0.126442
0.125971
0.717553
0.173334
1.3063
0.195843
1.74792
0.208288
2.12037
0.214495
2.49872
0.225248
2.91629
0.241016
3.40009
0.27884
3.95071
0.363063
4.7138
0.613679
5.23657
1.16846
6.25019
1.57837
6.47907
1.95541
5.31295
1.98025
3.97513
1.51102
2.3358
1.02313
0.900687
0.509282
-0.0438867
0.174683
-0.672553
-0.758807
0.0483315
0.0781103
0.149695
0.61619
0.220406
1.23559
0.256207
1.71212
0.277331
2.09925
0.291873
2.48418
0.311619
2.89654
0.342806
3.3689
0.401036
3.89248
0.532642
4.58219
0.855497
4.91371
1.57752
5.52816
1.99572
6.06087
2.27151
5.03716
2.3302
3.91645
1.97068
2.69532
1.44136
1.43
0.917036
0.480441
0.407203
-0.16272
-0.351604
0.0378025
0.0403078
0.168518
0.485475
0.267964
1.13614
0.32313
1.65695
0.355161
2.06722
0.378577
2.46076
0.406487
2.86863
0.446379
3.32901
0.508419
3.83044
0.650109
4.4405
0.959906
4.60392
1.63577
4.8523
2.02366
5.67298
2.23385
4.82697
2.26609
3.88421
2.0286
2.93281
1.5389
1.91971
0.983905
1.03543
0.405739
0.415446
0.0541349
0.0290982
0.0112095
0.194067
0.320506
0.323539
1.00667
0.399821
1.58067
0.442321
2.02472
0.475811
2.42727
0.505275
2.83917
0.54569
3.28859
0.601059
3.77507
0.716498
4.32506
0.90769
4.41273
1.38902
4.37097
1.80031
5.26169
1.89165
4.73562
1.85722
3.91864
1.66674
3.12329
1.27329
2.31315
0.805821
1.50291
0.344013
0.877254
0.398148
0.0312183
-0.0200088
0.194498
0.157227
0.378003
0.823165
0.482649
1.47602
0.53741
1.96996
0.580139
2.38454
0.609834
2.80947
0.648456
3.24997
0.682321
3.74121
0.742576
4.26481
0.849157
4.30614
1.14607
4.07406
1.53802
4.86974
1.56699
4.70665
1.46554
4.02008
1.28227
3.30656
0.98482
2.6106
0.598335
1.88939
0.233418
1.24217
0.631566
0.0353841
-0.0553929
0.137084
0.0555268
0.32927
0.630978
0.456816
1.34848
0.517011
1.90976
0.545649
2.35591
0.555708
2.79942
0.561301
3.24438
0.549415
3.7531
0.536321
4.2779
0.54211
4.30036
0.645452
3.97072
0.829574
4.68562
0.832908
4.70331
0.745239
4.10775
0.629913
3.42189
0.48077
2.75974
0.294305
2.07586
0.111141
1.42533
0.742708
0.0205328
-0.0759257
0.0480205
0.0280391
0.153202
0.525797
0.258215
1.24346
0.330372
1.83761
0.373177
2.3131
0.39808
2.77451
0.410157
3.2323
0.40871
3.75454
0.401497
4.28511
0.382932
4.31892
0.422225
3.93143
0.54717
4.56068
0.553406
4.69708
0.489463
4.1717
0.396817
3.51453
0.285394
2.87117
0.156303
2.20495
0.0438401
1.5378
0.786548
0.00186277
-0.0777884
-0.0100946
0.0399964
0.0241139
0.491589
0.0909274
1.17665
0.155874
1.77266
0.209744
2.25923
0.254031
2.73023
0.27911
3.20722
0.296646
3.73701
0.293825
4.28793
0.268238
4.34451
0.273724
3.92594
0.341173
4.49323
0.334751
4.7035
0.287505
4.21894
0.217423
3.58461
0.142531
2.94606
0.0652296
2.28225
-0.00396294
1.60699
0.782585
-0.0180286
-0.0597598
-0.0573909
0.0793587
-0.0702333
0.504431
-0.0349129
1.14133
0.0215339
1.71621
0.080173
2.20059
0.135387
2.67501
0.175445
3.16716
0.205518
3.70693
0.199762
4.29369
0.172495
4.37178
0.165079
3.93336
0.196641
4.46166
0.181834
4.71831
0.144286
4.25649
0.0960796
3.63282
0.0451284
2.99701
-0.00421147
2.33159
-0.0322862
1.63506
0.750299
-0.032816
-0.0269438
-0.091005
0.137548
-0.125582
0.539008
-0.11203
1.12778
-0.0648791
1.66906
-0.00895516
2.14467
0.0438607
2.6222
0.0900874
3.12094
0.118343
3.67868
0.109667
4.30237
0.0921703
4.38927
0.0793191
3.94621
0.0919178
4.44907
0.0789323
4.73129
0.0399438
4.29548
0.00153766
3.67123
-0.0369531
3.0355
-0.0653432
2.35998
-0.0610522
1.63077
0.689247
-0.0383485
0.0114047
-0.103375
0.202575