/*--------------------------------*- C++ -*----------------------------------*\
  =========                 |
  \\      /  F ield         | OpenFOAM: The Open Source CFD Toolbox
   \\    /   O peration     | Website:  https://openfoam.org
    \\  /    A nd           | Version:  9
     \\/     M anipulation  |
\*---------------------------------------------------------------------------*/
FoamFile
{
    format      ascii;
    class       volVectorField;
    location    "28";
    object      U;
}
// * * * * * * * * * * * * * * * * * * * * * * * * * * * * * * * * * * * * * //

dimensions      [0 1 -1 0 0 0 0];

internalField   nonuniform List<vector> 
2200
(
(0.878841 -0.0304137 0)
(1.00578 -0.0512893 0)
(1.00323 -0.0354097 0)
(1.00021 -0.0244785 0)
(0.999844 -0.0167403 0)
(0.999951 -0.01083 0)
(0.999966 -0.00695927 0)
(1.00005 -0.00427416 0)
(1.00011 -0.00225503 0)
(1.00017 -0.000660401 0)
(1.00011 0.000879497 0)
(1.00009 0.00248902 0)
(1.00007 0.00447386 0)
(0.999925 0.00715596 0)
(0.999985 0.010976 0)
(0.999853 0.0167955 0)
(1.00019 0.0245469 0)
(1.00339 0.0352416 0)
(1.00586 0.0513431 0)
(0.878936 0.0303909 0)
(0.711977 -0.0327628 0)
(0.996617 -0.0630134 0)
(1.03329 -0.0561594 0)
(1.02484 -0.0463812 0)
(1.0158 -0.0360792 0)
(1.00969 -0.0263734 0)
(1.006 -0.018047 0)
(1.00376 -0.0113901 0)
(1.00244 -0.00614998 0)
(1.00196 -0.0017212 0)
(1.00185 0.00254533 0)
(1.0024 0.00693479 0)
(1.00367 0.0120981 0)
(1.00601 0.0186281 0)
(1.00955 0.0269409 0)
(1.01564 0.0366449 0)
(1.02472 0.046883 0)
(1.033 0.0571007 0)
(0.996545 0.0631418 0)
(0.711688 0.0329099 0)
(0.53556 -0.0238889 0)
(0.969892 -0.0569244 0)
(1.05647 -0.054708 0)
(1.05223 -0.0487211 0)
(1.03616 -0.0402813 0)
(1.02439 -0.0320212 0)
(1.01589 -0.0239085 0)
(1.0104 -0.0161525 0)
(1.00731 -0.00896546 0)
(1.00585 -0.00250094 0)
(1.00584 0.00378393 0)
(1.0072 0.0102188 0)
(1.01022 0.0172925 0)
(1.01553 0.0248961 0)
(1.02404 0.0327148 0)
(1.03595 0.0408826 0)
(1.05202 0.0491985 0)
(1.05637 0.0539566 0)
(0.969277 0.0574234 0)
(0.534682 0.0238795 0)
(0.392277 -0.0136431 0)
(0.911716 -0.0464052 0)
(1.05747 -0.0469488 0)
(1.06974 -0.0444541 0)
(1.05514 -0.0383056 0)
(1.03932 -0.0315873 0)
(1.02734 -0.0248652 0)
(1.01883 -0.0177199 0)
(1.01357 -0.0103013 0)
(1.01109 -0.00278465 0)
(1.01102 0.00480528 0)
(1.01334 0.0121138 0)
(1.01843 0.0192151 0)
(1.02683 0.0260855 0)
(1.03878 0.0327274 0)
(1.05453 0.0392478 0)
(1.06892 0.0453646 0)
(1.05608 0.0478744 0)
(0.910349 0.0467588 0)
(0.390679 0.013731 0)
(0.307783 -0.00449343 0)
(0.846681 -0.0323032 0)
(1.04921 -0.0398377 0)
(1.07926 -0.0381357 0)
(1.06819 -0.0336907 0)
(1.0518 -0.0282719 0)
(1.03821 -0.0227441 0)
(1.02789 -0.0166976 0)
(1.02077 -0.00991448 0)
(1.01705 -0.00253732 0)
(1.01682 0.00510784 0)
(1.02016 0.0123038 0)
(1.02711 0.0188862 0)
(1.03744 0.0248071 0)
(1.05081 0.0299401 0)
(1.06701 0.0350895 0)
(1.07784 0.0392776 0)
(1.04758 0.0409833 0)
(0.8441 0.0326569 0)
(0.30518 0.00464558 0)
(0.264601 0.000135813 0)
(0.789391 -0.0199589 0)
(1.03335 -0.031244 0)
(1.08311 -0.0317643 0)
(1.07681 -0.0286111 0)
(1.06055 -0.0239402 0)
(1.04722 -0.019667 0)
(1.03641 -0.0146164 0)
(1.02858 -0.00859879 0)
(1.02422 -0.00172748 0)
(1.02399 0.00529839 0)
(1.02796 0.0120026 0)
(1.03547 0.0176848 0)
(1.04572 0.0222708 0)
(1.05893 0.02617 0)
(1.0752 0.0305083 0)
(1.08116 0.0332205 0)
(1.03065 0.0325005 0)
(0.785153 0.0204095 0)
(0.26099 6.4738e-06 0)
(0.240701 0.00105402 0)
(0.738573 -0.0122334 0)
(1.01367 -0.025035 0)
(1.08353 -0.0267902 0)
(1.08224 -0.0244165 0)
(1.06711 -0.0202997 0)
(1.05392 -0.0164998 0)
(1.04332 -0.0121443 0)
(1.03529 -0.00704508 0)
(1.03048 -0.00102239 0)
(1.03012 0.00528962 0)
(1.03421 0.0110096 0)
(1.04167 0.0157159 0)
(1.05212 0.0195892 0)
(1.06514 0.023158 0)
(1.0798 0.0267611 0)
(1.08048 0.0286444 0)
(1.00924 0.0264435 0)
(0.732168 0.0128048 0)
(0.235913 -0.00090334 0)
(0.226516 0.000940531 0)
(0.696096 -0.00788344 0)
(0.993002 -0.0203916 0)
(1.08206 -0.0227659 0)
(1.08643 -0.0208971 0)
(1.07263 -0.01741 0)
(1.0592 -0.0137377 0)
(1.04867 -0.00970014 0)
(1.04065 -0.00515808 0)
(1.03565 4.16605e-05 0)
(1.03511 0.0056127 0)
(1.03917 0.0104554 0)
(1.0465 0.0143491 0)
(1.05657 0.0179077 0)
(1.06961 0.0207215 0)
(1.08299 0.0236647 0)
(1.07795 0.0250691 0)
(0.986906 0.0220367 0)
(0.68746 0.00855406 0)
(0.220462 -0.000794775 0)
(0.217474 0.000714962 0)
(0.662217 -0.00526671 0)
(0.973281 -0.0167265 0)
(1.07915 -0.0193503 0)
(1.08942 -0.0179215 0)
(1.07714 -0.0149812 0)
(1.06369 -0.0116541 0)
(1.05319 -0.00793131 0)
(1.04544 -0.00376529 0)
(1.04067 0.000944807 0)
(1.04001 0.00602616 0)
(1.04357 0.0102683 0)
(1.05048 0.013872 0)
(1.05998 0.0167361 0)
(1.07314 0.0195742 0)
(1.08481 0.0219409 0)
(1.07308 0.0225104 0)
(0.963938 0.0188708 0)
(0.650088 0.00619831 0)
(0.209631 -0.00051087 0)
(0.211025 0.000389025 0)
(0.6346 -0.0037142 0)
(0.954158 -0.0139671 0)
(1.07531 -0.0168324 0)
(1.09179 -0.0158711 0)
(1.08093 -0.0132876 0)
(1.06728 -0.0100683 0)
(1.05676 -0.00642633 0)
(1.04916 -0.00233604 0)
(1.0446 0.00212982 0)
(1.04364 0.00665279 0)
(1.04654 0.0105294 0)
(1.05288 0.0136961 0)
(1.06278 0.0163694 0)
(1.07588 0.0187789 0)
(1.08549 0.0203163 0)
(1.06724 0.0203638 0)
(0.9424 0.0164328 0)
(0.619379 0.00476644 0)
(0.201281 -0.00015913 0)
(0.206404 0.000133762 0)
(0.613914 -0.00239104 0)
(0.938506 -0.0109956 0)
(1.07236 -0.0137887 0)
(1.0943 -0.0130552 0)
(1.08475 -0.0110055 0)
(1.07073 -0.0083546 0)
(1.05977 -0.00511836 0)
(1.05187 -0.00120454 0)
(1.04708 0.00323836 0)
(1.04578 0.00750177 0)
(1.04838 0.0113014 0)
(1.05455 0.0141842 0)
(1.06446 0.016452 0)
(1.07764 0.017717 0)
(1.08597 0.0188052 0)
(1.0612 0.0185133 0)
(0.921822 0.0141539 0)
(0.593579 0.00374762 0)
(0.193964 0.000190027 0)
(0.203209 -2.06914e-06 0)
(0.599142 -0.00118176 0)
(0.924439 -0.00786288 0)
(1.06941 -0.0103838 0)
(1.09689 -0.00973646 0)
(1.08858 -0.00784798 0)
(1.0745 -0.00539353 0)
(1.06315 -0.00245996 0)
(1.05456 0.000912858 0)
(1.049 0.00492569 0)
(1.04741 0.00866041 0)
(1.05023 0.0117789 0)
(1.05683 0.0138487 0)
(1.06659 0.0151166 0)
(1.07961 0.0162885 0)
(1.08611 0.0167988 0)
(1.05512 0.0159724 0)
(0.903478 0.0115046 0)
(0.573916 0.00283407 0)
(0.187778 0.0003562 0)
(0.2018 -9.89261e-05 0)
(0.590065 -0.000163236 0)
(0.913956 -0.00444516 0)
(1.06732 -0.00664182 0)
(1.09935 -0.0059898 0)
(1.09227 -0.00424857 0)
(1.07877 -0.00203444 0)
(1.06763 0.000574666 0)
(1.05884 0.00347935 0)
(1.05278 0.00672151 0)
(1.05078 0.00961871 0)
(1.05326 0.0117411 0)
(1.05941 0.0130759 0)
(1.06889 0.0140521 0)
(1.08111 0.0146976 0)
(1.0857 0.0148559 0)
(1.04862 0.0136378 0)
(0.886666 0.009035 0)
(0.558672 0.00213175 0)
(0.182389 0.000386785 0)
(0.202021 -0.000144792 0)
(0.586875 0.000813154 0)
(0.906599 -0.00156926 0)
(1.06548 -0.00366772 0)
(1.10178 -0.00297787 0)
(1.09578 -0.00117914 0)
(1.08266 0.00105899 0)
(1.07169 0.00367968 0)
(1.06302 0.00648076 0)
(1.05678 0.00926239 0)
(1.05412 0.0117013 0)
(1.05555 0.0131585 0)
(1.06069 0.0138389 0)
(1.06913 0.014276 0)
(1.08074 0.013806 0)
(1.08346 0.0133521 0)
(1.04063 0.0116699 0)
(0.87148 0.00712297 0)
(0.547289 0.00177657 0)
(0.178072 0.000379512 0)
(0.203691 0.000184878 0)
(0.587192 0.00128195 0)
(0.901655 0.00060919 0)
(1.06442 -0.000392897 0)
(1.10371 0.000383471 0)
(1.09847 0.00197587 0)
(1.08529 0.0040584 0)
(1.07403 0.00648322 0)
(1.06507 0.00920665 0)
(1.05847 0.0117724 0)
(1.0552 0.0139618 0)
(1.05599 0.0148726 0)
(1.06057 0.0150659 0)
(1.0687 0.0147034 0)
(1.07963 0.0137386 0)
(1.08108 0.0129165 0)
(1.03341 0.0109334 0)
(0.85869 0.00625618 0)
(0.537686 0.00180931 0)
(0.174005 0.000407518 0)
(0.206776 0.000487101 0)
(0.589631 0.00192437 0)
(0.901424 0.00308874 0)
(1.06399 0.00243499 0)
(1.10583 0.00368535 0)
(1.10111 0.005502 0)
(1.08765 0.00762614 0)
(1.07577 0.0100296 0)
(1.06612 0.0126705 0)
(1.05879 0.0150936 0)
(1.05476 0.0169106 0)
(1.05493 0.017254 0)
(1.05926 0.0167525 0)
(1.06737 0.015748 0)
(1.07741 0.0144231 0)
(1.07688 0.01283 0)
(1.02452 0.0100934 0)
(0.845998 0.00559716 0)
(0.528864 0.00188229 0)
(0.170019 0.000416416 0)
(0.212437 0.000601958 0)
(0.596915 0.00280264 0)
(0.904436 0.00480405 0)
(1.06612 0.00574092 0)
(1.10867 0.00724738 0)
(1.10448 0.00913297 0)
(1.09099 0.0113961 0)
(1.07881 0.0139981 0)
(1.06851 0.0166289 0)
(1.06009 0.0189888 0)
(1.05483 0.0204009 0)
(1.05386 0.0201893 0)
(1.05753 0.018943 0)
(1.06501 0.0171467 0)
(1.07425 0.0152785 0)
(1.07243 0.013307 0)
(1.01688 0.0103005 0)
(0.835744 0.00583595 0)
(0.520622 0.00214943 0)
(0.165811 0.000437062 0)
(0.21795 0.000642764 0)
(0.604622 0.00325576 0)
(0.909151 0.00626597 0)
(1.06932 0.00777501 0)
(1.11256 0.00976358 0)
(1.10871 0.0122961 0)
(1.09521 0.0150878 0)
(1.08286 0.0182379 0)
(1.07211 0.0213686 0)
(1.06287 0.0241036 0)
(1.05633 0.0252842 0)
(1.05377 0.0246618 0)
(1.05596 0.0228995 0)
(1.0624 0.0206463 0)
(1.07055 0.0180466 0)
(1.06646 0.0150579 0)
(1.00648 0.0111629 0)
(0.822588 0.00648518 0)
(0.510477 0.00262251 0)
(0.160766 0.000510074 0)
(0.226394 0.000835895 0)
(0.618367 0.00415293 0)
(0.9188 0.00841119 0)
(1.07461 0.0108888 0)
(1.11715 0.0130207 0)
(1.11352 0.0156771 0)
(1.09979 0.0188596 0)
(1.08698 0.0227446 0)
(1.07535 0.0265808 0)
(1.06473 0.0299474 0)
(1.05621 0.0312515 0)
(1.05228 0.030602 0)
(1.05323 0.0283243 0)
(1.05867 0.0251589 0)
(1.06542 0.0217675 0)
(1.0597 0.0179441 0)
(0.997125 0.0133877 0)
(0.811792 0.00811908 0)
(0.500037 0.00335139 0)
(0.15487 0.000627399 0)
(0.235223 0.0011378 0)
(0.631597 0.00501453 0)
(0.929121 0.0102922 0)
(1.08106 0.013717 0)
(1.12243 0.0166988 0)
(1.11876 0.0200162 0)
(1.1048 0.0242464 0)
(1.09133 0.0289213 0)
(1.07851 0.0336394 0)
(1.06634 0.0376613 0)
(1.05625 0.0389636 0)
(1.0507 0.0377551 0)
(1.04973 0.0348557 0)
(1.05378 0.0310475 0)
(1.05863 0.0270306 0)
(1.05005 0.0217295 0)
(0.982675 0.0158295 0)
(0.79392 0.00959068 0)
(0.484527 0.00409282 0)
(0.14691 0.000765667 0)
(0.248381 0.00146571 0)
(0.65168 0.00684124 0)
(0.944245 0.0136293 0)
(1.08952 0.0183826 0)
(1.12855 0.0218107 0)
(1.12533 0.026067 0)
(1.11137 0.0309507 0)
(1.09705 0.0367217 0)
(1.0826 0.0423025 0)
(1.06796 0.0466032 0)
(1.05501 0.0477023 0)
(1.04725 0.0460537 0)
(1.04504 0.0424112 0)
(1.04748 0.0372675 0)
(1.05024 0.0319426 0)
(1.03887 0.0254207 0)
(0.969122 0.0185979 0)
(0.779746 0.0116076 0)
(0.469786 0.00491527 0)
(0.138325 0.000868459 0)
(0.263929 0.00197782 0)
(0.675379 0.00827976 0)
(0.963105 0.0172492 0)
(1.10145 0.0235437 0)
(1.1376 0.0287342 0)
(1.1339 0.0339738 0)
(1.1194 0.040465 0)
(1.10386 0.0473818 0)
(1.08746 0.0537339 0)
(1.07038 0.0582362 0)
(1.05523 0.0589322 0)
(1.04515 0.0559788 0)
(1.03988 0.0509093 0)
(1.03961 0.0448025 0)
(1.0397 0.0380311 0)
(1.02436 0.030341 0)
(0.949294 0.0219903 0)
(0.754865 0.0136325 0)
(0.446884 0.00577557 0)
(0.126808 0.00100993 0)
(0.285664 0.00279296 0)
(0.707541 0.012079 0)
(0.988426 0.0232076 0)
(1.11688 0.0318557 0)
(1.14829 0.0380363 0)
(1.14426 0.0454183 0)
(1.12894 0.0532236 0)
(1.11165 0.0611428 0)
(1.09258 0.0681178 0)
(1.07204 0.0722326 0)
(1.05291 0.0717372 0)
(1.03962 0.0672171 0)
(1.03284 0.0608226 0)
(1.03033 0.0529878 0)
(1.0273 0.04452 0)
(1.00845 0.0352622 0)
(0.930539 0.0258285 0)
(0.735447 0.0164976 0)
(0.426534 0.00695041 0)
(0.115199 0.00109354 0)
(0.315834 0.00381705 0)
(0.750569 0.0149421 0)
(1.02085 0.030505 0)
(1.13754 0.0417431 0)
(1.1639 0.0511556 0)
(1.15735 0.0608376 0)
(1.13984 0.070274 0)
(1.11966 0.0792527 0)
(1.09724 0.0861475 0)
(1.0731 0.0892386 0)
(1.05101 0.0871192 0)
(1.035 0.0807707 0)
(1.02419 0.071987 0)
(1.01821 0.0625503 0)
(1.01227 0.052554 0)
(0.989212 0.0422077 0)
(0.904714 0.03108 0)
(0.700793 0.0196163 0)
(0.392704 0.00792578 0)
(0.0990853 0.00122828 0)
(0.352251 0.00764902 0)
(0.804313 0.0246174 0)
(1.06259 0.0431242 0)
(1.16442 0.0583652 0)
(1.18265 0.0696488 0)
(1.17269 0.0820779 0)
(1.15165 0.0930659 0)
(1.12771 0.102212 0)
(1.10109 0.108376 0)
(1.07236 0.109889 0)
(1.04553 0.105378 0)
(1.02551 0.095794 0)
(1.0133 0.084999 0)
(1.00517 0.0734306 0)
(0.995514 0.0615677 0)
(0.968004 0.0492208 0)
(0.87839 0.0365157 0)
(0.672586 0.0233009 0)
(0.365379 0.00954509 0)
(0.0846495 0.00114582 0)
(0.43498 0.0113577 0)
(0.885908 0.0350074 0)
(1.11788 0.0629779 0)
(1.19753 0.082361 0)
(1.20706 0.0964472 3.91101e-34)
(1.19026 0.112179 -1.82556e-34)
(1.16404 0.122907 0)
(1.13523 0.131189 0)
(1.10367 0.135442 0)
(1.07025 0.133875 0)
(1.03955 0.125548 0)
(1.01661 0.113584 0)
(0.999947 0.100025 0)
(0.987959 0.0865386 0)
(0.975558 0.0731042 0)
(0.94304 0.0596034 0)
(0.844174 0.0445593 0)
(0.623836 0.0281644 0)
(0.315088 0.00987397 0)
(0.062619 0.000874384 0)
(0.503697 0.0263275 2.34815e-20)
(0.979463 0.059152 -1.80205e-20)
(1.17725 0.0954436 0)
(1.23302 0.118028 1.6066e-20)
(1.23278 0.135836 -1.30174e-20)
(1.20754 0.151369 1.92607e-34)
(1.17553 0.16081 0)
(1.14106 0.167308 1.11142e-20)
(1.10382 0.169068 -3.71396e-20)
(1.06482 0.164485 7.7016e-21)
(1.02907 0.153287 0)
(1.00136 0.137214 -2.08e-20)
(0.982513 0.120796 -2.51854e-20)
(0.967942 0.10488 4.40895e-20)
(0.949543 0.0893647 -3.50125e-20)
(0.907753 0.0728881 0)
(0.794515 0.0546231 -1.29217e-20)
(0.560589 0.0336571 0)
(0.263233 0.0132597 -7.05541e-20)
(0.044678 0.00142695 8.34167e-20)
(0.535286 0.05456 -3.50525e-21)
(1.03553 0.102189 4.13471e-20)
(1.22219 0.146526 1.69306e-21)
(1.26515 0.166241 -3.14051e-20)
(1.25608 0.184379 -2.71613e-20)
(1.22283 0.197893 4.44822e-20)
(1.18474 0.20544 0)
(1.14418 0.210021 0)
(1.10112 0.209212 5.89937e-20)
(1.05629 0.201269 0)
(1.01421 0.185718 7.42971e-20)
(0.980942 0.16686 2.23163e-20)
(0.955714 0.14916 3.32119e-22)
(0.935011 0.132127 -4.86595e-20)
(0.914023 0.115829 0)
(0.869164 0.099303 0)
(0.752855 0.0756944 -2.14154e-19)
(0.52602 0.0501096 5.36269e-19)
(0.249172 0.0205417 -3.18179e-19)
(0.041567 0.00429183 -3.76427e-19)
(0.539748 0.0776307 -1.08498e-21)
(1.06712 0.159384 3.43049e-21)
(1.2557 0.208082 4.64825e-21)
(1.29098 0.225525 5.3559e-20)
(1.27422 0.241201 1.38438e-20)
(1.23443 0.250656 -1.13823e-19)
(1.19064 0.254861 4.04827e-20)
(1.14423 0.256372 0)
(1.09538 0.252137 -1.24411e-19)
(1.04445 0.240979 1.16126e-19)
(0.997474 0.222939 -2.01317e-19)
(0.961208 0.203455 9.54146e-20)
(0.933955 0.18382 -6.42557e-20)
(0.911613 0.165188 1.43418e-19)
(0.884773 0.147175 0)
(0.835954 0.128658 -5.37729e-20)
(0.723538 0.104046 0)
(0.514072 0.0685674 3.00762e-19)
(0.252829 0.0342512 -7.13876e-19)
(0.0508474 0.0065591 4.47457e-19)
(0.529651 0.109755 -6.23309e-20)
(1.08198 0.217074 2.1067e-20)
(1.27551 0.273869 1.10551e-21)
(1.30826 0.289774 0)
(1.28629 0.302584 -4.22833e-20)
(1.24167 0.307313 5.32911e-20)
(1.19306 0.307457 -4.3256e-20)
(1.14159 0.305152 0)
(1.0877 0.29704 8.83151e-20)
(1.03148 0.282029 -8.11625e-20)
(0.979188 0.260491 1.75423e-19)
(0.936174 0.236414 0)
(0.902441 0.214603 -1.36233e-19)
(0.874568 0.195883 7.62467e-20)
(0.850385 0.179346 1.97172e-19)
(0.80719 0.162057 -1.73496e-19)
(0.704222 0.13481 2.81213e-19)
(0.511076 0.0941747 -6.23215e-19)
(0.26746 0.0498796 3.94369e-19)
(0.0629469 0.0119556 -4.93813e-19)
(0.515228 0.133981 6.45616e-20)
(1.08714 0.272143 -4.82783e-20)
(1.28593 0.34073 1.62837e-21)
(1.31744 0.355241 1.63605e-20)
(1.29176 0.365219 -2.72737e-20)
(1.2438 0.365428 1.45447e-20)
(1.19144 0.361597 3.64653e-21)
(1.13569 0.355366 -9.17503e-20)
(1.07703 0.343345 -9.17907e-20)
(1.01579 0.32462 -1.7455e-19)
(0.959143 0.300092 -3.77547e-19)
(0.915051 0.274932 -1.1923e-19)
(0.882901 0.254102 2.54683e-21)
(0.857889 0.235717 -2.65207e-19)
(0.827486 0.217137 -6.34418e-21)
(0.780693 0.195313 2.53027e-19)
(0.683273 0.164934 -7.73662e-20)
(0.506706 0.119737 -4.51119e-20)
(0.278791 0.0670385 0)
(0.0722194 0.0177731 1.05213e-18)
(0.496343 0.154803 0)
(1.07868 0.321863 2.02718e-20)
(1.28759 0.404269 1.03497e-20)
(1.32 0.419033 -1.23285e-20)
(1.29184 0.427145 1.90563e-20)
(1.2415 0.423365 -3.76599e-20)
(1.18624 0.415876 4.5617e-20)
(1.12717 0.405744 1.52457e-19)
(1.06499 0.389651 -5.1898e-20)
(1.00038 0.366918 8.40834e-20)
(0.940164 0.338132 2.03133e-19)
(0.891715 0.310362 2.61046e-19)
(0.853453 0.285835 -1.58774e-19)
(0.821372 0.263733 2.87042e-19)
(0.797522 0.245009 -2.28287e-19)
(0.760109 0.227556 0)
(0.67365 0.195927 -5.88834e-19)
(0.509243 0.146535 7.92244e-19)
(0.288516 0.0843507 5.94473e-20)
(0.0788932 0.0234424 -1.11135e-18)
(0.481847 0.175599 -5.31964e-21)
(1.07035 0.370992 -1.51362e-19)
(1.28481 0.465665 -7.92321e-20)
(1.31782 0.480674 4.73238e-20)
(1.28754 0.487141 2.39504e-20)
(1.2354 0.479874 -3.24521e-20)
(1.17794 0.469139 8.48933e-20)
(1.11637 0.455372 -4.11132e-20)
(1.05124 0.435584 -2.03306e-19)
(0.982935 0.409302 4.41842e-22)
(0.919488 0.37766 -2.20619e-19)
(0.869644 0.347307 -2.79445e-19)
(0.834038 0.321273 1.76003e-19)
(0.809184 0.301349 -1.03126e-19)
(0.779312 0.282861 2.47698e-19)
(0.736867 0.258623 0)
(0.653167 0.225484 -3.64577e-19)
(0.500822 0.171166 5.38723e-19)
(0.291699 0.100006 1.02592e-18)
(0.0823105 0.0286036 -1.20684e-18)
(0.46688 0.193137 -3.24134e-19)
(1.05625 0.415353 1.60145e-19)
(1.27773 0.523123 8.87295e-20)
(1.31192 0.539268 -5.41793e-20)
(1.27996 0.544763 1.12705e-20)
(1.22653 0.534454 -5.46697e-20)
(1.16741 0.520774 -5.21154e-20)
(1.10383 0.50368 -5.79586e-20)
(1.03616 0.480459 -1.16497e-19)
(0.96507 0.450171 1.91296e-19)
(0.899435 0.414279 2.19135e-19)
(0.848112 0.380246 4.41853e-19)
(0.809319 0.352891 0)
(0.77522 0.328946 5.71523e-21)
(0.751632 0.307576 -6.81643e-19)
(0.717934 0.288832 1.57728e-19)
(0.642576 0.253689 7.83995e-19)
(0.494431 0.19503 -2.30775e-19)
(0.286953 0.114271 4.84797e-19)
(0.0816444 0.0316218 -4.06578e-20)
(0.457835 0.212205 6.08956e-21)
(1.04511 0.459313 1.61477e-19)
(1.26885 0.578364 7.60226e-20)
(1.30347 0.595363 -1.32624e-19)
(1.26991 0.599658 3.04353e-20)
(1.21551 0.586564 4.6489e-20)
(1.15507 0.570368 5.23299e-20)
(1.08978 0.55031 1.6642e-19)
(1.0199 0.524039 2.28467e-19)
(0.94619 0.490717 -2.25645e-19)
(0.87782 0.45218 0)
(0.825372 0.415354 -1.68623e-19)
(0.787133 0.384792 1.93595e-19)
(0.763113 0.360926 2.48782e-19)
(0.733805 0.340008 -1.43404e-19)
(0.694569 0.313834 -3.54461e-19)
(0.62028 0.278106 -1.06628e-19)
(0.480374 0.21289 -1.24095e-21)
(0.277704 0.12387 0)
(0.0781447 0.0338337 0)
(0.449342 0.227758 -1.84338e-19)
(1.03175 0.499287 0)
(1.25763 0.629646 9.70662e-20)
(1.29289 0.648168 -5.21239e-20)
(1.25808 0.651644 -2.38352e-20)
(1.20299 0.636123 8.78075e-21)
(1.14148 0.617716 5.00792e-20)
(1.07483 0.595051 -1.08795e-19)
(1.00336 0.565986 1.66928e-19)
(0.928403 0.529283 -7.80351e-20)
(0.859053 0.485534 1.24276e-19)
(0.804058 0.445744 5.31692e-19)
(0.763923 0.41373 1.35615e-20)
(0.728469 0.385282 -2.57538e-19)
(0.70646 0.362079 4.83342e-19)
(0.67643 0.340462 4.49505e-21)
(0.607548 0.298963 1.14079e-19)
(0.467949 0.230264 -5.48243e-19)
(0.26715 0.130797 5.57433e-19)
(0.0732365 0.0354262 -6.64337e-19)
(0.443107 0.246756 3.6688e-23)
(1.02055 0.538749 0)
(1.24595 0.678921 0)
(1.28098 0.69868 4.10787e-20)
(1.24503 0.700909 1.90334e-20)
(1.18947 0.682937 1.04851e-20)
(1.1271 0.6626 -8.18649e-20)
(1.05939 0.637691 0)
(0.986351 0.606139 -2.50441e-19)
(0.908292 0.566479 3.26867e-19)
(0.834191 0.521531 3.59734e-19)
(0.778001 0.478589 -1.96815e-19)
(0.739378 0.441211 -2.40237e-19)
(0.715048 0.414524 5.64594e-19)
(0.687323 0.39016 -1.71373e-19)
(0.651071 0.358676 -2.05989e-19)
(0.582306 0.318351 -1.2451e-19)
(0.449034 0.241435 -5.922e-19)
(0.254141 0.135576 8.46724e-20)
(0.0674627 0.0357736 7.18577e-19)
(0.43937 0.265406 -7.77943e-20)
(1.00885 0.574806 -1.1747e-19)
(1.23302 0.72424 2.35167e-20)
(1.26818 0.745808 -5.87404e-24)
(1.23144 0.747271 -1.4222e-20)
(1.17543 0.727241 -1.38201e-20)
(1.11228 0.705161 0)
(1.0435 0.678218 6.70846e-20)
(0.968721 0.644667 -5.28973e-20)
(0.889039 0.603063 5.36432e-19)
(0.81524 0.554124 -8.47469e-20)
(0.757722 0.505859 9.51056e-20)
(0.714926 0.468691 0)
(0.68015 0.434166 -3.06387e-19)
(0.658693 0.405282 3.7444e-19)
(0.631528 0.381129 0)
(0.566584 0.331727 -2.70315e-19)
(0.43125 0.252438 7.92755e-19)
(0.240233 0.13829 9.36377e-20)
(0.0612387 0.0352253 -8.86566e-19)
(0.437453 0.282299 -1.79425e-19)
(0.999345 0.610333 2.30649e-19)
(1.22042 0.767837 0)
(1.25498 0.79078 1.14207e-19)
(1.21746 0.791164 0)
(1.16117 0.769068 -9.62008e-21)
(1.09734 0.745366 0)
(1.02768 0.7167 0)
(0.951974 0.681461 -7.78723e-20)
(0.870718 0.637322 -5.1297e-19)
(0.792541 0.584442 -6.65502e-19)
(0.730953 0.535513 1.13763e-19)
(0.689227 0.491727 4.14557e-19)
(0.665843 0.458673 3.39587e-19)
(0.639321 0.43016 -1.20153e-18)
(0.604617 0.393482 -4.88379e-19)
(0.538604 0.346356 2.84958e-19)
(0.408794 0.257702 0)
(0.224984 0.139051 8.0853e-19)
(0.0547285 0.0337873 -9.57857e-19)
(0.436035 0.298085 2.0333e-19)
(0.989062 0.642442 -2.58241e-19)
(1.20738 0.807525 0)
(1.24166 0.832395 -1.03855e-20)
(1.20357 0.832289 -4.38951e-20)
(1.14695 0.808587 0)
(1.08249 0.783435 2.45465e-20)
(1.012 0.753171 5.09559e-20)
(0.934428 0.716018 -1.37036e-19)
(0.849557 0.670156 6.37723e-20)
(0.768564 0.616537 0)
(0.707343 0.562943 4.65448e-19)
(0.665858 0.517044 4.21865e-21)
(0.628539 0.476456 1.83655e-19)
(0.608501 0.440821 2.19237e-19)
(0.583205 0.411788 0)
(0.520415 0.35286 -4.7293e-19)
(0.388841 0.262766 9.27791e-19)
(0.209113 0.13787 -9.84337e-19)
(0.0484551 0.0316402 2.06945e-18)
(0.434989 0.313092 0)
(0.980597 0.674436 0)
(1.19506 0.845727 -1.3722e-19)
(1.22839 0.871967 0)
(1.18969 0.871086 0)
(1.1329 0.84584 3.84104e-20)
(1.068 0.819416 2.35279e-20)
(0.996585 0.787668 1.71902e-20)
(0.917919 0.749735 -2.8286e-20)
(0.832649 0.703027 0)
(0.750969 0.647329 -1.02536e-19)
(0.68485 0.590294 -3.81556e-19)
(0.634978 0.540159 -4.65211e-19)
(0.612186 0.497577 -1.8897e-19)
(0.587136 0.462504 2.39235e-19)
(0.55461 0.416478 -5.65904e-19)
(0.490634 0.36287 1.02005e-18)
(0.363734 0.262229 5.47316e-21)
(0.192922 0.134727 -9.48298e-19)
(0.0424812 0.0291051 -1.4031e-19)
(0.433827 0.327764 0)
(0.9715 0.703458 -2.04755e-19)
(1.18263 0.880489 1.57326e-19)
(1.21531 0.908448 0)
(1.17615 0.907264 0)
(1.11918 0.880876 -9.96476e-20)
(1.05375 0.853374 0)
(0.981794 0.820469 0)
(0.902074 0.781128 -2.89579e-19)
(0.814321 0.732468 9.44683e-20)
(0.727132 0.674027 -8.81513e-19)
(0.657742 0.615444 0)
(0.613794 0.562198 -5.04001e-19)
(0.572494 0.513916 1.13231e-20)
(0.552372 0.466727 -7.66519e-19)
(0.530435 0.430059 3.05494e-19)
(0.471417 0.359735 3.12366e-21)
(0.345537 0.260463 -1.08114e-18)
(0.178696 0.130344 5.12601e-19)
(0.0376594 0.0267847 1.50159e-19)
(0.432811 0.341961 0)
(0.963966 0.732391 -2.55285e-19)
(1.17095 0.914042 1.67362e-19)
(1.20252 0.943089 3.13812e-19)
(1.16284 0.941251 4.51368e-20)
(1.10581 0.913787 -2.30891e-20)
(1.04027 0.885429 3.71233e-21)
(0.96788 0.851518 2.068e-19)
(0.886951 0.81148 3.09768e-19)
(0.797056 0.763309 6.82837e-19)
(0.708631 0.705564 7.32167e-19)
(0.637295 0.644473 1.31698e-19)
(0.579915 0.586304 7.27445e-19)
(0.553377 0.532937 4.56561e-19)
(0.528365 0.486436 5.51521e-19)
(0.498313 0.42548 -3.37769e-19)
(0.439575 0.36167 -3.97267e-19)
(0.320693 0.251044 4.65841e-19)
(0.164118 0.122496 -2.75339e-19)
(0.0353591 0.0276934 4.8777e-19)
(0.431671 0.355722 3.44536e-19)
(0.955907 0.75849 4.03503e-19)
(1.15925 0.944607 9.37506e-20)
(1.19002 0.975003 1.62484e-20)
(1.14999 0.972857 -1.76374e-19)
(1.093 0.944574 3.04914e-20)
(1.02719 0.915487 -7.76833e-21)
(0.954237 0.880747 -2.13903e-20)
(0.872494 0.839931 -3.48917e-19)
(0.781561 0.789844 -7.45549e-19)
(0.69044 0.729677 4.88144e-20)
(0.61199 0.668018 0)
(0.558196 0.60929 0)
(0.510023 0.549948 -2.35716e-19)
(0.486476 0.486242 -9.03137e-19)
(0.467447 0.43313 7.3025e-19)
(0.420448 0.338637 4.39571e-19)
(0.318351 0.230774 0)
(0.171039 0.101014 8.78576e-19)
(0.0295026 0.00610868 -5.2432e-19)
(0.430705 0.368759 -1.83595e-19)
(0.949077 0.78433 1.60205e-19)
(1.14826 0.974114 -2.14141e-19)
(1.17796 1.00529 -2.12736e-19)
(1.13756 1.00246 -7.86572e-20)
(1.08057 0.973357 3.89947e-21)
(1.01476 0.943748 0)
(0.94168 0.9084 -2.50074e-19)
(0.859167 0.867314 4.53045e-20)
(0.766014 0.818367 0)
(0.670306 0.761153 0)
(0.588697 0.697785 8.6026e-20)
(0.524046 0.632212 1.2082e-19)
(0.488186 0.568409 -2.54141e-19)
(0.457112 0.507827 6.50252e-19)
(0.425799 0.418861 -7.98644e-19)
(0.377547 0.325994 -9.41354e-19)
(0.303933 0.206096 8.31949e-19)
(0.20621 0.124502 -3.15145e-19)
(0.118128 0.088218 1.82661e-19)
(0.429463 0.38105 2.1896e-19)
(0.94171 0.80745 0)
(1.13732 1.00092 0)
(1.16626 1.03317 -6.86044e-20)
(1.12562 1.03001 5.55347e-20)
(1.06879 1.00024 -2.08992e-20)
(1.00292 0.97012 -1.93706e-20)
(0.929585 0.934335 2.20158e-19)
(0.846358 0.89275 6.07099e-19)
(0.752372 0.842639 -5.67111e-20)
(0.656056 0.781835 1.21513e-19)
(0.570637 0.720074 -7.4849e-19)
(0.504097 0.658944 -7.6792e-19)
(0.441079 0.591493 -1.35837e-19)
(0.402289 0.506629 0)
(0.375832 0.429264 -1.17179e-20)
(0.339885 0.270186 5.16751e-19)
(0.295097 0.107079 -8.726e-19)
(0.254579 -0.0425789 6.57811e-19)
(0.079745 -0.0917297 5.39731e-19)
(0.428352 0.392736 -4.79882e-19)
(0.9353 0.830341 -2.10905e-19)
(1.127 1.02691 6.61375e-21)
(1.15498 1.05982 9.97968e-20)
(1.11406 1.05605 0)
(1.05727 1.02567 1.69195e-19)
(0.991438 0.9953 8.6451e-21)
(0.91796 0.959211 -2.20617e-20)
(0.834058 0.917799 -3.11252e-19)
(0.737556 0.868694 -5.50345e-20)
(0.635829 0.813418 5.11164e-20)
(0.545459 0.751917 6.58612e-19)
(0.467468 0.684657 7.50067e-19)
(0.417432 0.613085 1.31503e-19)
(0.369179 0.541194 6.91942e-19)
(0.307117 0.415393 0)
(0.203727 0.263224 0)
(0.0348126 0.261552 6.20543e-19)
(-0.0703859 0.628981 -3.31933e-20)
(0.00189907 1.51194 -7.71356e-19)
(0.426837 0.403832 2.62772e-19)
(0.928437 0.850895 6.16469e-19)
(1.1167 1.05069 -8.96928e-19)
(1.14395 1.08469 5.09564e-19)
(1.10282 1.08083 -4.60224e-20)
(1.04617 1.05011 2.59064e-19)
(0.980241 1.01956 0)
(0.90652 0.983504 -1.62391e-19)
(0.82195 0.942311 0)
(0.725173 0.893354 7.17591e-19)
(0.624441 0.835017 -6.59655e-20)
(0.530811 0.775384 7.39643e-20)
(0.451185 0.718863 8.45761e-19)
(0.364892 0.653246 -2.89346e-19)
(0.279449 0.554875 -3.56428e-19)
(0.209123 0.477333 0)
(0.105201 0.567575 0)
(0.0348046 1.26849 0)
(0.0770915 2.4358 -3.51451e-19)
(0.10708 2.89736 -2.16303e-19)
(0.425415 0.414425 0)
(0.922446 0.871239 0)
(1.10704 1.07383 3.23225e-19)
(1.13338 1.10853 -4.21485e-19)
(1.09199 1.10434 2.60118e-19)
(1.03536 1.07336 -2.32682e-19)
(0.969455 1.04295 4.07343e-22)
(0.895599 1.00706 -3.17156e-22)
(0.810586 0.966492 4.53119e-20)
(0.711866 0.919413 -8.22196e-19)
(0.604839 0.866965 1.14363e-19)
(0.504436 0.812252 6.42578e-19)
(0.41172 0.752542 -8.39937e-19)
(0.341447 0.679119 -9.38031e-19)
(0.273399 0.619717 3.20445e-19)
(0.20539 0.740248 0)
(0.140288 1.50483 4.54813e-19)
(0.138156 2.67452 5.08126e-19)
(0.145013 3.08144 -5.68623e-19)
(0.135633 3.2192 6.21214e-19)
(0.423606 0.424302 0)
(0.916032 0.889285 5.18237e-19)
(1.09742 1.09484 -8.29134e-20)
(1.12313 1.1307 5.4971e-19)
(1.08154 1.12666 -2.73035e-19)
(1.02505 1.09566 0)
(0.959063 1.06537 0)
(0.88509 1.02989 0)
(0.799637 0.990337 2.04247e-19)
(0.700522 0.944053 3.31116e-20)
(0.594332 0.890623 0)
(0.494609 0.837177 -6.35876e-19)
(0.406897 0.78943 0)
(0.295641 0.735547 6.70413e-19)
(0.214192 0.812177 -4.44507e-19)
(0.169496 1.44702 -3.63742e-19)
(0.174018 2.66442 -8.74707e-19)
(0.193636 3.12592 -4.53641e-19)
(0.183967 3.27079 -5.90238e-19)
(0.168814 3.31168 4.82513e-19)
(0.421968 0.433549 -1.77523e-19)
(0.910445 0.907207 1.5267e-20)
(1.08845 1.11538 -9.04246e-20)
(1.11335 1.15196 -4.35115e-19)
(1.07152 1.14782 0)
(1.01509 1.11686 0)
(0.949173 1.08703 0)
(0.875178 1.05215 1.1258e-20)
(0.789522 1.01344 -2.62597e-19)
(0.688999 0.969714 0)
(0.578611 0.92276 0)
(0.472309 0.877563 0)
(0.363536 0.831261 0)
(0.306935 0.822539 4.71003e-19)
(0.284185 1.18233 1.18278e-18)
(0.270054 2.34457 3.58354e-19)
(0.280913 3.08129 7.02654e-19)
(0.273751 3.28977 -5.10918e-19)
(0.223222 3.35752 1.90029e-19)
(0.189248 3.37011 0)
(0.420002 0.442286 1.81142e-19)
(0.904213 0.923339 -1.13151e-18)
(1.07928 1.13444 -3.13979e-19)
(1.10367 1.17226 -7.37894e-20)
(1.06168 1.16849 6.87147e-20)
(1.00543 1.13775 -4.39018e-19)
(0.939496 1.10826 2.51927e-20)
(0.865537 1.07398 -1.94589e-20)
(0.779633 1.03687 0)
(0.679193 0.99488 -4.74707e-20)
(0.569733 0.947614 4.31835e-20)
(0.465189 0.902043 0)
(0.381928 0.873871 0)
(0.326973 0.997214 -5.87425e-19)
(0.290957 1.83783 4.89322e-20)
(0.287825 2.93136 -2.42775e-19)
(0.306717 3.2944 4.77836e-19)
(0.279676 3.39642 3.11991e-19)
(0.212031 3.42196 -3.38196e-19)
(0.186108 3.43062 1.67519e-19)
(0.41791 0.451111 3.52314e-19)
(0.898247 0.941021 1.09108e-18)
(1.06996 1.15485 3.82635e-19)
(1.09365 1.19333 0)
(1.0515 1.18946 0)
(0.995422 1.1588 3.37075e-19)
(0.92972 1.12986 -1.51293e-19)
(0.855945 1.09637 1.22573e-20)
(0.770256 1.06014 5.0482e-21)
(0.66899 1.02043 5.31399e-19)
(0.557167 0.980505 -7.29598e-19)
(0.446085 0.944921 0)
(0.363148 0.948588 0)
(0.344995 1.34407 -3.76476e-19)
(0.355017 2.45071 -4.63979e-19)
(0.396282 3.19945 0)
(0.421708 3.38159 -3.51667e-19)
(0.351926 3.44623 1.26604e-19)
(0.277832 3.49049 -3.51767e-20)
(0.25345 3.51651 6.66274e-20)
(0.415039 0.460363 -6.69131e-19)
(0.890752 0.958092 -5.2117e-19)
(1.05944 1.17521 0)
(1.08279 1.21493 0)
(1.04064 1.21141 0)
(0.9849 1.18083 0)
(0.919401 1.15209 1.57593e-19)
(0.846013 1.11902 -6.1043e-20)
(0.760423 1.08438 0)
(0.659976 1.0474 -4.81324e-19)
(0.550096 1.00779 1.28876e-18)
(0.449325 0.975961 5.48717e-20)
(0.399019 1.06265 7.64732e-20)
(0.402185 1.73005 5.98557e-19)
(0.422184 2.88329 -2.85161e-19)
(0.458953 3.32837 0)
(0.441513 3.45807 7.34863e-20)
(0.352351 3.54686 9.7799e-20)
(0.269658 3.61515 2.47191e-19)
(0.193779 3.59508 -1.51204e-19)
(0.412018 0.469742 3.17975e-19)
(0.883327 0.977741 -5.20969e-19)
(1.04838 1.1978 0)
(1.0711 1.23786 -1.15191e-19)
(1.02892 1.23399 4.24205e-19)
(0.973572 1.20324 0)
(0.908578 1.17487 0)
(0.835667 1.14244 1.36385e-19)
(0.75087 1.10864 -2.32031e-20)
(0.650787 1.07317 4.19373e-19)
(0.537491 1.03954 -6.02098e-19)
(0.446961 1.03149 3.67651e-19)
(0.40925 1.2376 0)
(0.443108 2.14833 -3.08029e-19)
(0.489689 3.13916 2.15102e-19)
(0.550057 3.43571 7.92059e-20)
(0.543573 3.53798 0)
(0.475432 3.62909 -1.15098e-19)
(0.400437 3.67367 -5.87917e-19)
(0.317061 3.6444 -1.44248e-19)
(0.407679 0.479513 -6.2459e-19)
(0.873832 0.996322 7.43418e-19)
(1.03583 1.2201 5.37347e-19)
(1.05846 1.26132 -1.36943e-19)
(1.01645 1.25765 -6.48004e-19)
(0.961649 1.22675 0)