/*--------------------------------*- C++ -*----------------------------------*\
  =========                 |
  \\      /  F ield         | OpenFOAM: The Open Source CFD Toolbox
   \\    /   O peration     | Website:  https://openfoam.org
    \\  /    A nd           | Version:  9
     \\/     M anipulation  |
\*---------------------------------------------------------------------------*/
FoamFile
{
    format      ascii;
    class       volScalarField;
    location    "0.2";
    object      p;
}
// * * * * * * * * * * * * * * * * * * * * * * * * * * * * * * * * * * * * * //

dimensions      [0 2 -2 0 0 0 0];

internalField   nonuniform List<scalar> 
400
(
3.82396e-07
-0.00582617
-0.0129603
-0.0184087
-0.0204235
-0.0182285
-0.0117641
-0.00147535
0.0118431
0.0271516
0.0432434
0.0588186
0.0725715
0.0832997
0.0900439
0.0922595
0.0900212
0.0842431
0.0768837
0.0710727
0.00577387
-0.000222402
-0.00580496
-0.0095406
-0.0105948
-0.00842727
-0.00296423
0.00547926
0.0163066
0.0287136
0.0417496
0.0543838
0.0655828
0.0744055
0.0801161
0.0823129
0.0810768
0.0770573
0.0712798
0.0653263
0.0133234
0.00502625
-0.000999225
-0.00442435
-0.00527204
-0.00326158
0.00160543
0.00903075
0.0185047
0.029351
0.040766
0.0518692
0.0617673
0.0696349
0.0748061
0.0768785
0.0758442
0.0720912
0.0658142
0.0575482
0.0201234
0.00868579
0.00121981
-0.00267177
-0.0037231
-0.00188466
0.00273298
0.00978682
0.0187827
0.029097
0.0399935
0.050655
0.0602335
0.0679166
0.0730045
0.0750042
0.0737707
0.0694638
0.0616146
0.0501195
0.0244835
0.0097615
0.000582559
-0.00399112
-0.00530404
-0.00350732
0.00117609
0.00833681
0.0174647
0.027952
0.0390878
0.0500725
0.0600513
0.0681676
0.0736295
0.0758023
0.0743756
0.0692994
0.0595395
0.0445573
0.0251592
0.00713862
-0.003809
-0.00906115
-0.0105136
-0.0084995
-0.00335474
0.00443267
0.0143174
0.0256835
0.0378183
0.0499077
0.0610524
0.0703075
0.0767395
0.0795229
0.0781469
0.0723444
0.0605544
0.0419118
0.0210775
-0.000271646
-0.0129396
-0.0187117
-0.0200298
-0.0174119
-0.0113146
-0.00231457
0.00899654
0.0219828
0.0359164
0.049951
0.0631186
0.0743516
0.0825283
0.0865767
0.0857295
0.0794584
0.0656356
0.0430932
0.0111322
-0.0136235
-0.0278769
-0.0338538
-0.034601
-0.030853
-0.0232065
-0.0123374
0.00111368
0.0164933
0.0330621
0.0499429
0.0660921
0.0802981
0.0912087
0.0974382
0.0978795
0.091647
0.0759105
0.0491359
-0.00597026
-0.0342661
-0.0498675
-0.0555443
-0.0550841
-0.0495069
-0.0395841
-0.0261025
-0.00974515
0.00883552
0.0289135
0.0496055
0.0698086
0.0881647
0.103057
0.11271
0.11556
0.110202
0.0928464
0.0614272
-0.0318513
-0.0638692
-0.0804092
-0.0849985
-0.0824103
-0.0740671
-0.0609682
-0.0440226
-0.0239365
-0.00132136
0.023161
0.0486756
0.074109
0.0979842
0.118406
0.133135
0.139997
0.136827
0.11845
0.0819449
-0.0686521
-0.10459
-0.121331
-0.123577
-0.117502
-0.105112
-0.0877027
-0.0663087
-0.0416193
-0.0141375
0.0156234
0.0469701
0.0788711
0.109807
0.137635
0.159595
0.172735
0.173785
0.155527
0.113576
-0.119378
-0.159337
-0.174897
-0.17274
-0.161131
-0.142912
-0.119741
-0.0927582
-0.0625578
-0.0294277
0.00639271
0.0444919
0.0840716
0.123717
0.161148
0.193095
0.215675
0.224082
0.208053
0.160633
-0.188598
-0.232217
-0.243917
-0.233928
-0.213676
-0.187136
-0.156353
-0.122481
-0.0858773
-0.0464513
-0.00399412
0.0415578
0.0898589
0.139843
0.18933
0.234697
0.27108
0.291667
0.281742
0.229771
-0.28394
-0.329277
-0.331808
-0.30826
-0.27469
-0.236422
-0.195746
-0.153591
-0.10982
-0.0637245
-0.0144178
0.038882
0.0965705
0.15829
0.222384
0.285295
0.341401
0.381575
0.38491
0.331824
-0.419283
-0.459643
-0.442328
-0.395773
-0.342112
-0.287723
-0.234599
-0.182912
-0.13159
-0.0789654
-0.0231949
0.0374928
0.104568
0.178849
0.259869
0.344975
0.428617
0.499698
0.529669
0.485378
-0.620499
-0.636718
-0.578657
-0.494177
-0.411226
-0.335645
-0.267766
-0.205962
-0.14752
-0.0893653
-0.0284086
0.0383643
0.11382
0.200482
0.299981
0.412028
0.533029
0.651771
0.732763
0.722381
-0.935896
-0.878494
-0.741725
-0.597936
-0.474383
-0.37265
-0.288858
-0.21775
-0.153939
-0.0924485
-0.0287017
0.0417101
0.123275
0.220727
0.338931
0.482156
0.651994
0.841336
1.01526
1.09749
-1.4764
-1.20661
-0.920492
-0.69138
-0.517299
-0.387538
-0.290054
-0.213328
-0.148113
-0.0872024
-0.0245638
0.0454708
0.128949
0.233079
0.367108
0.542679
0.77129
1.05931
1.40328
1.73013
-2.53963
-1.63054
-1.04443
-0.710955
-0.495749
-0.352092
-0.254528
-0.183578
-0.126161
-0.0735841
-0.0192563
0.0428001
0.119225
0.218793
0.354819
0.547987
0.826392
1.23658
1.91167
2.92418
-4.36665
-2.04462
-0.973538
-0.563181
-0.35785
-0.240151
-0.170122
-0.123782
-0.0874761
-0.053501
-0.016642
0.0276752
0.0846225
0.161743
0.272422
0.442107
0.718223
1.22571
2.41103
4.84852
)
;

boundaryField
{
    movingWall
    {
        type            zeroGradient;
    }
    fixedWalls
    {
        type            zeroGradient;
    }
    frontAndBack
    {
        type            empty;
    }
}


// ************************************************************************* //
