/*--------------------------------*- C++ -*----------------------------------*\
  =========                 |
  \\      /  F ield         | OpenFOAM: The Open Source CFD Toolbox
   \\    /   O peration     | Website:  https://openfoam.org
    \\  /    A nd           | Version:  9
     \\/     M anipulation  |
\*---------------------------------------------------------------------------*/
FoamFile
{
    format      ascii;
    class       volScalarField;
    location    "13";
    object      p;
}
// * * * * * * * * * * * * * * * * * * * * * * * * * * * * * * * * * * * * * //

dimensions      [0 2 -2 0 0 0 0];

internalField   nonuniform List<scalar> 
918
(
0.235031
0.9282
0.0122012
0.234531
0.00135825
0.895337
-0.823542
0.422625
0.215018
-0.137739
0.0206068
0.206402
0.755919
0.523237
-1.45611
0.0155807
0.373836
-0.664444
0.2135
0.00822895
0.497621
0.221681
0.224749
0.215443
0.270662
0.513984
0.636606
0.00441259
-0.00410987
0.000459662
0.00469704
-0.000850168
0.0045055
0.778958
0.830072
0.852728
0.184119
0.0117481
-0.669494
-0.752131
-0.729778
-0.869782
0.408808
0.414077
-0.484828
0.420747
0.435075
0.203122
0.21439
0.215432
0.216318
0.215504
0.216785
0.285437
-0.164555
-0.228244
-0.0789227
-0.0586307
0.078182
0.0219248
0.0172962
0.0227532
0.0239812
0.144794
0.203162
0.199125
0.210551
0.220126
0.867751
0.839624
0.865762
0.779597
0.796044
0.733847
0.706311
0.542838
0.564352
0.509373
0.496821
-1.89952
-2.87584
-0.853846
-0.592505
0.0015129
0.0223047
0.0274869
0.35357
0.36179
0.366374
0.378587
0.778872
-0.642201
-0.777439
0.213225
0.211977
0.221611
0.222395
0.218436
0.21766
0.0154087
0.0226858
-0.000490899
0.00773907
0.00598915
0.476673
0.470803
0.216194
0.213136
0.227381
0.251519
0.238995
-0.012602
0.286152
0.314025
0.316542
0.493386
0.492946
0.499932
0.610213
0.573085
0.673851
0.697155
0.00699513
0.00145449
0.0122683
0.00867081
0.0121579
0.181784
0.176714
0.195302
0.185849
0.189154
-0.0687682
-0.198007
0.0903632
0.117362
-0.582066
-0.659135
-0.734459
-0.760049
-0.853897
0.175895
0.396841
0.399795
-0.500288
-0.411645
-0.567866
-0.336117
-0.411693
0.191917
0.200406
0.194929
0.20992
0.204952
0.205889
0.218692
0.215892
0.217373
0.310136
0.377817
0.247094
0.2244
-0.454922
-0.295802
-0.437361
-0.0300033
-0.0196712
0.0879628
0.101235
0.0681007
0.0663577
-0.00203831
0.0150391
0.00164571
0.025834
0.0281122
0.138853
0.129188
0.153428
0.160475
0.19424
0.19474
0.19753
0.198085
0.657026
0.679367
0.686913
0.660519
-3.88966
-6.7117
-0.25637
-0.111646
0.00253283
0.00309128
0.00150738
0.00487547
0.0034201
0.000852397
0.0419881
0.0392661
0.0310182
0.0355612
0.341861
0.347172
0.748977
0.817914
0.6846
0.698333
0.201182
0.204426
0.209124
0.204895
0.0280281
0.0242742
0.0285949
0.435478
0.45424
0.456539
-0.0465805
-0.134411
0.035418
0.0623208
0.330919
0.314699
0.335795
0.382007
0.419284
0.704326
0.722734
0.721187
0.729685
0.773564
0.789879
0.755223
0.165677
0.174794
0.170595
0.200426
0.196781
0.19784
0.193294
0.196364
0.194227
-0.350297
-0.731486
0.216593
0.208575
0.161022
0.175821
0.241714
0.333202
0.375249
0.385026
0.3921
-0.270453
-0.339597
0.188677
0.173112
0.0879072
0.115954
0.100989
0.628204
0.58839
0.638419
0.611893
0.573285
0.599783
-0.680673
-2.21615
-1.30999
0.25608
0.0596096
0.152276
0.0580856
0.0461077
0.0493987
0.737816
0.770986
0.423882
0.569184
0.534058
0.458406
0.490398
0.546713
0.470302
0.506345
0.542801
0.522624
0.145243
0.219078
0.14301
0.421095
0.506523
-0.158916
-0.204787
-0.266854
0.112357
0.145222
0.128626
0.662442
0.567237
0.641363
0.212948
0.21339
0.0122183
0.0204053
0.217426
0.217719
0.00837131
0.00957651
0.130916
-1.16637
-0.167707
0.205463
0.195921
0.212887
-0.1378
0.300454
0.0205341
0.0892244
0.0601243
0.202805
0.155247
0.119432
0.00778598
0.0209342
0.0165241
-0.431638
0.210426
0.208524
0.212449
0.21361
0.214425
0.00988852
0.0112528
0.00804055
0.0138534
0.0122925
0.0117605
0.181921
0.19276
-0.482806
0.212736
0.214823
0.214768
0.20823
0.213345
0.211398
0.0166207
0.0119279
0.0117388
-0.0612494
0.0552699
0.391157
0.503973
0.339089
0.111878
-0.133509
0.28601
0.355894
0.251053
0.42136
0.378375
0.404137
-0.111654
-0.257606
-0.0969728
-0.150214
0.203466
0.202581
0.194873
0.191195
0.208216
0.206608
0.210579
0.208468
0.210877
0.211818
-0.0784076
-0.0630862
-0.180323
-0.246528
0.327752
0.407029
0.209327
0.243158
0.140995
0.0243682
0.0241314
0.0202065
0.0181357
0.0539238
0.0640846
0.0793006
0.0695412
0.0496125
0.0473821
0.0526022
0.0582307
0.0626425
0.197687
0.197799
0.202178
0.209284
0.162112
0.165946
0.137211
0.152936
0.143876
0.0875212
0.119139
0.0986429
0.00920393
0.0102266
0.0084551
0.0249618
0.0292849
0.0161952
0.0139899
0.0144493
0.0122415
0.0126054
0.0205256
0.0235898
-0.44579
-0.540347
0.751274
0.636467
-0.454603
0.199257
0.205427
0.202719
0.207813
0.210492
0.210963
0.208996
0.206388
0.193728
0.19499
0.191683
0.192348
-0.42299
-0.568635
-0.388468
-0.448165
-0.171829
0.317864
0.0672101
0.00636347
0.00338766
0.215184
0.591537
0.407802
0.456946
0.476566
-0.668495
-0.264102
-0.598068
0.0175306
-0.162335
0.391545
0.443917
0.466506
0.41255
0.360528
-0.421713
0.198477
-0.359965
-0.329034
-0.14341
-0.226475
0.42833
0.362658
0.368383
0.391343
0.415426
0.365801
0.347523
0.343773
0.383237
0.388104
0.17971
-0.0233041
-0.0718947
-0.10536
0.342785
0.22282
0.2774
0.19793
0.19782
0.200843
0.199924
0.184876
0.190468
0.18577
0.191462
0.193455
0.203952
0.203585
0.199369
0.201816
-0.0348409
-0.0219869
-0.147607
-0.36132
-0.248819
-0.347026
-0.221023
0.0183147
0.0450169
-0.134753
0.136054
-0.11669
-0.418467
-0.300511
-0.489429
-0.164996
-0.285641
0.0948848
0.150099
0.16095
0.138469
0.202832
0.187002
0.0392145
0.0474082
0.0305952
0.0299253
0.0932812
0.113224
0.110379
0.0481411
0.0503609
0.0268423
0.0278663
0.0647704
0.040832
0.051705
0.0633817
0.022233
0.0250994
0.0298495
0.0391505
0.039168
0.041828
0.192911
0.195169
0.193559
0.205316
0.216716
0.230231
0.200964
0.178947
0.171655
0.175345
0.15253
0.158881
0.157732
0.166331
0.184519
0.190375
0.189736
0.191356
0.17769
0.179378
0.166557
0.170236
0.154088
0.137984
0.125996
0.0194239
0.0123774
0.0162465
0.0166279
0.0114652
0.0137458
0.0430771
0.0344831
0.0384462
0.0339526
0.0380716
0.0183608
0.0192263
-0.554146
-0.570458
-0.51801
-0.561059
-0.582421
0.663631
0.703896
0.588171
0.291663
0.279657
0.549922
0.717503
0.383293
0.461156
0.485217
0.115185
0.417088
0.206102
0.204797
0.201726
0.202178
0.204256
-0.317531
-0.220756
-0.222203
-0.174955
-0.0365924
0.0665016
0.137018
-0.189404
-0.0433393
0.0130822
0.311306
0.327845
0.273917
0.298514
0.29678
0.130895
0.201621
0.247696
0.214157
0.252054
0.270841
0.233493
0.262407
0.216115
0.177075
0.17749
0.124821
0.140828
0.12216
0.106418
0.194352
0.17445
0.18381
0.176787
0.194814
0.226433
0.218031
0.239937
0.256377
0.18483
0.147516
0.15584
0.184132
0.145031
0.156293
0.171132
-0.0881813
-0.184069
-0.134497
-0.43796
-0.325439
-0.337481
-0.385508
-0.365977
-0.0867817
-0.787277
-0.735232
-1.37284
0.132495
0.625771
0.385282
0.353309
0.41229
0.386177
0.384725
0.42324
0.429765
0.33475
0.35369
0.355935
0.307274
0.333764
0.362725
0.359525
0.176312
0.0700466
0.0597901
0.0291851
-0.0969612
-0.0685717
0.143612
0.0669278
-0.00808309
0.00136488
0.162107
0.0628201
0.120496
0.157081
0.0894091
0.0486628
0.237976
0.303424
0.298868
0.26655
0.188888
0.201221
0.224997
0.25644
0.2849
0.321901
0.19241
0.196799
0.19867
0.196707
0.192666
0.195772
0.19517
0.197384
0.197795
0.200397
0.199541
0.0163981
0.0194624
-0.00227302
0.0059563
-0.0145747
-0.0443074
-0.0016864
-0.0603303
0.0299477
0.0234267
-0.00885354
-0.00962365
-6.04756e-05
0.0136881
0.117609
0.132699
0.116484
0.0676753
0.0307273
0.286693
0.241758
0.177694
0.0824676
0.159319
0.255852
0.0738323
0.0842451
0.072376
0.0918871
0.0870191
0.0332483
0.0296946
0.0329783
0.0426261
0.0391636
0.0301062
0.02522
0.0269009
0.029195
0.0284285
0.0282715
0.178527
0.174686
0.176835
0.170713
0.16937
0.181824
0.184675
0.185969
0.190567
0.192151
0.184345
0.187778
0.19115
0.0290927
0.0228655
0.0248066
0.0253164
0.0246033
0.0217287
0.0223056
-0.50445
-0.5742
-0.881396
-0.490346
-0.513071
-0.517287
0.189797
0.0343069
0.186367
0.287587
0.177565
0.0976313
0.143911
0.221102
-0.0519129
0.039032
-0.108535
0.572685
0.391856
0.554608
0.0802853
-0.105595
0.0278326
0.0873575
-0.0976568
-0.0419527
-0.000339483
-0.10934
-0.0810397
-0.0527839
0.0432612
-0.0394589
-0.058304
-0.236036
-0.0183959
-0.0142147
-0.0422007
0.0905269
0.15558
0.032738
-0.11343
-0.167851
0.301594
0.320543
0.335611
0.311775
0.330028
0.259481
0.249206
0.268555
0.278463
0.272376
-1.11475
-0.834337
-1.76108
-1.06944
-0.652985
0.156908
0.118337
0.397762
0.301308
0.386714
0.36895
0.335381
0.299674
0.301031
0.339171
0.0580387
0.1616
0.136418
0.142049
0.0491671
-0.0115612
0.269138
0.266019
0.302097
0.326774
0.291988
0.329192
0.189345
0.188719
0.189824
0.186392
0.182604
0.184431
0.0810298
0.065661
0.0659324
0.0495888
0.0442763
0.0543491
0.0334962
0.0301919
0.0272933
0.0277226
0.0311949
0.0350965
-0.17653
-0.33927
-0.437597
-0.474754
-0.334417
-0.435336
-0.427227
-0.390499
-0.261471
-0.263533
-0.0419005
0.247584
-0.0155898
0.242896
-0.0758582
0.119666
0.218258
0.183274
0.224342
0.0848454
0.182297
-0.198815
-0.643806
-0.565467
0.425411
0.435623
0.207659
-0.00461031
-0.212114
0.0052041
0.212732
0.156124
0.197361
0.2628
0.260645
-0.355675
-0.275072
-0.0955977
0.148849
-0.147752
-0.145505
-0.159081
0.00261459
-0.0666649
)
;

boundaryField
{
    wall-4
    {
        type            zeroGradient;
    }
    velocity-inlet-5
    {
        type            zeroGradient;
    }
    velocity-inlet-6
    {
        type            zeroGradient;
    }
    pressure-outlet-7
    {
        type            fixedValue;
        value           uniform 0;
    }
    wall-8
    {
        type            zeroGradient;
    }
    frontAndBackPlanes
    {
        type            empty;
    }
}


// ************************************************************************* //
