/*--------------------------------*- C++ -*----------------------------------*\
  =========                 |
  \\      /  F ield         | OpenFOAM: The Open Source CFD Toolbox
   \\    /   O peration     | Website:  https://openfoam.org
    \\  /    A nd           | Version:  9
     \\/     M anipulation  |
\*---------------------------------------------------------------------------*/
FoamFile
{
    format      ascii;
    class       surfaceScalarField;
    location    "13";
    object      phi;
}
// * * * * * * * * * * * * * * * * * * * * * * * * * * * * * * * * * * * * * //

dimensions      [0 3 -1 0 0 0 0];

internalField   nonuniform List<scalar> 
1300
(
3.75095
5.62643
-6.19773
3.75095
-6.05768
5.62643
-4.48746
4.48746
-1.46505
1.46505
1.87688
1.87407
-4.45558
4.45558
-4.77199
4.77199
-2.82412
2.82412
-5.24641
5.24641
-5.0674
5.0674
4.69023
-4.69023
-4.91801
4.91801
-1.8829
1.8829
-3.97317
3.97317
3.17632
-3.17632
-5.08681
5.08681
-0.517039
0.517039
-0.554549
4.3055
3.1964
3.1964
-2.54635
2.54635
-4.84975
4.84975
6.21822
-6.21822
9.41898
-9.41898
-3.22125
-3.39182
1.35016
-8.11474
-4.70752
-4.70752
-8.44042
8.44042
-2.81399
2.81244
2.93954
-2.93954
-1.6841
1.6841
-4.47912
-0.00833707
-4.47912
4.46539
0.022069
4.46539
-1.59432
0.129269
-1.59432
4.09542
-4.09542
1.29609
0.168958
1.29609
3.06345
-3.06345
-1.87714
3.75402
1.87382
-1.87285
6.17835
-1.8781
3.75217
-5.01018
5.01018
-4.29274
-0.162843
-4.29274
4.58227
-0.126691
4.58227
-5.22867
5.22867
-4.72703
-0.0449542
-4.72703
4.84093
-0.0689401
4.84093
3.04106
-3.04106
-2.85573
0.0316081
-2.85573
2.77884
0.0452859
2.77884
0.353586
5.27284
-5.98002
8.79246
-5.27284
0.0264372
5.20849
0.0379156
5.20849
-5.10596
0.0385543
-5.10596
5.01017
0.057239
5.01017
4.78514
-0.0949135
4.78514
-4.80227
0.112042
-4.80227
-3.3267
-3.36385
-5.01334
0.0953354
-5.01334
-1.929
0.0461043
-1.929
1.84058
0.0423177
1.84058
-3.50776
3.50776
-4.08978
0.116605
-4.08978
3.1301
0.0462267
3.1301
1.8682
1.88275
5.61916
-5.61916
2.44283
-5.05075
-0.0360623
-5.05075
-5.12566
-4.29332
5.12566
-0.0388509
-0.822856
0.305817
-0.822856
3.15778
0.0386233
3.15778
2.70067
0.0781648
-2.70067
0.154326
3.43228
-3.43228
1.90316
0.643183
1.90316
-5.57288
5.57288
4.94786
0.0623078
-4.94786
0.0981064
6.15715
0.061078
6.15715
-6.19948
-0.0187429
-6.19948
3.38648
-6.7783
-3.39753
4.81285
0.105153
-4.81285
0.105335
2.95061
-0.0110666
2.95061
-2.90114
2.90114
-2.96435
0.0248028
-2.96435
-2.11822
0.434124
-2.11822
1.3649
0.319197
1.3649
-4.39407
-0.0850519
-4.39407
-4.31581
0.226034
4.31581
0.149575
0.794462
-0.794462
-1.71372
0.119404
-1.71372
-4.23733
-0.15674
4.23733
-0.141909
-3.99197
-0.103446
-3.99197
-3.01036
0.0460176
3.01036
0.0530908
3.11554
0.0422366
-3.11554
0.0520903
-1.87122
3.75397
-1.87973
3.75355
-4.79766
-0.212526
-4.79766
5.14898
-0.138797
5.14898
4.09846
-0.125281
-4.09846
-0.19428
4.65522
-0.0729544
4.65522
-5.22975
0.00107752
-5.22975
5.24099
-0.0123151
5.24099
4.70275
-0.0475239
-4.70275
-0.0242863
4.92299
-0.0820633
4.92299
3.09274
-0.0516793
3.09274
-3.00681
-0.0342501
-3.00681
2.88359
-2.88359
2.87658
0.00700329
-2.87658
0.0208495
-11.1327
11.114
-0.0349665
-11.0977
5.17352
5.17352
4.20296
0.582179
4.20296
-5.01093
0.208654
-5.01093
3.33505
-6.73258
3.37606
-6.70276
3.35507
-11.4698
3.33954
-6.7034
5.16555
-5.16555
5.09448
0.0710704
-5.09448
0.0811368
-1.97176
0.0427545
-1.97176
-3.0262
-0.481564
-3.0262
3.94532
-0.437559
3.94532
-3.02235
3.02235
-3.07792
0.0555616
3.07792
0.0521822
4.9958
-0.0728119
-4.9958
-0.0549431
1.07045
0.225636
-1.07045
0.247599
3.62466
-0.192382
3.62466
-3.26317
-0.169107
-3.26317
-1.93631
-0.0354418
1.93631
-0.0331496
-5.81843
0.24555
-5.81843
-11.1908
0.0930573
-11.1529
-6.10642
-6.10642
2.334
11.1265
-2.9748
-0.0320095
2.9748
-0.0241917
2.95655
0.0658044
-2.95655
0.0554131
-2.88346
-0.000125488
2.88346
0.0176768
-2.52879
0.41057
-2.52879
-0.987187
0.987187
-1.14683
0.159644
1.14683
0.21807
1.06094
-0.266474
1.06094
1.77498
0.0656016
-1.77498
0.0612557
-3.89442
-0.0975568
-3.89442
5.22782
-0.0788389
5.22782
-3.15377
-0.109409
3.15377
-0.0610248
-0.0333297
11.1473
-5.14019
0.0342355
5.14019
-11.2084
11.2426
-3.22843
0.699637
3.22843
0.974535
5.29722
0.27566
-5.29722
0.286293
5.21838
0.0226095
-5.21838
0.0528311
-2.5005
-0.525695
-2.5005
-4.4221
-0.375554
4.4221
-0.476785
-11.4756
-0.201532
11.6771
-11.4184
6.01996
0.137185
-6.01996
11.3798
-0.790193
-0.00426922
0.790193
0.196993
1.46001
-0.399075
1.46001
3.79061
-0.165948
-3.79061
-0.103805
-5.24196
0.0122059
5.24196
-0.0141385
-1.93884
-0.561657
1.93884
-0.478832
-4.26689
4.30551
1.91146
-3.3705
-3.4078
-7.66382
1.85196
1.90202
4.29479
-7.07713
-4.39268
-6.9718
7.27701
-6.99072
-9.31565
9.22074
7.44123
-7.54468
-5.77339
5.82558
6.45962
-6.40653
1.88053
1.87349
9.04156
-9.2044
-11.93
11.7175
10.1262
-10.1711
11.0179
-11.0168
-12.5591
12.5817
-5.74826
5.77987
-6.60765
6.5734
-6.78853
6.72751
-3.29472
-3.40804
9.14124
-9.0459
11.7501
-11.7862
-7.25656
7.37317
3.38644
0.919072
3.42868
-1.88139
3.76191
-1.87078
3.78225
3.38997
-6.68469
3.34262
-6.75042
6.0729
5.67723
-6.03405
-1.62977
-5.85959
5.84852
-5.85201
5.86968
8.86538
-8.87372
-1.88471
3.75821
-1.86884
3.77085
-3.4192
-2.35419
3.37297
0.921812
5.60225
3.53899
-5.7074
-1.2644
-7.63666
7.47071
-7.9184
7.74929
-0.459077
5.82711
-5.36803
4.39067
-1.55286
7.37997
5.72415
5.93281
5.86959
-5.59393
1.12113
-6.48916
-6.39105
-2.71536
2.83477
2.65508
-2.48612
5.86919
1.57204
5.72728
-5.42802
-2.11666
-5.52557
3.81241
2.01317
3.86797
4.02326
2.43636
4.06928
3.03346
-3.03657
0.00310227
-3.06011
6.09358
0.72164
-5.41431
-4.49249
6.33264
2.70892
6.20594
-5.5272
-3.6772
-5.72148
-7.28254
-4.64746
-7.65809
7.36564
4.35184
7.22684
-8.36863
8.35449
6.7556
3.37056
6.68666
-6.64273
-3.52838
-6.66702
10.5862
-2.56906
-8.01715
-7.06513
-5.49394
7.07745
3.94047
7.61904
4.96264
7.67187
3.56931
7.01689
-7.50978
2.01584
-3.84139
-1.90687
-3.82054
3.74004
2.03983
3.78532
-4.13137
-2.47628
-4.16338
-4.1994
-2.58914
4.25108
2.32232
-4.31584
-3.60256
4.42525
2.30226
3.07929
-7.47197
3.62411
-7.03214
-6.37205
-2.67385
-6.29091
4.13387
2.61265
-6.74652
-2.55082
10.931
-5.25378
9.30123
-7.29737
-4.48882
-7.35231
-6.04336
-1.2132
-5.81733
-8.55473
8.02904
-7.80188
7.36432
14.6945
-6.16449
-8.53002
-3.96996
-2.43658
3.91787
-0.489188
-3.71296
3.71606
0.0489575
3.8312
4.75028
4.26109
-3.87796
-1.97405
-3.82255
3.86813
2.00155
3.86801
6.58105
2.28434
6.60312
-6.44072
-2.433
-6.52577
9.01803
-8.58391
2.91762
-2.95306
5.16376
2.58553
-4.97138
-2.66528
6.00875
-3.03991
-2.96883
-12.232
10.607
1.62498
-4.85203
-0.461353
0.0556861
-5.51933
-3.79631
5.40729
0.525513
11.1325
7.33621
-5.51528
5.76083
6.16185
6.22415
-0.166899
5.84662
-5.14698
5.1565
-2.25572
-2.90078
5.25706
-5.4138
-1.26871
-5.2986
4.02989
0.313479
1.88894
-1.58312
-2.11622
-0.599146
-2.05496
1.59397
1.0611
1.81961
1.00395
1.83082
-2.93096
0.526032
2.40493
-1.92702
-1.96009
-3.59275
-0.908429
4.50118
5.45539
2.01532
-5.35158
-0.173993
2.76966
-2.72734
-0.878037
-2.71472
1.92344
-2.80148
-3.43724
-1.79536
5.2326
-3.36993
-0.452619
3.30412
0.563846
-3.7481
-2.11148
3.7233
0.345981
-3.12158
6.23038
-3.10879
-5.09563
2.53167
3.5619
4.54484
-4.8155
2.44894
2.36656
-1.2536
5.61635
0.589589
5.5434
-7.72189
4.04469
5.45612
1.91705
-5.33084
-0.390647
-8.11253
10.8581
-8.02887
-2.82921
6.72383
4.13425
6.41553
8.27898
-6.38599
12.8015
1.13237
-9.16124
6.98016
-5.06312
3.71375
-8.77686
-11.9927
2.83149
-7.75045
8.83817
-1.08772
-2.38212
-5.9865
10.1326
-1.1615
-8.97107
6.06534
-5.49487
-5.28754
10.7824
-8.06393
8.81591
-2.83844
-5.97747
-6.99021
-4.02663
6.978
1.37648
-9.99561
12.0114
-2.97871
5.89815
0.788505
5.81609
4.1831
-6.01222
1.82912
3.88083
-6.71927
3.20036
-9.21258
-4.93083
9.61687
-4.68604
-7.60468
-6.81319
-0.791491
2.02909
9.98236
-6.99173
5.36116
1.63057
3.3433
0.524705
-3.3503
-0.470241
0.35075
4.44076
-4.79151
4.13607
4.21424
3.36593
1.07483
3.81993
2.02859
-3.79574
-0.36764
-4.02115
1.43202
-1.69883
-3.54105
4.97307
-3.95906
0.418009
-2.6421
-3.48918
6.13128
-4.54897
3.08623
3.14415
5.08778
-4.85021
1.36103
-2.40399
-2.44622
2.59803
-4.29686
1.88714
3.08593
4.1894
0.586836
4.89675
4.72012
-7.5094
0.477256
8.25911
-6.99471
1.72394
5.94793
-7.0851
0.271913
-6.019
1.09647
-6.35025
-5.65005
4.23689
-5.45009
-4.53997
5.73953
0.863589
-5.8891
0.0717749
-5.84444
-2.71029
-6.40609
-2.2687
-5.53318
-8.65469
-2.01429
-6.6404
6.01474
-5.29751
-2.36059
5.77429
1.59003
-7.2787
7.27443
-7.5936
7.19453
0.0883514
3.62771
4.34944
1.91286
-2.37411
4.28697
-4.96356
7.24789
-8.65872
3.69517
4.07393
-6.50692
-4.5848
4.92671
4.09132
5.24591
9.05807
-10.4974
1.43929
-10.7254
12.7867
-2.06127
-16.6375
5.91201
-7.57938
2.64656
0.271066
2.68931
0.676173
2.35155
-3.02772
-2.27689
-2.31004
-2.26178
-3.25911
5.52089
1.18505
-3.28842
2.10338
-3.41719
4.60224
-0.0750185
-3.2134
5.12263
-2.77108
5.3937
-3.49221
1.90149
3.23766
5.47518
-2.23752
4.16649
-1.58096
1.7579
-3.99542
-1.50121
-2.96727
5.0071
-3.16401
3.58202
-0.215597
3.79762
-4.0043
0.96439
-0.638373
3.57586
3.73019
4.10665
-3.03182
2.8576
-4.43856
-1.13782
-3.85173
-0.765794
-0.759297
-3.59685
4.35615
5.85352
-6.61282
-5.38577
9.58998
-4.20421
7.71249
-5.46614
-2.24635
-4.25926
-4.32465
3.84869
1.99793
9.71042
0.17267
-5.63881
-4.97431
-3.99977
3.13368
2.02282
-2.0628
3.68778
2.00711
-0.118172
0.642387
1.17722
1.89858
-1.25619
0.158302
1.74027
-1.42482
2.04377
0.725889
-2.10937
0.0544145
-1.42107
3.34452
0.983856
-2.04496
0.788772
1.0884
-3.34413
4.65979
-2.27717
-2.38263
5.7482
1.22399
-3.50116
4.07461
-3.76113
2.28492
-3.19335
-1.21624
-4.97737
-3.40533
-2.45296
4.55633
-3.06793
5.08326
1.11909
-4.90926
6.02836
-3.4473
1.65194
-3.0645
3.79039
-1.15494
-1.90956
2.62084
2.61176
-2.78994
0.0752235
-0.169098
2.19508
-2.36417
-0.606405
-2.53342
-4.55324
4.89922
-2.17009
4.61903
2.11688
-1.927
6.54603
1.83346
-3.76047
-3.26217
-3.71479
-1.3939
3.15094
-1.05692
-5.6101
-7.0344
5.65762
-0.114223
-8.14808
10.0779
-1.92986
-5.43916
1.39447
5.32936
-7.7306
1.01133
-4.53024
5.5477
6.13729
6.02306
-9.49021
0.519141
-5.13837
2.2474
-7.38578
6.38165
-5.12121
7.95271
-9.27033
6.90975
-7.68031
5.12349
-2.26228
5.60089
-3.77177
2.41625
-6.44288
-5.0664
7.008
-3.63743
7.7965
-4.16626
11.9628
-7.14497
7.00628
4.95647
-1.45666
-5.89565
-6.85391
5.39725
0.152371
5.96846
4.92288
-2.89429
4.55524
2.2179
-4.62189
-2.07896
-6.47484
1.85294
-3.33069
-1.87952
3.73246
3.20826
3.73297
1.28624
-3.26273
6.74084
-7.53233
-2.0548
-3.59525
6.76605
-1.3688
4.07302
-7.66827
-2.27723
6.20496
-0.541972
-5.66299
-0.0404679
-4.4995
0.774021
-5.27352
4.67607
-4.6043
2.17762
-9.757
-5.10108
-4.90409
-2.40208
-5.19152
-7.72844
5.32636
-1.81643
5.458
-8.81607
8.2741
-3.97065
9.29701
-5.40135
-1.00475
5.88018
1.31435
10.6114
0.0200022
-4.6048
-1.80004
3.82512
-2.02507
1.33364
-3.57685
0.248267
2.44365
3.30455
-6.47353
-0.0333898
-4.63819
-3.81977
7.91109
5.77022
11.6237
1.12637
9.14346
-1.23237
10.2698
4.01354
4.23161
-3.27698
4.71626
1.07917
4.77434
-0.851654
2.75314
1.83766
1.88376
0.843584
2.27726
1.45293
3.24165
0.213924
-2.09612
4.69267
-8.69245
-0.946139
-8.11027
1.11047
5.77855
-4.66809
3.0356
-1.01278
1.01053
0.208509
-1.83755
1.62904
-2.69227
-1.95572
-0.21545
-1.50016
2.28893
1.84436
-2.07348
-0.618789
0.265403
-3.67074
2.92794
-2.85272
-0.240963
5.78739
-2.65874
0.294565
-1.0068
-2.23886
-2.838
2.78359
6.24666
0.299375
3.13787
5.19859
3.08711
0.19282
5.34126
-6.42897
-3.87132
-5.90983
0.471818
5.80118
2.10823
7.87412
7.06471
5.69591
-1.97236
-9.50469
8.0008
-3.28453
5.93952
-0.276535
-4.99699
4.53366
2.71423
-5.39725
0.792952
-4.20404
-7.48857
-0.509578
8.78367
-10.1018
9.09703
6.38674
0.253656
-4.22701
-0.677081
4.06736
0.164246
10.4341
-1.15582
-6.97217
8.12799
-4.62274
3.6766
0.847496
2.84029
2.47654
1.46376
-5.50841
-10.1765
-1.76115
-1.58297
-4.14378
0.357405
-2.20176
6.28037
-2.60377
4.03402
5.52421
6.53474
-2.32856
-4.28426
6.53277
-2.49875
4.03599
)
;

boundaryField
{
    wall-4
    {
        type            calculated;
        value           uniform 0;
    }
    velocity-inlet-5
    {
        type            calculated;
        value           uniform -3.75095;
    }
    velocity-inlet-6
    {
        type            calculated;
        value           uniform -5.62643;
    }
    pressure-outlet-7
    {
        type            calculated;
        value           nonuniform List<scalar> 8(6.19773 6.05768 6.61306 6.76457 6.69056 6.78402 6.71111 6.69462);
    }
    wall-8
    {
        type            calculated;
        value           uniform 0;
    }
    frontAndBackPlanes
    {
        type            empty;
        value           nonuniform List<scalar> 0();
    }
}


// ************************************************************************* //
