/*--------------------------------*- C++ -*----------------------------------*\
  =========                 |
  \\      /  F ield         | OpenFOAM: The Open Source CFD Toolbox
   \\    /   O peration     | Website:  https://openfoam.org
    \\  /    A nd           | Version:  9
     \\/     M anipulation  |
\*---------------------------------------------------------------------------*/
FoamFile
{
    format      ascii;
    class       volVectorField;
    location    "13";
    object      U;
}
// * * * * * * * * * * * * * * * * * * * * * * * * * * * * * * * * * * * * * //

dimensions      [0 1 -1 0 0 0 0];

internalField   nonuniform List<vector> 
918
(
(0.985272 -0.000406524 0)
(0.0050007 2.96626 0)
(-0.000956153 1.65177 0)
(0.979779 0.00206208 0)
(0.000700104 1.61488 -6.35748e-22)
(-0.00702859 2.94878 -1.90227e-18)
(0.850202 1.1829 7.25972e-19)
(0.500537 0.239139 -9.24286e-21)
(0.999966 -0.000451383 0)
(0.018324 1.30906 0)
(-0.00811616 1.38829 0)
(0.831983 -0.00490487 0)
(0.0110956 2.93031 0)
(0.00165235 2.79448 0)
(-0.0182785 3.17263 1.08135e-18)
(-0.00320272 1.52826 -1.76438e-20)
(0.597101 0.106388 5.74141e-19)
(0.184677 1.26448 5.57409e-19)
(0.965733 0.00553804 0)
(0.00104639 1.50581 0)
(0.17184 0.276611 -4.90132e-19)
(1.00132 -0.00524447 0)
(1.00011 -0.0100299 0)
(0.975462 -0.00668477 0)
(0.749014 -0.0246573 0)
(0.0177538 2.62909 0)
(-0.0152391 2.91024 6.60155e-19)
(-0.00944447 1.67318 0)
(-0.00884707 1.76334 0)
(-0.00785117 1.6697 0)
(0.00308921 1.80337 0)
(0.00163518 1.6274 5.03291e-22)
(-0.00175181 1.53901 0)
(-0.0206146 2.98758 -6.66609e-23)
(-0.0167088 3.00531 1.47873e-18)
(0.00210608 3.00022 0)
(0.874859 -0.00513553 0)
(0.372099 0.893456 -2.69776e-20)
(0.842254 1.19807 -1.01033e-18)
(0.985338 1.05479 9.51222e-19)
(0.70866 1.28791 -1.70043e-19)
(0.695818 1.26667 9.45662e-19)
(0.533647 0.309081 9.01813e-21)
(0.526567 0.211926 0)
(1.19489 0.572628 0)
(0.493378 0.325199 4.18375e-20)
(0.458772 0.235954 -4.34119e-20)
(0.918495 -0.00735771 0)
(1.00044 1.09263e-05 0)
(0.999956 0.000357971 0)
(1.00428 -0.00776536 0)
(1.00055 -0.000681669 0)
(1.00012 0.000156381 0)
(0.0390998 1.58183 -5.48318e-19)
(-0.00712633 1.40482 0)
(0.0215578 1.25455 0)
(-0.00992987 1.46841 0)
(0.0180596 1.33113 0)
(0.00186898 1.5742 0)
(-0.0107417 1.5342 0)
(0.00131655 1.37911 0)
(-0.0153894 1.56005 0)
(-0.0101322 1.41222 0)
(0.906019 -0.000406238 0)
(0.906679 0.00679389 0)
(0.845429 0.00102455 0)
(0.89942 0.0102372 0)
(0.819939 -0.00625898 0)
(0.0147085 3.00039 6.96977e-19)
(0.0115415 3.00786 0)
(0.00614447 3.00286 0)
(0.0135711 2.99732 7.7808e-24)
(0.00798715 2.95845 -1.03588e-18)
(0.0145187 2.98207 0)
(0.0107764 2.90363 0)
(0.0254402 2.93 1.40491e-24)
(0.00392912 2.82511 0)
(0.0322841 2.91509 0)
(-0.00713102 2.74438 0)
(0.311376 3.57268 0)
(-0.132459 3.65531 0)
(0.141035 3.2632 -1.00637e-18)
(-0.00958416 2.99433 0)
(-0.00395032 1.7837 0)
(-0.00341065 1.64747 1.7406e-20)
(-0.00310829 1.54116 -2.66351e-20)
(0.658408 0.164703 -1.9724e-19)
(0.618374 0.0710725 -1.90614e-19)
(0.625848 0.196848 -5.90686e-19)
(0.581575 0.133257 -3.94475e-19)
(0.276209 1.09332 0)
(0.215187 1.29402 -5.84252e-19)
(0.342541 1.27465 9.75346e-19)
(0.988566 0.00915893 0)
(0.944169 0.00811279 0)
(1.00033 0.00063543 0)
(1.0027 0.0094695 0)
(1.00234 0.00853048 -1.10781e-18)
(0.991921 0.00972146 8.36944e-19)
(-0.00676856 1.61401 0)
(-0.00418982 1.50082 0)
(-0.0126517 1.68256 0)
(-0.00901432 1.63657 0)
(0.00109683 1.52008 0)
(0.253636 0.286286 1.51086e-19)
(0.294155 0.267831 0)
(0.993074 -0.00866039 0)
(0.954003 -0.00631632 0)
(0.875438 0.0197416 0)
(0.840369 0.0327685 0)
(0.795968 -0.00549006 0)
(1.02615 -0.00429723 0)
(0.789957 0.0363153 0)
(0.670375 -0.0174463 7.75765e-19)
(-0.0346882 2.86757 3.43495e-19)
(0.0440518 2.90778 0)
(0.0579994 2.88199 0)
(-0.00558259 2.69545 0)
(-0.0130979 2.98511 6.07887e-19)
(-0.0184024 2.8956 0)
(-0.015437 2.98804 -1.92085e-18)
(-0.0134994 2.92522 6.6317e-19)
(-0.00580827 1.81367 0)
(-0.00408568 1.80866 0)
(-0.00196002 1.64911 -3.5835e-22)
(-0.00012836 1.62717 0)
(-0.00501068 1.52606 0)
(0.935907 -6.10316e-05 0)
(0.874865 0.000856918 0)
(0.85836 0.00414162 0)
(0.939306 -0.00322621 0)
(0.881817 -0.00360411 0)
(0.482557 1.09124 2.35758e-20)
(0.535554 1.1549 0)
(0.337628 0.825594 4.52806e-21)
(0.276693 0.693019 0)
(0.956702 1.08298 -2.747e-19)
(1.0749 0.89892 5.69554e-19)
(0.400723 1.3319 0)
(0.5803 1.32861 0)
(0.493592 1.30179 0)
(0.0993888 0.0669868 -9.63992e-20)
(0.566351 0.284253 0)
(0.555545 0.190874 1.13907e-19)
(1.0448 0.945438 0)
(1.11497 0.791106 0)
(1.14118 0.738658 -4.98048e-19)
(1.17464 0.630291 0)
(1.22753 0.41538 6.12054e-20)
(0.949976 -0.00527217 0)
(0.958555 -0.00928487 0)
(0.89825 -0.00666191 0)
(0.984451 -0.00877227 0)
(0.975504 -0.00791755 0)
(0.939131 -0.00595797 0)
(1.00017 0.00229354 0)
(1.00074 0.00138654 0)
(0.999941 0.000766437 0)
(0.0278667 1.70829 2.95649e-19)
(0.0739002 1.54813 0)
(0.0148671 1.73339 4.89437e-19)
(0.0237758 1.59756 -4.17115e-19)
(0.0529953 1.27885 -4.63492e-19)
(-0.0302757 1.3412 0)
(0.0643215 1.23549 0)
(-0.00310251 1.50308 0)
(0.0128444 1.34842 0)
(-0.00234581 1.67933 -1.20506e-21)
(-0.00378851 1.58502 0)
(0.000912595 1.68313 -5.84926e-20)
(0.000447621 1.58332 1.12362e-19)
(-0.00320701 1.52404 0)
(-0.00272914 1.53365 0)
(0.00923767 1.36735 0)
(-0.0184524 1.58125 0)
(-0.0120143 1.44002 0)
(0.974565 0.01378 0)
(0.924391 0.0045649 0)
(0.958184 0.00720835 0)
(0.897256 0.00170409 0)
(0.849464 -0.00600853 0)
(0.925849 0.000306898 0)
(0.919008 0.00809685 0)
(0.847248 -0.000200011 0)
(0.00606111 3.06456 -6.15172e-21)
(0.0161944 3.05816 0)
(0.0147203 2.9692 0)
(0.00854463 2.87635 0)
(0.927043 3.99211 0)
(1.24129 3.3178 1.01286e-18)
(0.0718484 3.08613 0)
(-0.0259589 2.91278 0)
(-0.00797012 1.79454 0)
(-0.00894186 1.78651 0)
(-0.00592898 1.78917 0)
(-0.000980064 1.79154 5.78743e-21)
(-0.00628394 1.78547 0)
(-0.000116044 1.78483 0)
(-0.00419023 1.55544 2.98967e-21)
(-0.00499817 1.6709 3.53626e-20)
(-0.00417876 1.66047 2.72087e-20)
(-0.00271736 1.54481 0)
(0.689566 0.131544 2.89813e-19)
(0.65368 0.04436 -2.81539e-19)
(0.236174 1.34322 0)
(0.29762 0.891943 -2.58388e-19)
(0.169297 1.44712 -7.70691e-19)
(0.216778 1.25199 7.68967e-19)
(0.899306 0.00999338 0)
(0.966823 0.0135554 0)
(0.97623 0.0130434 0)
(0.923499 0.0105402 0)
(-0.0163897 1.59865 0)
(-0.0118752 1.60915 0)
(-0.00991336 1.4704 0)
(0.447306 0.343903 3.8514e-19)
(0.365877 0.321862 -4.68535e-19)
(0.383889 0.244651 0)
(1.14297 0.0839121 -2.65314e-21)
(1.12794 0.038854 0)
(1.05979 0.0328169 0)
(0.975853 0.00309108 0)
(0.710492 0.0851231 0)
(0.732783 0.0555049 -1.24722e-18)
(0.660783 0.0122026 4.77069e-19)
(0.010025 2.98265 4.33956e-19)
(-0.0320342 2.86821 4.81682e-20)
(0.00395542 3.05016 -1.32731e-20)
(0.0198605 3.04358 4.77517e-19)
(-0.0150702 2.9965 2.20306e-20)
(-0.01298 2.94937 -8.91776e-23)
(-0.0173148 3.01201 -4.17098e-19)
(0.0147656 3.02411 3.01555e-19)
(0.00725206 3.03675 -4.72022e-19)
(0.953453 0.00720731 0)
(0.946541 0.00517723 0)
(0.882508 0.00381041 0)
(0.95375 0.0124589 0)
(0.937497 0.0123954 0)
(0.875248 0.00873049 0)
(0.926668 -0.00190351 0)
(0.922792 0.00345371 0)
(0.84957 -0.00501053 0)
(0.694301 1.39151 3.17941e-19)
(0.735596 1.50799 0)
(0.213192 0.411441 3.09451e-20)
(0.1742 0.534517 2.44598e-19)
(0.25373 0.649246 -1.16791e-19)
(0.210811 0.55134 2.20977e-19)
(0.316459 0.626181 5.63372e-19)
(0.113895 0.116088 1.9917e-19)
(0.608937 0.226152 4.27906e-19)
(0.587404 0.249451 1.04633e-19)
(0.562714 0.160806 2.18245e-19)
(1.2154 0.469825 2.89349e-19)
(1.23224 0.262845 3.03341e-19)
(0.00468491 1.73811 1.92175e-19)
(0.00879536 1.60701 0)
(1.01443 0.0240004 0)
(0.987753 0.014037 0)
(0.944712 -0.00263831 0)
(0.0109418 3.07503 0)
(0.020209 2.94414 8.21864e-19)
(0.0166234 2.95656 0)
(0.00602453 2.85065 -8.1535e-19)
(0.00592593 3.0919 1.95236e-19)
(0.00731 3.08184 0)
(0.770201 1.81821 -2.33626e-19)
(1.24647 2.51174 6.39033e-19)
(0.755276 1.96319 -1.47948e-18)
(0.021447 2.98606 -3.18491e-19)
(0.0374536 3.00972 0)
(-0.0317211 2.8835 0)
(-0.00431227 1.67128 -7.1075e-21)
(-0.00570519 1.67705 -8.01998e-20)
(-0.00448559 1.57285 -5.16418e-21)
(0.320321 1.2363 7.59395e-19)
(0.274131 0.652768 -5.11093e-19)
(0.0522197 1.64988 5.00068e-19)
(0.091624 1.54843 -6.16412e-19)
(0.122681 1.42665 7.92905e-20)
(0.00549361 3.11864 -1.02993e-18)
(0.0117249 3.11909 1.1224e-18)
(-0.0086622 2.98098 5.29943e-19)
(-0.00360989 2.978 -4.69652e-19)
(-0.0214907 2.88192 -5.39737e-19)
(0.00861091 3.09955 -1.43123e-18)
(0.00204835 3.10492 1.43254e-18)
(0.189927 0.542531 0)
(0.0872736 0.510417 -4.57326e-19)
(0.147572 0.186081 1.8788e-19)
(0.350136 0.772989 6.13221e-19)
(0.200275 0.205826 -9.32314e-19)
(1.22541 0.171031 -5.29133e-20)
(1.22916 0.313444 0)
(1.21295 0.119578 1.1829e-19)
(-0.00960438 1.70563 -1.54759e-21)
(-0.00750283 1.71914 0)
(-0.000847897 1.59568 0)
(0.367715 1.11508 -2.4704e-19)
(0.373465 0.981756 -5.07715e-19)
(0.201845 0.389203 8.79583e-19)
(1.00562 -0.0107845 0)
(1.00766 -0.00809192 2.02158e-19)
(-0.00496248 1.80321 0)
(-0.0107439 1.80999 0)
(1.00262 0.00376113 1.91939e-21)
(1.0025 0.0086645 4.15543e-19)
(-0.000779079 1.79501 -7.54445e-21)
(-0.00143939 1.79497 0)
(0.0407242 3.18626 1.2194e-19)
(0.401831 3.50794 0)
(1.1001 0.642659 6.04982e-20)
(1.01268 0.0131682 -2.54773e-21)
(1.01671 -0.0209056 0)
(1.0016 0.000426114 1.52631e-22)
(-0.111339 1.58706 0)
(0.0186558 1.98006 0)
(-0.0162906 1.78118 0)
(-0.0188674 1.83677 8.47842e-20)
(-0.00375776 1.81822 4.39186e-20)
(1.00387 0.0115552 2.36974e-21)
(1.0455 0.0139085 0)
(1.07348 0.0223813 0)
(-0.0103432 1.78695 0)
(-0.00728696 1.80591 0)
(-0.0156441 1.79555 0)
(0.149331 1.23028 -3.85313e-19)
(1.01123 -0.00938084 0)
(1.01016 -0.0129787 0)
(1.0026 0.000776238 2.56033e-19)
(1.00617 -0.00543159 -3.04845e-19)
(1.00088 -0.000850345 0)
(-0.0119532 1.78767 0)
(-0.00814297 1.79671 0)
(-0.00738547 1.79376 0)
(-0.0122062 1.79829 0)
(-0.00832489 1.79482 0)
(-0.0109295 1.79779 0)
(1.02307 0.00900005 0)
(1.02366 0.00556984 -1.08134e-21)
(0.78638 1.24582 5.13432e-19)
(1.00231 0.000481035 -2.54641e-19)
(1.0036 0.00546484 3.08866e-19)
(1.00124 0.00195491 0)
(1.01025 0.010012 2.5088e-19)
(1.00801 0.00873723 -3.0878e-19)
(1.00652 0.0145923 0)
(-0.00702992 1.80607 0)
(-0.00523131 1.80146 1.50082e-20)
(-0.00588979 1.80103 -1.02826e-20)
(1.18017 0.260166 -4.86052e-20)
(1.11658 0.078337 0)
(0.0566226 3.0785 -5.36456e-19)
(0.0700661 2.84983 -4.30112e-20)
(0.149481 3.19949 8.20018e-19)
(0.142418 3.22834 -8.34778e-21)
(0.142421 3.24626 0)
(0.0218094 3.1392 1.1733e-19)
(0.0821792 3.16304 5.24011e-19)
(0.0746595 3.19113 -2.26597e-19)
(0.0263665 3.12819 0)
(0.710223 0.337791 0)
(0.616276 0.393052 0)
(1.0813 0.670666 -2.36963e-19)
(1.07261 0.808875 3.72332e-19)
(1.12993 0.559707 0)
(1.1622 0.507559 0)
(1.01554 0.0131551 -4.66731e-19)
(1.01344 0.0148111 5.79148e-19)
(1.01578 -0.0214598 0)
(1.01256 -0.0195073 0)
(1.00725 0.0019876 0)
(1.01081 0.00260567 0)
(1.00412 0.00304437 0)
(1.01031 0.00704079 0)
(1.00665 0.0057851 0)
(1.00566 0.00477292 0)
(-0.093637 1.60033 0)
(-0.0662592 1.64607 0)
(-0.133286 1.54999 0)
(-0.0851657 1.48733 0)
(0.0237273 1.99507 0)
(0.092627 1.9809 -3.18498e-19)
(0.00847471 1.97389 0)
(-0.000687293 1.93759 1.55699e-19)
(-0.0243304 1.87959 -1.4914e-19)
(-0.0176401 1.78055 0)
(-0.0207149 1.78055 0)
(-0.0175948 1.77826 0)
(-0.011999 1.75693 0)
(-0.0338311 1.82066 -4.46617e-20)
(-0.00632789 1.82256 6.04428e-20)
(-0.0120707 1.83764 7.8353e-20)
(-0.00116937 1.82855 0)
(-0.0086301 1.82027 -9.70152e-20)
(-0.00945532 1.81617 -5.48808e-20)
(-0.0261199 1.81701 3.48611e-20)
(-0.0164734 1.81942 -7.73573e-20)
(-0.0135052 1.82861 -9.33577e-20)
(1.01061 0.016673 4.56949e-19)
(1.00937 0.00341978 -5.71307e-19)
(1.00528 0.020196 -4.74476e-19)
(0.991575 0.0153197 5.99624e-19)
(1.03879 0.0165182 0)
(1.04012 0.0106776 0)
(1.06039 0.0379067 0)
(1.04592 0.0217979 0)
(1.05932 0.0128372 0)
(1.10287 0.0686451 0)
(1.0788 0.0470225 0)
(1.09272 0.0366267 0)
(-0.00721579 1.79596 -1.73479e-21)
(-0.0103072 1.78622 0)
(-0.00895528 1.78829 0)
(-0.00699167 1.8084 1.57591e-20)
(-0.00692565 1.80859 -7.23013e-22)
(-0.0143168 1.78454 1.7129e-20)
(-0.0128808 1.78772 -1.75926e-20)
(-0.0137518 1.79371 0)
(-0.0109381 1.79457 0)
(-0.0115652 1.79541 0)
(-0.0160396 1.79416 0)
(-0.0170338 1.79511 0)
(0.340447 1.22467 8.39418e-19)
(0.391494 1.32407 3.2217e-19)
(0.511544 2.32867 -1.79254e-19)
(0.228425 2.13884 4.89514e-19)
(0.117543 2.42867 -1.0252e-19)
(1.0179 -0.0158554 0)
(1.01612 -0.0101796 0)
(1.01492 -0.0195931 0)
(1.00878 -0.00130931 0)
(1.00483 -0.00181275 0)
(1.0069 -0.00454943 0)
(1.01033 -0.00370048 0)
(1.01203 -0.0065024 0)
(1.02378 0.00801779 4.49435e-19)
(1.01603 0.0162614 -5.56835e-19)
(1.02462 0.00254809 -4.49398e-19)
(1.02132 0.00218787 5.49784e-19)
(0.754133 1.2644 0)
(0.655615 1.34435 6.29026e-19)
(0.874148 1.17642 3.6297e-19)
(0.907939 1.14982 -4.83315e-19)
(1.1126 2.60017 -5.16097e-19)
(0.824753 0.100417 2.9773e-19)
(1.11804 0.0914028 0)
(1.15824 0.171909 4.5743e-20)
(1.15062 0.149334 1.95237e-21)
(0.966678 0.129465 0)
(0.153139 2.97022 1.27461e-19)
(0.129481 2.87663 -6.78818e-19)
(0.041282 2.34806 4.97077e-19)
(0.117528 0.139635 -2.04872e-19)
(0.346619 3.43717 -4.40692e-19)
(0.200665 3.32621 0)
(0.242312 3.37293 5.73917e-19)
(0.262042 3.04306 -7.3731e-19)
(0.354195 3.20387 0)
(0.00833018 3.12031 2.74927e-20)
(0.0195005 3.1294 -3.48098e-19)
(0.01722 3.12527 5.12371e-19)
(0.0390673 3.13983 0)
(0.0374276 3.15235 0)
(1.19139 2.61346 0)
(0.509162 0.827843 -2.26439e-19)
(1.01166 0.981107 -1.99858e-19)
(0.963609 1.06397 0)
(0.81393 0.953698 5.77881e-20)
(1.03631 0.867304 3.23756e-20)
(0.406041 0.480463 -5.53657e-19)
(0.735866 0.328149 -2.31615e-20)
(0.730084 0.280525 2.27254e-19)
(0.614669 0.433923 1.80653e-20)
(0.556029 0.428012 -7.43917e-19)
(0.708749 0.366336 0)
(0.689089 0.435683 3.76567e-19)
(0.70176 0.433706 0)
(0.659088 0.413008 0)
(0.673916 0.356916 0)
(0.733185 0.602902 1.35964e-19)
(1.16849 0.269285 1.83798e-20)
(1.16881 0.402379 0)
(1.18735 0.369378 0)
(0.78072 0.213534 3.37329e-19)
(0.778829 0.533535 -1.88868e-19)
(0.68827 0.510869 3.0728e-19)
(0.883187 0.400866 -2.91819e-19)
(1.01776 0.0173959 2.99648e-19)
(1.01691 0.0152927 -3.15785e-19)
(1.01242 0.0217305 0)
(1.02034 0.005173 0)
(1.01399 -0.014567 -2.84414e-19)
(1.00757 -0.0098729 2.81749e-19)
(1.03357 0.00405292 0)
(1.03007 0.00437961 0)
(1.01238 0.00413536 0)
(1.01517 0.00962657 0)
(1.02224 0.00211014 0)
(1.01671 0.00116131 0)
(-0.0524572 1.67761 0)
(-0.0376845 1.69563 0)
(-0.221678 1.56212 1.12412e-19)
(0.0797121 1.31914 1.89756e-19)
(-0.0862833 1.43011 3.65551e-19)
(0.00375992 1.33883 -6.12032e-19)
(-0.217065 1.53154 0)
(-0.273524 1.94652 4.67833e-20)
(-0.247668 1.93946 0)
(-0.0562404 2.44678 1.45582e-19)
(-0.0524681 2.44562 2.84691e-19)
(-0.308648 1.95379 -4.15689e-20)
(-0.0927637 1.3494 1.89874e-19)
(-0.224588 1.50444 -1.51e-19)
(-0.112167 1.34314 5.56299e-19)
(-0.255828 2.0252 0)
(-0.214993 2.05826 -3.53573e-19)
(-0.0693564 1.85095 -3.92462e-20)
(-0.0230927 1.89194 0)
(-0.0519951 1.87786 1.57107e-19)
(-0.0616543 1.86359 0)
(-0.00818061 1.92722 -1.69614e-19)
(-0.0107538 1.91249 0)
(-0.0257301 1.7973 -3.59714e-20)
(-0.0316406 1.80317 0)
(-0.0380335 1.78241 0)
(-0.0314496 1.79053 4.03266e-20)
(-0.0300276 1.84573 -3.74706e-21)
(-0.0283102 1.87134 1.76967e-19)
(-0.0246565 1.85867 1.19752e-21)
(-0.0179171 1.80527 3.2622e-20)
(-0.0210097 1.80416 1.93485e-20)
(-0.0241673 1.78198 0)
(-0.0239665 1.78263 0)
(-0.0641575 1.82414 9.2438e-20)
(-0.0543447 1.78233 6.28898e-20)
(-0.0533085 1.80062 -8.93746e-20)
(-0.0876918 1.83762 0)
(-0.0122403 1.79945 -5.41503e-20)
(-0.0109036 1.80869 2.54278e-20)
(-0.0108933 1.80791 -8.2555e-21)
(-0.0159667 1.80592 -3.96628e-20)
(-0.0126269 1.81197 -1.27998e-20)
(-0.0139657 1.81451 6.5203e-20)
(1.02125 0.00275523 -2.90711e-19)
(1.0156 0.00956498 2.99389e-19)
(1.01626 0.00357973 0)
(0.995799 0.0459713 4.24028e-19)
(0.990959 0.0320713 -5.02998e-19)
(0.963091 0.0252106 5.8207e-19)
(0.99231 0.0830953 -5.70094e-20)
(1.02521 0.0118957 0)
(1.0322 0.0110558 2.61692e-19)
(1.03105 0.0082494 -2.5941e-19)
(1.03243 0.0414523 -1.42443e-20)
(1.03307 0.0265683 1.24807e-19)
(1.02394 0.0503213 0)
(1.01833 0.0434316 -4.6749e-20)
(1.01642 0.0220427 0)
(1.01736 0.018661 0)
(1.03325 0.00601687 0)
(1.02691 0.00347405 0)
(1.02338 0.0223047 9.60218e-20)
(1.02632 0.0155562 -2.1729e-19)
(1.02442 0.0303429 -9.81923e-20)
(1.02394 0.0314289 -1.13625e-19)
(1.02172 0.049457 2.00661e-19)
(1.05879 0.0473682 0)
(1.04769 0.0874605 0)
(-0.0127242 1.79923 -2.30235e-20)
(-0.011825 1.79122 -1.96804e-21)
(-0.0130787 1.78981 0)
(-0.00941536 1.80199 2.4368e-20)
(-0.00838445 1.79825 3.52183e-21)
(-0.00829031 1.80033 -3.95811e-21)
(-0.010138 1.81538 4.85891e-20)
(-0.0104268 1.81123 -2.93502e-21)
(-0.0116843 1.81065 1.38566e-20)
(-0.00811942 1.81245 -2.44953e-20)
(-0.00934891 1.81245 2.87412e-20)
(-0.0155502 1.78611 5.16075e-22)
(-0.0157688 1.78588 2.53639e-20)
(0.305474 1.09706 -4.66436e-19)
(0.181841 1.44108 -7.33722e-19)
(0.645222 1.33744 -6.11802e-19)
(0.520152 1.32506 -3.02259e-19)
(0.516695 1.37541 0)
(0.573807 2.34479 1.40677e-19)
(0.654267 2.34587 2.34393e-19)
(0.255236 2.21506 1.15682e-19)
(0.166719 2.5021 -2.47236e-19)
(0.221339 2.51652 2.36284e-19)
(0.475811 2.33005 0)
(0.370389 2.21101 -4.16934e-19)
(0.0582091 2.05806 8.0887e-19)
(0.167454 2.14747 -7.74844e-20)
(0.192138 2.01583 -1.09003e-18)
(0.907465 2.36931 9.14036e-20)
(0.861481 2.40057 0)
(1.00976 -0.00185958 1.00771e-20)
(1.01307 -0.00790321 -8.37906e-21)
(1.01504 -0.010801 -1.47673e-19)
(1.01713 -0.0120912 1.50131e-19)
(1.01519 -0.00410533 0)
(0.675466 1.24864 0)
(0.663947 1.18555 0)
(0.762754 1.0528 0)
(0.646199 1.14578 0)
(1.143 2.61704 6.59257e-20)
(1.02772 2.325 0)
(0.818411 2.16701 7.40609e-22)
(0.929298 2.50769 0)
(0.99577 2.55442 2.70637e-20)
(1.00257 2.49096 -1.83936e-20)
(0.831755 0.146283 0)
(0.798595 0.166381 8.55484e-20)
(0.89507 0.120773 4.40777e-19)
(0.856998 0.103609 -1.76932e-19)
(0.857578 0.0680329 -5.27953e-19)
(1.01761 0.217043 -2.70926e-19)
(0.949231 0.252543 -1.63972e-20)
(0.89973 0.246593 3.86191e-19)
(0.965319 0.198404 3.00006e-19)
(0.920006 0.163621 -5.54992e-19)
(0.8887 0.173103 7.11094e-20)
(0.918223 0.228779 -1.39373e-19)
(0.896355 0.19261 0)
(0.97025 0.167268 2.67157e-19)
(1.00003 0.170157 0)
(0.995702 0.196751 0)
(1.048 0.0945292 8.93189e-20)
(1.01614 0.155613 -1.19545e-20)
(1.00997 0.217878 -4.89165e-20)
(1.04534 0.187517 0)
(1.01008 0.0246776 2.30182e-19)
(1.0134 0.0425968 2.73418e-19)
(1.01459 0.0292183 -2.28159e-19)
(1.00795 0.0469729 -1.83873e-19)
(0.998904 0.0494647 -3.00046e-19)
(0.971963 0.130485 0)
(0.989022 0.0827096 0)
(0.965188 0.0471737 -2.10548e-19)
(0.9272 0.0545923 8.68003e-20)
(0.996047 0.0777117 2.6036e-19)
(1.01195 0.0929041 -2.69381e-19)
(1.02259 0.128719 2.44824e-19)
(1.00052 0.119812 0)
(1.02323 0.0819476 0)
(1.01202 0.0690399 -1.12587e-19)
(1.0101 0.0715366 -2.0977e-19)
(0.507131 1.12436 -6.62749e-20)
(0.557572 1.56724 1.43595e-19)
(1.11085 2.78874 1.14803e-19)
(1.20275 3.11299 -7.28241e-20)
(1.21318 2.73346 5.4197e-19)
(1.25143 2.71998 -3.28906e-19)
(1.1713 2.33162 -5.87239e-21)
(1.18395 3.01444 2.03742e-19)
(1.19742 2.97625 -2.28921e-19)
(1.1994 3.26468 -2.69292e-19)
(1.36109 2.99069 3.73439e-19)
(1.35735 2.90147 0)
(0.508304 0.834261 -1.16381e-20)
(0.162382 1.29432 3.69065e-19)
(0.510443 0.552881 3.64353e-19)
(0.33444 0.323174 3.98882e-19)
(0.554337 0.454751 4.15548e-19)
(0.540054 0.502032 -6.57534e-19)
(0.540621 0.530645 5.37488e-19)
(0.514655 0.478426 -2.17034e-19)
(0.484042 0.436698 4.98704e-19)
(0.779521 0.259566 -1.87548e-19)
(0.750069 0.293236 0)
(0.748529 0.257053 1.20403e-20)
(0.679758 0.519916 1.92155e-19)
(0.658961 0.487238 -7.12109e-19)
(0.599963 0.501351 2.01788e-20)
(0.61953 0.478508 0)
(0.627564 0.722404 1.46967e-19)
(0.772373 0.776631 6.01915e-20)
(0.704828 0.837132 -7.84022e-20)
(0.810967 0.804469 -2.12226e-20)
(0.871187 0.833262 1.39812e-20)
(0.877489 0.845557 -1.43046e-20)
(0.782355 0.620463 -2.3524e-19)
(0.862144 0.690584 1.97319e-20)
(0.928269 0.695666 0)
(0.917767 0.664675 -2.19271e-20)
(0.969289 0.290119 6.72678e-20)
(1.06627 0.270529 2.03211e-20)
(1.00384 0.249882 1.10554e-19)
(0.942291 0.325946 -1.51948e-19)
(0.98224 0.399814 0)
(1.04936 0.381631 0)
(0.873423 0.329999 6.06344e-21)
(0.844287 0.279254 0)
(0.842744 0.245101 2.04824e-19)
(0.889553 0.252104 -3.97072e-21)
(0.874127 0.405351 8.00398e-19)
(0.822842 0.46966 2.039e-19)
(0.82658 0.434023 -2.54329e-19)
(0.767291 0.424041 2.73183e-19)
(0.752709 0.427745 1.86706e-19)
(0.743854 0.421639 -1.82682e-19)
(1.02476 -0.00188047 2.43659e-19)
(1.02991 -0.00578688 0)
(1.02838 -0.0103637 1.62035e-19)
(1.02333 -0.0115463 -3.61467e-19)
(1.03668 0.00183476 1.77402e-19)
(1.03069 0.00821038 -3.74642e-19)
(1.02865 0.00978904 0)
(1.02199 0.012072 -7.66848e-20)
(1.02578 0.00666254 1.94654e-19)
(1.01912 0.0127136 -9.95795e-20)
(1.02115 0.0142913 7.25347e-20)
(-0.024593 1.75348 0)
(-0.0448695 1.77552 0)
(-0.0353217 1.72125 0)
(-0.0225351 1.72823 0)
(-0.145715 1.72089 -4.62363e-20)
(-0.144696 1.64293 7.04746e-21)
(-0.212466 1.90647 -1.58415e-20)
(-0.272819 1.7136 -8.89354e-20)
(-0.0777178 1.78205 -4.40254e-20)
(-0.0891785 1.77783 3.10271e-20)
(-0.111558 1.72049 2.69622e-21)
(-0.0931545 1.74148 1.3474e-20)
(-0.064184 1.75564 9.51652e-22)
(-0.0597856 1.766 -4.10875e-21)
(-0.0655758 1.91704 -1.6646e-19)
(-0.0629123 1.96383 0)
(-0.149114 1.98248 8.74519e-20)
(-0.191142 1.92538 4.50629e-20)
(-0.200555 2.21602 -2.08911e-20)
(-0.0472441 2.22822 0)
(-0.0654148 2.27215 -3.07235e-19)
(-0.0513864 2.36696 2.25334e-19)
(-0.170694 2.11869 -1.42578e-19)
(-0.156197 2.05297 5.47018e-20)
(-0.0869988 2.10795 0)
(-0.0527041 1.81834 -1.18083e-19)
(-0.043023 1.82449 -1.62861e-19)
(-0.0441717 1.82259 0)
(-0.0507554 1.84288 -5.18074e-21)
(-0.0615135 1.84032 6.24173e-20)
(-0.0198087 1.79427 5.67132e-21)
(-0.0217649 1.79125 -9.29668e-20)
(-0.0251408 1.79293 2.0279e-20)
(-0.0218484 1.79581 3.72057e-20)
(-0.0197772 1.79815 0)
(-0.0251097 1.79147 0)
(-0.0220493 1.79045 2.97648e-20)
(-0.023646 1.78877 -8.68964e-21)
(-0.0260381 1.78979 0)
(-0.0251891 1.78504 2.28235e-20)
(-0.0215826 1.78919 -4.45827e-20)
(1.02754 0.0177868 0)
(1.0292 0.0164229 -2.32842e-20)
(1.02841 0.0157987 -1.74903e-19)
(1.02756 0.0179376 0)
(1.02756 0.0202224 0)
(1.03056 0.0101517 -4.72274e-21)
(1.03092 0.0102837 2.88219e-19)
(1.02685 0.00860396 3.5507e-19)
(1.02615 0.00572263 0)
(1.02099 0.00516272 0)
(1.02401 0.0148394 1.76906e-19)
(1.02001 0.0127044 0)
(1.0211 0.0107849 0)
(-0.0137832 1.80038 0)
(-0.0158984 1.78603 1.91999e-21)
(-0.0159462 1.79196 1.28761e-20)
(-0.0221599 1.78981 0)
(-0.0177869 1.7878 1.77264e-20)
(-0.0156582 1.7876 -8.49214e-21)
(-0.01774 1.78726 0)
(0.670354 1.93979 0)
(0.275588 1.51404 1.19695e-18)
(0.273011 2.0911 0)
(0.552531 1.11095 -1.32395e-18)
(0.523842 1.14758 0)
(0.504997 1.13126 5.67237e-19)
(1.03809 2.67454 -2.83296e-21)
(0.932459 2.38417 -1.11779e-19)
(0.823798 2.0779 4.29483e-19)
(0.874405 2.38839 9.24975e-20)
(0.935296 2.53695 0)
(0.970359 2.49647 0)
(0.886124 2.36781 0)
(0.880175 2.35275 -3.49818e-19)
(0.684847 2.60757 5.05674e-20)
(0.931654 2.51578 6.56733e-21)
(0.942389 2.49398 -4.95605e-21)
(0.674181 2.39741 0)
(0.805763 2.41098 0)
(0.76542 2.38633 -2.22376e-19)
(0.876754 2.58875 0)
(0.579746 1.10018 0)
(0.466479 0.899472 2.41033e-20)
(0.523174 0.935721 1.58277e-22)
(0.467771 1.04482 0)
(0.491847 0.993414 -3.75389e-20)
(0.727576 0.861545 1.33411e-20)
(0.772074 0.981816 0)
(0.747432 0.957262 -6.47546e-20)
(0.627763 1.00516 0)
(0.625455 0.919644 0)
(1.12857 2.77745 3.25854e-20)
(1.10008 2.84978 7.89252e-20)
(0.868005 2.38608 -2.01022e-19)
(0.82958 2.36557 9.4127e-21)
(1.09319 2.73518 0)
(1.06079 2.69328 -1.32532e-20)
(1.04699 2.45405 -8.85892e-20)
(0.933056 2.16169 -2.55513e-20)
(0.588567 1.4476 0)
(0.521418 1.12924 5.83663e-20)
(0.600599 1.22055 0)
(0.83588 0.211 0)
(0.808335 0.182784 0)
(0.774483 0.190893 0)
(0.834674 0.210882 -3.23889e-19)
(0.792273 0.21383 1.97128e-19)
(0.927975 0.0521385 -1.72403e-19)
(0.936376 0.0998219 0)
(0.916588 0.100264 8.22538e-20)
(0.884355 0.0725249 3.36289e-19)
(0.886172 0.0589543 -2.07468e-19)
(1.15642 3.38737 -9.82939e-19)
(1.19977 3.30892 0)
(1.16058 3.40982 -1.92473e-18)
(0.653386 3.56877 1.65552e-18)
(0.885881 3.13676 4.05056e-19)
(0.500913 0.843032 1.97744e-19)
(0.423367 0.828556 0)
(0.352414 0.567853 -8.11468e-20)
(0.412907 0.679888 3.67032e-19)
(0.508044 0.548396 -1.12902e-19)
(0.495286 0.564466 1.26312e-19)
(0.614178 0.53974 2.71183e-19)
(0.632701 0.54945 0)
(0.583899 0.624163 0)
(0.546643 0.564236 0)
(0.914187 0.578667 -4.4965e-20)
(0.830189 0.518152 -1.97044e-19)
(0.861357 0.559209 9.85709e-20)
(0.895813 0.495883 -1.44035e-19)
(1.00756 0.465623 0)
(1.00876 0.548164 -9.63489e-21)
(0.809309 0.368383 -4.07382e-19)
(0.818105 0.351367 -4.74013e-19)
(0.798738 0.377656 3.18519e-19)
(0.802165 0.336742 -3.608e-19)
(0.834751 0.291847 -2.60584e-19)
(0.812744 0.293215 3.23925e-19)
(1.03769 0.00316693 -1.85899e-19)
(1.0381 0.00400886 3.77674e-19)
(1.02736 0.00395431 2.32133e-19)
(1.03188 0.00863607 -2.76218e-19)
(1.0285 0.0168703 0)
(1.03215 0.0121326 -4.53036e-19)
(-0.0855419 1.83639 2.82864e-20)
(-0.0989836 1.84052 0)
(-0.126554 1.8719 1.29249e-19)
(-0.150731 1.91399 -1.08429e-19)
(-0.189671 1.88756 2.86872e-20)
(-0.155889 1.87159 0)
(-0.0169634 1.80271 0)
(-0.0230794 1.79434 -9.55327e-21)
(-0.0217446 1.79005 8.59784e-21)
(-0.0197238 1.78937 2.01777e-21)
(-0.0170773 1.79941 -1.72071e-20)
(-0.0161381 1.802 1.08517e-20)
(0.711527 1.42645 5.19238e-19)
(0.758149 1.5362 -5.52006e-19)
(0.649978 1.2124 5.64341e-19)
(0.81796 1.42109 -4.13601e-20)
(0.680477 1.24085 0)
(0.629429 1.20301 5.64806e-19)
(0.629965 1.27046 -5.39552e-19)
(0.622242 1.13943 -5.53062e-19)
(0.726357 1.19792 0)
(0.663355 1.25615 0)
(0.696176 2.59386 -7.52768e-20)
(0.705952 2.555 3.11102e-19)
(0.788155 2.60365 -2.12282e-19)
(0.590286 2.61161 -1.25782e-19)
(0.415715 2.73762 1.72225e-20)
(0.350648 2.70128 -1.74358e-19)
(0.956025 2.28921 -2.45662e-19)
(0.982294 2.33242 0)
(0.851238 2.06219 -2.89425e-19)
(1.03764 2.67288 0)
(1.01494 2.64985 0)
(0.626446 2.31522 2.88385e-19)
(1.02711 3.18811 4.93021e-19)
(0.906026 3.05649 -4.67613e-19)
(0.311399 0.968872 0)
(0.358165 0.842414 -1.40757e-19)
(0.497966 0.765765 -5.12527e-20)
(0.433654 2.06742 0)
(0.480632 2.8011 -2.81648e-19)
(0.448298 2.56324 0)
(0.637682 0.677979 -3.05434e-19)
(0.7044 0.680055 3.99492e-19)
(0.737264 0.621628 -3.85135e-19)
(0.602751 0.642423 -4.62393e-20)
(0.663371 0.596396 -1.91981e-19)
(0.987591 2.80074 -3.74495e-19)
(1.00834 2.8583 3.05663e-19)
(0.658409 2.23974 -3.30239e-20)
(0.581034 1.75091 -1.43157e-20)
(0.687511 1.98009 1.61864e-19)
(0.968138 2.50562 -4.67429e-20)
(0.970926 2.52438 -1.86221e-19)
(0.689905 1.9292 -7.90156e-21)
(0.432801 1.39699 -1.06224e-19)
)
;

boundaryField
{
    wall-4
    {
        type            noSlip;
    }
    velocity-inlet-5
    {
        type            fixedValue;
        value           uniform (1 0 0);
    }
    velocity-inlet-6
    {
        type            fixedValue;
        value           uniform (0 3 0);
    }
    pressure-outlet-7
    {
        type            zeroGradient;
    }
    wall-8
    {
        type            noSlip;
    }
    frontAndBackPlanes
    {
        type            empty;
    }
}


// ************************************************************************* //
