/*--------------------------------*- C++ -*----------------------------------*\
  =========                 |
  \\      /  F ield         | OpenFOAM: The Open Source CFD Toolbox
   \\    /   O peration     | Website:  https://openfoam.org
    \\  /    A nd           | Version:  9
     \\/     M anipulation  |
\*---------------------------------------------------------------------------*/
FoamFile
{
    format      ascii;
    class       volScalarField;
    location    "7";
    object      p;
}
// * * * * * * * * * * * * * * * * * * * * * * * * * * * * * * * * * * * * * //

dimensions      [0 2 -2 0 0 0 0];

internalField   nonuniform List<scalar> 
8800
(
0.4214
0.37353
0.335414
0.307158
0.28701
0.272751
0.262631
0.255574
0.251043
0.249071
0.249979
0.253603
0.2596
0.268243
0.280356
0.297344
0.321281
0.354532
0.396712
0.453733
0.253287
0.260662
0.26953
0.273498
0.272172
0.267296
0.26121
0.255597
0.251193
0.248411
0.247934
0.250089
0.254014
0.2593
0.265417
0.271271
0.274682
0.273553
0.266917
0.257582
0.22922
0.235789
0.240745
0.244832
0.248003
0.249527
0.249092
0.247463
0.245715
0.244801
0.245429
0.247239
0.249337
0.250714
0.250343
0.247992
0.244362
0.239867
0.23461
0.230747
0.224528
0.227449
0.231532
0.234984
0.237244
0.238748
0.239711
0.240131
0.240149
0.240186
0.240505
0.240967
0.241109
0.240642
0.23959
0.237852
0.235099
0.231168
0.227597
0.226273
0.224519
0.225554
0.22782
0.230308
0.232642
0.234537
0.235899
0.236688
0.237074
0.23731
0.237648
0.237877
0.237672
0.236862
0.235393
0.233397
0.231071
0.228628
0.226963
0.226593
0.223989
0.224341
0.225165
0.226181
0.227232
0.228361
0.229529
0.230516
0.231262
0.231801
0.232111
0.23207
0.231668
0.230913
0.229951
0.22904
0.228096
0.22717
0.226612
0.226476
0.221938
0.222123
0.222677
0.223455
0.224311
0.225205
0.22606
0.226877
0.227625
0.228264
0.228659
0.228738
0.2285
0.22806
0.227413
0.226711
0.226029
0.225409
0.225074
0.225013
0.219156
0.21923
0.219473
0.219868
0.220362
0.220971
0.221682
0.222458
0.223244
0.22398
0.224484
0.224652
0.224572
0.224321
0.223991
0.223652
0.22334
0.223081
0.222956
0.222929
0.215762
0.215813
0.21597
0.216236
0.216599
0.217068
0.217648
0.21834
0.219121
0.219943
0.220617
0.221005
0.221141
0.221119
0.221011
0.220864
0.220712
0.220584
0.220522
0.220505
0.211979
0.212014
0.212127
0.212326
0.212617
0.213025
0.21357
0.214271
0.215123
0.216095
0.21697
0.217555
0.217886
0.218045
0.218094
0.218088
0.218056
0.21802
0.218002
0.217992
0.207882
0.207909
0.208003
0.208175
0.208441
0.208832
0.209385
0.210134
0.211098
0.212267
0.213399
0.214238
0.214774
0.215111
0.215306
0.215411
0.215461
0.215482
0.215489
0.215482
0.203474
0.203499
0.203593
0.203765
0.204041
0.20446
0.205071
0.205928
0.207072
0.208511
0.209959
0.211069
0.211851
0.212362
0.212688
0.212887
0.213003
0.213065
0.21309
0.213085
0.198732
0.198754
0.198857
0.199048
0.199361
0.199845
0.200564
0.20159
0.202987
0.204781
0.206627
0.208092
0.209126
0.209829
0.210289
0.21058
0.210756
0.210854
0.210895
0.210891
0.193594
0.193619
0.19374
0.193967
0.194342
0.194928
0.195806
0.197069
0.198808
0.201063
0.203411
0.205289
0.206636
0.207561
0.208173
0.208564
0.208803
0.208939
0.208996
0.208991
0.187971
0.188002
0.188151
0.188432
0.188898
0.189628
0.190724
0.192308
0.194495
0.197344
0.200322
0.202716
0.20444
0.205628
0.206419
0.206926
0.207237
0.207414
0.207489
0.207484
0.181744
0.181782
0.181971
0.182327
0.182917
0.18384
0.185229
0.187235
0.190005
0.193614
0.197387
0.200421
0.202609
0.204119
0.205125
0.205771
0.206168
0.206394
0.206489
0.206484
0.174747
0.174796
0.175038
0.175496
0.176251
0.177433
0.179207
0.181764
0.185288
0.189866
0.19464
0.198473
0.201234
0.203141
0.20441
0.205226
0.205727
0.206013
0.206133
0.206126
0.166758
0.166822
0.167137
0.16773
0.168707
0.170231
0.172513
0.175791
0.180286
0.186098
0.192131
0.196959
0.200431
0.202825
0.204419
0.205444
0.206074
0.206433
0.206585
0.206575
0.157478
0.157564
0.157977
0.158754
0.160029
0.162012
0.164966
0.169186
0.174936
0.182319
0.189928
0.195991
0.20034
0.203338
0.205333
0.206616
0.207405
0.207854
0.208043
0.20803
0.1465
0.146618
0.147166
0.148195
0.149879
0.152484
0.156338
0.161798
0.169171
0.178541
0.188116
0.195702
0.201133
0.204875
0.207366
0.208968
0.209953
0.210513
0.210748
0.210732
0.133262
0.133426
0.134164
0.13555
0.137811
0.141277
0.146351
0.153459
0.16293
0.174806
0.186804
0.196254
0.203008
0.207664
0.210771
0.212772
0.214002
0.214699
0.214992
0.214972
0.116948
0.11718
0.118196
0.120117
0.123223
0.127916
0.134677
0.143992
0.156178
0.171183
0.186133
0.197832
0.206193
0.211975
0.215849
0.218353
0.219893
0.22076
0.221122
0.221099
0.0963252
0.0966568
0.0981157
0.100892
0.105294
0.111788
0.120936
0.133237
0.14892
0.16778
0.186258
0.200626
0.210915
0.218081
0.222927
0.226086
0.228037
0.22913
0.22958
0.229549
0.0694467
0.0699463
0.0721973
0.076442
0.082924
0.0921652
0.104763
0.121105
0.141233
0.164743
0.187339
0.2048
0.217366
0.226228
0.232324
0.236377
0.238928
0.240368
0.240954
0.240904
0.0329726
0.0338648
0.0378115
0.0448374
0.0548717
0.0684576
0.0860401
0.107738
0.133351
0.16229
0.18953
0.210462
0.225645
0.236554
0.24427
0.249591
0.253095
0.255158
0.256015
0.255936
-0.0197238
-0.0171093
-0.00874916
0.0040084
0.0203762
0.0407495
0.0652294
0.093681
0.125739
0.160733
0.192985
0.217643
0.235703
0.248979
0.258725
0.265814
0.270852
0.274115
0.275635
0.27555
-0.0996203
-0.0870899
-0.0679198
-0.044861
-0.0188855
0.0104908
0.0433377
0.0795264
0.118713
0.160298
0.198014
0.226837
0.248264
0.264485
0.276968
0.286722
0.294405
0.300238
0.303928
0.304694
-0.184012
-0.157969
-0.127224
-0.0938163
-0.0581258
-0.0197947
0.0213617
0.0653437
0.11196
0.160793
0.204946
0.238966
0.264703
0.284718
0.300691
0.313769
0.324697
0.33415
0.341764
0.34292
-0.24772
-0.218841
-0.180192
-0.13855
-0.0944938
-0.0480632
0.000794393
0.0520837
0.105701
0.161331
0.211364
0.249803
0.278858
0.301435
0.319373
0.333885
0.34578
0.355537
0.362226
0.363429
-0.297451
-0.266539
-0.223486
-0.176375
-0.126346
-0.0736063
-0.0183094
0.0393904
0.0992835
0.161
0.216131
0.258176
0.289631
0.313715
0.332509
0.347425
0.359454
0.369188
0.37594
0.377229
-0.336419
-0.304997
-0.25889
-0.207922
-0.153555
-0.0960409
-0.0356415
0.0274042
0.092802
0.160065
0.219889
0.265115
0.298533
0.323768
0.343169
0.358332
0.370362
0.379894
0.386482
0.387814
-0.368382
-0.336865
-0.288868
-0.235055
-0.177343
-0.116025
-0.0513946
0.0162361
0.0864982
0.158791
0.222946
0.271128
0.306369
0.332644
0.35257
0.36793
0.379966
0.389391
0.395841
0.397177
-0.395732
-0.364183
-0.314894
-0.259017
-0.198697
-0.134298
-0.066189
0.00532508
0.079898
0.156902
0.225335
0.276534
0.313669
0.341049
0.36156
0.377178
0.38927
0.398628
0.404958
0.406291
-0.42001
-0.388361
-0.338098
-0.28065
-0.218325
-0.151496
-0.0804974
-0.00562229
0.0728591
0.154396
0.227189
0.281628
0.320863
0.349508
0.370724
0.386677
0.398882
0.408225
0.414467
0.41579
-0.442172
-0.410353
-0.359308
-0.300587
-0.236652
-0.167859
-0.094504
-0.0167826
0.0652121
0.15114
0.228508
0.286542
0.32821
0.358375
0.380463
0.39687
0.409257
0.418609
0.42476
0.426057
-0.462912
-0.430787
-0.379055
-0.319304
-0.254085
-0.183723
-0.108464
-0.0283645
0.0567713
0.146977
0.229216
0.291322
0.335864
0.367878
0.391065
0.408062
0.420706
0.430081
0.436197
0.437537
-0.482342
-0.449938
-0.397609
-0.337047
-0.270801
-0.19923
-0.122499
-0.0404862
0.0473845
0.141749
0.229182
0.295938
0.343895
0.378175
0.40274
0.420506
0.433525
0.443066
0.448979
0.450411
-0.500767
-0.468007
-0.415155
-0.35396
-0.286908
-0.214445
-0.136655
-0.0532134
0.0369344
0.135267
0.228229
0.300271
0.352289
0.389338
0.415635
0.434384
0.447893
0.457609
0.463475
0.46488
-0.518233
-0.485147
-0.431819
-0.370061
-0.302443
-0.229383
-0.150941
-0.0665637
0.0253509
0.127363
0.226145
0.304157
0.360957
0.401374
0.429822
0.449828
0.463981
0.473941
0.479801
0.481129
-0.534746
-0.501402
-0.447648
-0.385369
-0.317369
-0.243996
-0.165301
-0.0805134
0.0125911
0.117894
0.222706
0.307389
0.369739
0.414198
0.445303
0.466894
0.481901
0.492217
0.49808
0.499261
-0.550342
-0.51664
-0.46255
-0.399897
-0.331658
-0.258223
-0.179648
-0.0949901
-0.00133779
0.106735
0.217692
0.309716
0.378405
0.427623
0.46197
0.485548
0.50168
0.51252
0.518436
0.519351
-0.565118
-0.530917
-0.476526
-0.4136
-0.345249
-0.271986
-0.193886
-0.109887
-0.0163966
0.0938054
0.210911
0.310896
0.386675
0.441357
0.479602
0.505675
0.523176
0.534645
0.540666
0.541299
-0.578842
-0.544464
-0.489566
-0.426436
-0.358096
-0.285191
-0.2079
-0.125071
-0.0324848
0.0790672
0.202202
0.310697
0.394197
0.455029
0.497767
0.526985
0.54627
0.558473
0.564457
0.564743
-0.591626
-0.556941
-0.501679
-0.438375
-0.370149
-0.297769
-0.221562
-0.140405
-0.0494812
0.0625133
0.191421
0.3089
0.400713
0.467942
0.515861
0.549123
0.570906
0.583865
0.589437
0.589164
-0.603564
-0.56841
-0.512862
-0.449415
-0.381372
-0.309646
-0.234765
-0.155726
-0.0672358
0.044196
0.178444
0.305442
0.405813
0.479476
0.532964
0.571305
0.59706
0.611059
0.614841
0.613493
-0.614541
-0.579005
-0.523103
-0.459546
-0.391747
-0.320766
-0.247402
-0.170876
-0.0855668
0.0242034
0.163233
0.300195
0.409487
0.488927
0.547478
0.591981
0.624261
0.642247
0.642551
0.636757
-0.624721
-0.588731
-0.532441
-0.468816
-0.40132
-0.331165
-0.259498
-0.185883
-0.104569
0.00228123
0.145354
0.29301
0.411695
0.495815
0.557788
0.60807
0.649008
0.678848
0.682635
0.663266
-0.634137
-0.597575
-0.54096
-0.477372
-0.410277
-0.341052
-0.271328
-0.201165
-0.124946
-0.0228335
0.12334
0.283094
0.412358
0.499907
0.561271
0.613343
0.658332
0.688371
0.684909
0.658859
-0.6427
-0.605465
-0.548551
-0.485129
-0.418461
-0.350211
-0.282674
-0.216362
-0.146272
-0.0509163
0.0969537
0.270339
0.412415
0.502437
0.553055
0.597136
0.63074
0.635259
0.570409
0.523725
-0.649986
-0.612267
-0.554931
-0.491584
-0.425448
-0.358345
-0.293327
-0.231285
-0.168372
-0.0823563
0.0654624
0.254272
0.412041
0.503476
0.534681
0.550266
0.563518
0.517192
0.435114
0.382015
-0.697188
-0.615651
-0.561017
-0.497559
-0.432208
-0.366273
-0.303285
-0.246013
-0.191331
-0.117556
0.0277632
0.233884
0.408452
0.503887
0.503547
0.481819
0.440977
0.363767
0.265743
0.212554
-0.635799
-0.62024
-0.567255
-0.505745
-0.440907
-0.376297
-0.317081
-0.266759
-0.227089
-0.176663
-0.0439851
0.196179
0.404691
0.490517
0.451715
0.297419
0.144003
0.0388935
-0.0618813
-0.00637535
-0.660422
-0.628545
-0.574179
-0.512443
-0.447632
-0.383866
-0.326428
-0.281561
-0.253746
-0.225951
-0.113987
0.143077
0.390003
0.461738
0.348433
0.110146
-0.095258
-0.241327
-0.386016
-0.288094
-0.674557
-0.638616
-0.582123
-0.519575
-0.454598
-0.391309
-0.335593
-0.295899
-0.280696
-0.277024
-0.188399
0.0779293
0.355044
0.419995
0.208608
-0.114935
-0.372131
-0.570368
-0.783255
-0.664835
-0.686818
-0.647959
-0.589697
-0.525981
-0.460578
-0.397628
-0.343723
-0.309305
-0.307598
-0.33755
-0.298121
-0.0249621
0.295571
0.317598
0.00941422
-0.374857
-0.704767
-0.988152
-1.30972
-1.23388
-0.696598
-0.6564
-0.596771
-0.531892
-0.46589
-0.40309
-0.350819
-0.321662
-0.334761
-0.407132
-0.450447
-0.195811
0.173297
0.134613
-0.229471
-0.651948
-1.05984
-1.4252
-1.90112
-2.19451
-0.704814
-0.663902
-0.603359
-0.537448
-0.470686
-0.407699
-0.356593
-0.332077
-0.360237
-0.482265
-0.652154
-0.461171
-0.0466889
-0.117814
-0.491504
-0.892188
-1.35689
-1.75034
-1.97393
-2.41146
-0.712262
-0.670813
-0.609522
-0.542606
-0.474917
-0.411404
-0.360894
-0.340349
-0.383774
-0.564462
-0.915487
-0.859851
-0.377657
-0.454964
-0.77214
-1.07912
-1.46434
-1.81084
-1.90378
-1.94903
-0.719324
-0.677291
-0.615235
-0.547253
-0.478424
-0.413969
-0.36333
-0.345662
-0.403556
-0.648978
-1.24456
-1.36922
-0.812795
-0.844249
-1.07223
-1.22173
-1.42042
-1.75739
-1.82698
-1.76861
-0.726305
-0.683491
-0.620493
-0.551281
-0.481023
-0.415084
-0.363377
-0.346687
-0.415908
-0.72948
-1.5849
-1.86362
-1.2885
-1.2417
-1.39157
-1.41287
-1.27041
-1.33929
-1.50322
-1.51448
-0.733511
-0.6896
-0.62538
-0.554683
-0.482628
-0.414549
-0.360554
-0.342197
-0.416512
-0.785093
-1.83162
-2.23974
-1.65845
-1.58357
-1.76259
-1.75733
-1.28987
-1.28849
-1.54147
-1.65237
-0.741017
-0.695747
-0.630024
-0.557545
-0.48325
-0.412319
-0.354576
-0.331345
-0.40116
-0.783482
-1.89824
-2.32802
-1.79536
-1.83758
-2.27491
-2.82688
-2.80997
-2.67219
-2.47313
-2.42568
-0.74892
-0.702141
-0.634608
-0.560017
-0.483037
-0.408493
-0.345535
-0.31373
-0.366789
-0.707125
-1.69259
-2.02243
-1.62005
-1.86464
-2.69649
-4.12291
-4.59904
-4.24495
-3.69514
-3.42515
-0.757543
-0.708987
-0.63938
-0.562354
-0.482245
-0.403409
-0.333743
-0.289951
-0.31502
-0.559301
-1.23516
-1.3758
-1.09773
-1.40737
-2.34208
-3.75491
-4.26067
-3.81476
-3.23839
-2.98064
-0.767102
-0.716665
-0.644672
-0.564886
-0.481259
-0.39754
-0.320181
-0.261867
-0.251112
-0.37071
-0.679106
-0.613662
-0.372218
-0.468324
-0.844738
-1.33834
-1.60965
-1.45184
-1.25836
-1.17714
-0.777927
-0.725446
-0.650797
-0.567976
-0.480576
-0.391621
-0.305857
-0.231568
-0.183526
-0.1868
-0.1979
-0.0028967
0.219292
0.29338
0.265607
0.236738
0.259914
0.31312
0.342236
0.349641
-0.789952
-0.735631
-0.658001
-0.571941
-0.480501
-0.386069
-0.291881
-0.202034
-0.12046
-0.0396381
0.103263
0.35039
0.553873
0.697546
0.797043
0.883597
0.957868
1.00229
1.01553
1.01167
-0.803092
-0.746796
-0.666224
-0.57669
-0.481244
-0.381524
-0.279316
-0.175465
-0.0675579
0.0644495
0.265119
0.511726
0.711153
0.869354
0.98998
1.0852
1.15789
1.20389
1.22522
1.22867
-0.816573
-0.758529
-0.674814
-0.581919
-0.482564
-0.377893
-0.268586
-0.1536
-0.027213
0.132885
0.347846
0.575983
0.761608
0.907919
1.02034
1.10683
1.17196
1.21708
1.24191
1.24704
-0.827587
-0.768495
-0.682579
-0.586402
-0.48354
-0.374697
-0.259781
-0.13686
0.001289
0.174089
0.385481
0.591359
0.7587
0.888651
0.988022
1.06399
1.12188
1.16427
1.18977
1.19521
-0.833466
-0.774427
-0.686894
-0.588284
-0.482676
-0.370759
-0.252098
-0.124149
0.0199907
0.196043
0.395981
0.579883
0.728891
0.844599
0.933395
1.0017
1.05441
1.09422
1.11742
1.12373
-0.831236
-0.772852
-0.684894
-0.584583
-0.477536
-0.364268
-0.243907
-0.113932
0.0316792
0.204078
0.390374
0.554955
0.687444
0.79115
0.871766
0.934564
0.983721
1.02134
1.04351
1.04999
-0.813843
-0.758085
-0.671874
-0.572058
-0.465486
-0.352731
-0.23311
-0.104536
0.038266
0.203512
0.374024
0.521277
0.639075
0.732333
0.805916
0.863962
0.909925
0.945114
0.966731
0.973614
-0.774846
-0.724188
-0.643212
-0.54599
-0.442716
-0.333948
-0.218382
-0.0944482
0.0416651
0.195549
0.34978
0.480325
0.584252
0.667354
0.733959
0.787336
0.830083
0.863208
0.884299
0.891559
-0.709424
-0.667204
-0.591231
-0.501574
-0.405904
-0.304781
-0.197362
-0.0823309
0.0430757
0.182261
0.318621
0.432128
0.521816
0.593686
0.65189
0.699408
0.737749
0.767884
0.788682
0.795788
-0.607919
-0.5777
-0.512593
-0.435232
-0.352231
-0.263727
-0.168937
-0.0668544
0.0440772
0.165663
0.282378
0.377406
0.451314
0.50956
0.556006
0.593781
0.624864
0.649249
0.665148
0.66983
-0.4565
-0.441526
-0.398955
-0.343154
-0.28057
-0.210896
-0.133647
-0.0481599
0.0465012
0.151135
0.251448
0.332123
0.39379
0.441175
0.477693
0.505594
0.526604
0.543153
0.555244
0.558521
-0.296539
-0.291435
-0.269937
-0.238368
-0.198681
-0.150233
-0.0927324
-0.0254668
0.0519068
0.139413
0.223927
0.291523
0.342463
0.380378
0.408047
0.427984
0.442328
0.451873
0.457082
0.458165
-0.167632
-0.16564
-0.156959
-0.141725
-0.119836
-0.0899021
-0.0503797
-0.000477928
0.0602251
0.13135
0.201098
0.256617
0.297658
0.327306
0.348356
0.362683
0.371689
0.376959
0.379575
0.379919
-0.0766784
-0.0770293
-0.0751149
-0.0689893
-0.0573178
-0.0390513
-0.0126689
0.0232721
0.069548
0.125904
0.182289
0.227226
0.260073
0.283227
0.298755
0.308691
0.314804
0.318167
0.319467
0.319506
-0.0196229
-0.0204707
-0.021275
-0.019643
-0.0138246
-0.00237658
0.0158424
0.0420235
0.0771236
0.121217
0.166055
0.201798
0.227596
0.245449
0.257365
0.264903
0.269174
0.27119
0.27183
0.271816
0.0139008
0.013353
0.0126762
0.013424
0.0167476
0.0239405
0.0364389
0.0555591
0.0821994
0.116507
0.151884
0.180161
0.200527
0.214518
0.223594
0.229091
0.232151
0.233602
0.234068
0.234063
0.0349313
0.0346632
0.0343437
0.0349761
0.0374142
0.0425845
0.0515492
0.0655355
0.0856066
0.112114
0.139831
0.162036
0.177906
0.188655
0.19558
0.199791
0.202117
0.203188
0.203531
0.203529
0.0486607
0.0485289
0.0483933
0.0489192
0.0507088
0.0545002
0.0611755
0.0717102
0.0869849
0.107415
0.128986
0.146315
0.158689
0.167066
0.172438
0.175662
0.177425
0.178234
0.178495
0.178494
0.0573237
0.0572731
0.0572752
0.0577772
0.0592064
0.0620896
0.0671041
0.0750589
0.0867189
0.102481
0.119247
0.132747
0.142373
0.14886
0.152999
0.155482
0.15684
0.157463
0.157666
0.157663
0.062417
0.0624025
0.0624673
0.0629167
0.0640642
0.0663049
0.0701544
0.076236
0.0851716
0.0973245
0.110318
0.120801
0.128272
0.1333
0.136506
0.138424
0.139468
0.139943
0.140095
0.140091
0.0648871
0.0648885
0.0649775
0.065368
0.0662887
0.0680361
0.0710051
0.0756808
0.0825562
0.0919373
0.102002
0.110132
0.115926
0.119821
0.122299
0.123778
0.12458
0.124944
0.125059
0.125053
0.0653964
0.065403
0.0654913
0.0658169
0.0665541
0.0679212
0.0702217
0.0738291
0.0791295
0.0863736
0.0941632
0.100462
0.104949
0.107963
0.109878
0.111018
0.111634
0.11191
0.111994
0.111989
0.064401
0.0644086
0.0644859
0.06475
0.0653325
0.0663997
0.0681842
0.0709723
0.0750656
0.0806638
0.0866891
0.0915641
0.0950351
0.0973632
0.0988401
0.0997174
0.100189
0.100398
0.100461
0.100455
0.0622407
0.0622475
0.062311
0.0625206
0.0629774
0.063808
0.0651912
0.0673483
0.0705105
0.0748353
0.0794944
0.0832632
0.0859457
0.087745
0.0888853
0.0895602
0.0899204
0.0900771
0.0901223
0.0901169
0.0591747
0.0591802
0.0592307
0.0593942
0.0597554
0.0603984
0.061469
0.0631355
0.0655775
0.0689185
0.0725174
0.0754301
0.077503
0.0788896
0.0797652
0.0802823
0.0805579
0.0806767
0.0807103
0.0807058
0.0554073
0.0554117
0.0554512
0.0555787
0.0558542
0.0563532
0.0571811
0.0584692
0.0603553
0.0629346
0.0657133
0.0679594
0.0695556
0.0706236
0.0712978
0.0716944
0.071904
0.0719931
0.0720172
0.0720132
0.0510953
0.0510985
0.0511287
0.0512269
0.0514386
0.0518236
0.0524619
0.0534545
0.0549078
0.0568943
0.0590345
0.0607645
0.0619927
0.0628136
0.0633316
0.0636361
0.0637961
0.0638634
0.0638812
0.0638774
0.0463623
0.0463645
0.046387
0.0464618
0.0466237
0.0469191
0.0474101
0.0481736
0.0492906
0.0508174
0.0524628
0.0537924
0.0547359
0.0553651
0.0557595
0.0559897
0.05611
0.05616
0.0561726
0.0561694
0.0413039
0.0413054
0.0413222
0.0413788
0.0415021
0.0417279
0.0421028
0.0426857
0.0435404
0.0447096
0.0459676
0.0469836
0.0477045
0.0481841
0.0484839
0.0486588
0.0487497
0.048787
0.0487962
0.0487935
0.0359952
0.035996
0.0360082
0.0360505
0.0361431
0.0363134
0.0365983
0.0370418
0.037691
0.0385788
0.0395339
0.0403037
0.0408478
0.0412087
0.041436
0.0415688
0.0416372
0.0416641
0.0416693
0.0416674
0.0304969
0.030497
0.0305054
0.0305364
0.0306052
0.0307321
0.0309443
0.0312759
0.0317628
0.032429
0.0331457
0.0337225
0.0341302
0.0344011
0.0345699
0.0346667
0.0347153
0.0347328
0.0347353
0.0347339
0.0248559
0.0248557
0.0248603
0.0248812
0.0249308
0.0250233
0.0251777
0.0254197
0.0257755
0.0262639
0.0267907
0.027216
0.0275163
0.027714
0.0278348
0.0279025
0.0279355
0.0279461
0.0279474
0.0279463
0.0191072
0.0191066
0.0191088
0.0191226
0.0191567
0.0192209
0.0193298
0.0195011
0.0197527
0.0200975
0.0204696
0.0207662
0.0209745
0.021111
0.0211943
0.0212415
0.0212646
0.0212723
0.0212728
0.0212713
0.0132798
0.013279
0.0132797
0.0132883
0.0133098
0.013351
0.0134215
0.0135319
0.0136952
0.0139182
0.0141617
0.0143531
0.0144885
0.0145772
0.0146312
0.0146597
0.0146714
0.0146727
0.0146707
0.0146699
0.00740021
0.00739964
0.00739894
0.00740219
0.00741222
0.00743332
0.00746985
0.00752832
0.00761449
0.00773344
0.00786263
0.00796805
0.00804061
0.00808806
0.00811581
0.00812947
0.00813305
0.00813021
0.00812628
0.00812614
0.00148407
0.00148331
0.00147833
0.00147525
0.00147546
0.00147824
0.00148429
0.00149475
0.00151024
0.0015324
0.00155952
0.00158544
0.00160376
0.00161537
0.00162268
0.00162715
0.00162911
0.00162915
0.00162749
0.00162545
-0.929516
-0.612046
-0.295067
-0.0452843
0.153473
0.314035
0.452964
0.573043
0.630112
0.608794
-0.395273
-0.200935
-0.00971301
0.152272
0.288943
0.404609
0.500161
0.568749
0.603664
0.610121
-0.0572941
0.0648397
0.187254
0.296379
0.391265
0.471425
0.534613
0.579404
0.608241
0.621107
0.164627
0.244769
0.329081
0.405795
0.4726
0.528488
0.572902
0.606501
0.631028
0.64571
0.3217
0.378177
0.439168
0.495072
0.543831
0.585328
0.619753
0.647192
0.667985
0.683303
0.444237
0.486266
0.532478
0.57543
0.614278
0.648263
0.677075
0.700561
0.718167
0.734113
0.546475
0.580595
0.620226
0.657121
0.690891
0.720944
0.746786
0.767699
0.782547
0.79907
0.641271
0.673766
0.711524
0.746601
0.778625
0.807013
0.831185
0.850183
0.862908
0.879874
0.74028
0.775975
0.814751
0.850271
0.881693
0.90897
0.931528
0.949031
0.960621
0.97821
0.858009
0.897584
0.937056
0.972452
1.00254
1.02785
1.04861
1.06456
1.07604
1.09435
1.00422
1.04452
1.08066
1.11163
1.13776
1.16021
1.1795
1.19523
1.20801
1.22618
1.18003
1.21254
1.23875
1.26133
1.28159
1.30058
1.31844
1.33514
1.35101
1.36928
1.36827
1.38609
1.40183
1.41857
1.43484
1.4495
1.46268
1.47678
1.49395
1.51361
1.55023
1.56121
1.57351
1.58446
1.59392
1.60354
1.61442
1.62606
1.63604
1.65121
1.76112
1.76312
1.74811
1.73319
1.72692
1.73259
1.75134
1.78177
1.81383
1.84453
2.06764
1.93071
1.85435
1.81192
1.7944
1.79856
1.82573
1.88194
1.98569
2.20106
0.317392
0.31412
0.308452
0.299038
0.28655
0.274692
0.264984
0.257591
0.252354
0.249269
0.248767
0.251024
0.255494
0.262
0.270684
0.281646
0.29419
0.305685
0.312783
0.317304
0.234698
0.24072
0.248323
0.254275
0.257872
0.258323
0.256147
0.25272
0.249413
0.247107
0.24672
0.248631
0.251831
0.255538
0.25866
0.259752
0.257755
0.252873
0.246195
0.23865
0.226355
0.228639
0.232871
0.236771
0.239633
0.241787
0.243069
0.243365
0.242906
0.242391
0.242446
0.243155
0.244068
0.244478
0.243889
0.242262
0.239837
0.236549
0.232294
0.228825
0.224112
0.224823
0.227577
0.231174
0.234111
0.236129
0.237473
0.238277
0.23863
0.238737
0.238956
0.239366
0.239567
0.239278
0.238385
0.236874
0.234518
0.231249
0.22785
0.226173
0.224599
0.224809
0.225704
0.227151
0.228682
0.230403
0.232013
0.233222
0.234019
0.234525
0.234895
0.235085
0.234928
0.234277
0.233109
0.231568
0.230035
0.228617
0.2274
0.226906
0.22303
0.223119
0.223599
0.22444
0.225323
0.226315
0.227197
0.228075
0.228876
0.229533
0.229999
0.230196
0.230051
0.229624
0.229032
0.22833
0.227519
0.226718
0.226062
0.225829
0.220649
0.220684
0.220918
0.2214
0.22201
0.222739
0.223546
0.224379
0.225192
0.225943
0.226535
0.22681
0.226755
0.226455
0.225998
0.225451
0.224946
0.224479
0.224163
0.224064
0.217513
0.217532
0.217647
0.217903
0.218263
0.218723
0.219288
0.219958
0.220707
0.221486
0.222186
0.222623
0.222768
0.222716
0.222559
0.222351
0.222131
0.221923
0.221783
0.22174
0.213914
0.213928
0.214011
0.214192
0.214465
0.214842
0.21534
0.215967
0.216722
0.217586
0.218447
0.219085
0.21943
0.219565
0.219574
0.219514
0.219429
0.219342
0.219283
0.219262
0.209966
0.209972
0.210037
0.210178
0.210403
0.210732
0.211196
0.211823
0.212631
0.213619
0.214685
0.215553
0.216115
0.216446
0.216627
0.216712
0.216742
0.216744
0.216739
0.216734
0.205719
0.205723
0.205783
0.205911
0.206125
0.206454
0.206937
0.207617
0.208535
0.209711
0.211042
0.212194
0.212994
0.213527
0.21386
0.21406
0.214175
0.214236
0.214264
0.214269
0.201147
0.201147
0.201209
0.201346
0.201577
0.201939
0.202485
0.203274
0.204365
0.205801
0.207475
0.208972
0.210055
0.210794
0.211283
0.211594
0.211784
0.211894
0.21195
0.211963
0.196218
0.196217
0.196285
0.196441
0.196709
0.197136
0.197787
0.19874
0.200078
0.201862
0.203977
0.205899
0.20731
0.208293
0.208954
0.209381
0.209648
0.209805
0.209886
0.209906
0.19085
0.190848
0.190931
0.19112
0.191447
0.191971
0.192774
0.193956
0.195626
0.197867
0.200542
0.202991
0.204802
0.206073
0.206933
0.207494
0.207846
0.208055
0.208163
0.208191
0.184942
0.184939
0.185043
0.18528
0.185691
0.186349
0.187359
0.188848
0.190955
0.193788
0.197175
0.200284
0.202587
0.204209
0.205308
0.206027
0.206479
0.206749
0.206888
0.206924
0.178354
0.17835
0.178483
0.178785
0.179309
0.180147
0.181433
0.183327
0.186003
0.189598
0.193889
0.197823
0.200736
0.202789
0.204181
0.205091
0.205665
0.206007
0.206184
0.206229
0.170895
0.17089
0.171062
0.171452
0.172127
0.173205
0.174855
0.177279
0.180695
0.185266
0.190702
0.19567
0.199342
0.201926
0.203677
0.204823
0.205545
0.205976
0.206199
0.206257
0.162306
0.1623
0.162526
0.163037
0.163914
0.165313
0.167445
0.170567
0.174942
0.180764
0.187647
0.193905
0.198516
0.201757
0.203953
0.20539
0.206295
0.206836
0.207115
0.207187
0.152237
0.152231
0.152533
0.153209
0.154365
0.156195
0.158973
0.163015
0.168641
0.176066
0.184769
0.19263
0.198404
0.202456
0.205199
0.206994
0.208126
0.208802
0.209151
0.20924
0.140201
0.140195
0.140607
0.14152
0.143062
0.145485
0.149138
0.154411
0.161675
0.171149
0.182129
0.191969
0.199167
0.204215
0.207635
0.209876
0.211291
0.21214
0.212578
0.212688
0.125508
0.125505
0.126088
0.127348
0.129438
0.132692
0.137558
0.144499
0.153919
0.166009
0.179813
0.192066
0.200999
0.207267
0.211522
0.21432
0.216096
0.217169
0.217726
0.217863
0.107161
0.107176
0.108037
0.109821
0.112714
0.117179
0.123774
0.13301
0.145277
0.160679
0.177937
0.193086
0.204106
0.211863
0.217158
0.220661
0.222902
0.224274
0.224997
0.225174
0.0836273
0.083696
0.0850429
0.0876659
0.0918231
0.098164
0.107311
0.11974
0.135744
0.155272
0.176661
0.195213
0.208694
0.21825
0.224845
0.229262
0.232122
0.233903
0.234866
0.235107
0.0523254
0.0525421
0.0548192
0.0589543
0.0653416
0.0747782
0.0877721
0.104633
0.125465
0.150009
0.176196
0.198619
0.214927
0.226618
0.234842
0.240478
0.244214
0.246588
0.247903
0.248249
0.00853196
0.0091698
0.0135817
0.0209559
0.0316373
0.0462715
0.0649956
0.0878677
0.114747
0.145175
0.176735
0.203405
0.222843
0.236993
0.247225
0.254511
0.259574
0.262963
0.264933
0.265422
-0.0560913
-0.0536651
-0.0433903
-0.0288376
-0.0100744
0.0127834
0.0395343
0.0700656
0.104088
0.141083
0.178395
0.209517
0.232262
0.249097
0.261656
0.271052
0.278041
0.283187
0.286475
0.287018
-0.134561
-0.129418
-0.110113
-0.0838427
-0.0545153
-0.0221828
0.0132662
0.0518535
0.0934345
0.137631
0.181631
0.21834
0.24556
0.266269
0.282352
0.295056
0.305263
0.313478
0.318121
0.320088
-0.213641
-0.201343
-0.17235
-0.136113
-0.0971873
-0.0558015
-0.0119383
0.0345086
0.0835016
0.134811
0.185505
0.227793
0.259321
0.283557
0.302684
0.318082
0.330617
0.340885
0.347961
0.351446
-0.270577
-0.257398
-0.223589
-0.180964
-0.135009
-0.0864347
-0.0353697
0.018107
0.0739057
0.131795
0.188549
0.235578
0.270425
0.296998
0.317697
0.334058
0.347091
0.35749
0.364661
0.368039
-0.315311
-0.301884
-0.264683
-0.217779
-0.166978
-0.113104
-0.0564297
0.00283716
0.0644852
0.1282
0.190385
0.241585
0.279138
0.307381
0.329051
0.345931
0.359199
0.369639
0.3769
0.380188
-0.350818
-0.337641
-0.298595
-0.24864
-0.194281
-0.136402
-0.075285
-0.0112042
0.0555309
0.124514
0.191705
0.246702
0.286642
0.316308
0.338761
0.356007
0.369392
0.379799
0.387069
0.390332
-0.380646
-0.367653
-0.327456
-0.275344
-0.218263
-0.157173
-0.0924162
-0.0243102
0.0468161
0.120511
0.192375
0.251047
0.293339
0.324415
0.347642
0.36527
0.378801
0.389223
0.396553
0.39979
-0.406611
-0.393732
-0.352691
-0.299
-0.239884
-0.176291
-0.108578
-0.0370844
0.037898
0.115961
0.19242
0.254881
0.299674
0.332292
0.356399
0.374477
0.388209
0.398683
0.40607
0.409276
-0.429953
-0.417108
-0.3754
-0.320467
-0.259735
-0.19416
-0.124056
-0.0497191
0.028649
0.110785
0.191839
0.25833
0.305921
0.34032
0.365478
0.384129
0.398132
0.408706
0.416151
0.419354
-0.451495
-0.438677
-0.396307
-0.340364
-0.278337
-0.211154
-0.139118
-0.0624368
0.0188566
0.10479
0.190516
0.261421
0.312227
0.348748
0.375201
0.39458
0.408951
0.419664
0.427156
0.430322
-0.471694
-0.458825
-0.415812
-0.359043
-0.296
-0.227555
-0.153991
-0.0754162
0.00836393
0.0978147
0.188318
0.264105
0.318649
0.357732
0.385787
0.406093
0.420951
0.43189
0.439436
0.442587
-0.490719
-0.477696
-0.434245
-0.376734
-0.312864
-0.243455
-0.16875
-0.0887426
-0.00293525
0.0896997
0.185058
0.266258
0.32517
0.367341
0.397388
0.418867
0.434362
0.445592
0.453227
0.45633
-0.508798
-0.495595
-0.451638
-0.393573
-0.329015
-0.258909
-0.183421
-0.102442
-0.0151152
0.0803139
0.180551
0.267703
0.331687
0.377574
0.410074
0.433035
0.449347
0.460976
0.468728
0.471823
-0.525902
-0.512542
-0.468087
-0.409562
-0.344482
-0.273905
-0.197981
-0.116489
-0.0281986
0.0695393
0.174594
0.268233
0.338037
0.388345
0.423851
0.448676
0.466033
0.478187
0.486105
0.489215
-0.542099
-0.528521
-0.483685
-0.424666
-0.359247
-0.288405
-0.21237
-0.130817
-0.0421515
0.0573083
0.167006
0.267618
0.344
0.399493
0.438644
0.465799
0.484481
0.497301
0.50545
0.508563
-0.557334
-0.543599
-0.498349
-0.438907
-0.373255
-0.302348
-0.226494
-0.145337
-0.0569027
0.0435817
0.157613
0.265619
0.349324
0.410768
0.454263
0.484259
0.504633
0.518319
0.526785
0.529835
-0.571681
-0.557703
-0.512074
-0.452273
-0.386465
-0.315666
-0.240261
-0.159923
-0.0723611
0.0283892
0.146277
0.26201
0.353731
0.421836
0.470304
0.503773
0.52632
0.541165
0.550055
0.552935
-0.584956
-0.570915
-0.524806
-0.464731
-0.39884
-0.328278
-0.253572
-0.174441
-0.0883878
0.0117821
0.132899
0.256605
0.357026
0.432241
0.486202
0.523907
0.549234
0.565471
0.574652
0.577281
-0.597377
-0.583147
-0.536578
-0.476267
-0.410364
-0.34015
-0.266323
-0.188767
-0.104825
-0.00613823
0.117436
0.249308
0.358911
0.441486
0.501199
0.54398
0.573317
0.591534
0.600408
0.6021
-0.608859
-0.59439
-0.547435
-0.486872
-0.421001
-0.351227
-0.278432
-0.202746
-0.121505
-0.0252548
0.0998679
0.23999
0.359329
0.449075
0.514455
0.562812
0.597831
0.619998
0.628175
0.626313
-0.619492
-0.604839
-0.557359
-0.496553
-0.430763
-0.361483
-0.289827
-0.216269
-0.138253
-0.0453743
0.0802161
0.228568
0.358165
0.455038
0.525026
0.578443
0.620441
0.650683
0.662543
0.651442
-0.629295
-0.614456
-0.566418
-0.505417
-0.439795
-0.371102
-0.30074
-0.229664
-0.155594
-0.0674006
0.0571797
0.214
0.355131
0.459414
0.531835
0.587751
0.635806
0.676626
0.696096
0.696315
-0.638318
-0.623208
-0.574588
-0.513479
-0.44812
-0.380089
-0.311124
-0.242852
-0.173429
-0.0914004
0.0302585
0.195634
0.350116
0.462268
0.532443
0.584554
0.630436