/*--------------------------------*- C++ -*----------------------------------*\
  =========                 |
  \\      /  F ield         | OpenFOAM: The Open Source CFD Toolbox
   \\    /   O peration     | Website:  https://openfoam.org
    \\  /    A nd           | Version:  9
     \\/     M anipulation  |
\*---------------------------------------------------------------------------*/
FoamFile
{
    format      ascii;
    class       surfaceScalarField;
    location    "7";
    object      phi;
}
// * * * * * * * * * * * * * * * * * * * * * * * * * * * * * * * * * * * * * //

dimensions      [0 3 -1 0 0 0 0];

internalField   nonuniform List<scalar> 
17370
(
-0.0910229
0.0934461
0.286588
-0.0747949
0.056696
0.364874
-0.0405269
0.0293474
0.427348
-0.020413
0.0147358
0.504929
-0.0105189
0.00793239
0.601989
-0.00593335
0.0046036
0.720387
-0.00351342
0.00274998
0.86367
-0.00206914
0.00155256
1.03597
-0.00106779
0.000682552
1.24289
-0.000298402
-4.11741e-05
1.49153
0.000385891
-0.000770864
1.49158
0.00115472
-0.00163998
1.24318
0.00216171
-0.00285544
1.03633
0.00362262
-0.00470744
0.863991
0.00602883
-0.00801567
0.721044
0.0105873
-0.0147856
0.603413
0.0204498
-0.0293754
0.508365
0.0405505
-0.0567155
0.432333
0.07481
-0.0934551
0.365421
0.0910297
0.197981
-0.127614
0.0887921
0.0388217
-0.364996
0.354402
-0.0717197
0.0823132
-0.446567
0.454317
-0.0802271
0.0724771
-0.521071
0.529238
-0.0646057
0.0564386
-0.612871
0.620992
-0.048926
0.0408051
-0.726768
0.733807
-0.0336642
0.0266251
-0.867358
0.872317
-0.0211353
0.0161757
-1.03845
1.04172
-0.0124523
0.00917686
-1.24468
1.24685
-0.00674197
0.00457339
-1.49281
1.49444
-0.00288813
0.00125882
-1.49256
1.49401
0.000195906
-0.00164466
-1.24409
1.24577
0.00327689
-0.00495385
-1.03753
1.03994
0.00709938
-0.00950934
-0.866036
0.869715
0.0127308
-0.0164098
-0.724296
0.729762
0.0213301
-0.0267958
-0.608786
0.615916
0.0338313
-0.0409612
-0.515128
0.522629
0.0490712
-0.0565721
-0.439779
0.447637
0.0647234
-0.0725806
-0.375213
0.37728
0.0803142
-0.0823808
-0.257231
0.224305
0.0717652
-0.0388393
-0.0698833
0.0608713
0.00901196
-0.0480821
0.0539766
-0.375416
0.369521
-0.0524711
0.0481977
-0.45393
0.458203
-0.0426989
0.0383591
-0.527557
0.531897
-0.0341713
0.0305302
-0.620811
0.624452
-0.0267963
0.0234729
-0.734486
0.737809
-0.0199333
0.0168071
-0.873549
0.876675
-0.013598
0.0108281
-1.04281
1.04558
-0.0079479
0.00536256
-1.24802
1.25061
-0.00245113
-0.000432953
-1.49627
1.49916
0.00329361
-0.00613885
-1.49671
1.49955
0.00866357
-0.0114787
-1.24944
1.25226
0.0141977
-0.0173621
-1.04513
1.0483
0.0204595
-0.0239558
-0.876855
0.880351
0.0272429
-0.0309266
-0.739018
0.742702
0.0345241
-0.0386667
-0.626092
0.630235
0.0429696
-0.0484378
-0.534893
0.540361
0.0526812
-0.0541532
-0.458536
0.460008
0.0482146
-0.0295425
-0.338023
0.31935
0.00903364
-0.0698272
0.0607935
-0.0560258
0.0533842
0.00264168
-0.0237284
0.0322657
-0.361241
0.352704
-0.036037
0.0364001
-0.459996
0.459633
-0.0346847
0.0325375
-0.535621
0.537768
-0.0300394
0.0279073
-0.627534
0.629666
-0.0253673
0.0228771
-0.740553
0.743043
-0.020048
0.0174073
-0.879347
0.881988
-0.0143942
0.0115992
-1.04827
1.05106
-0.00848047
0.00562937
-1.25333
1.25618
-0.0024589
-0.0004977
-1.50207
1.50503
0.00345672
-0.00661686
-1.50256
1.50572
0.00943073
-0.0124894
-1.25516
1.25822
0.0152225
-0.0181822
-1.0512
1.05416
0.0207734
-0.0235408
-0.883255
0.886022
0.0259663
-0.0284365
-0.745755
0.748226
0.0304901
-0.0329266
-0.634002
0.636438
0.0350246
-0.0366855
-0.544488
0.546149
0.036269
-0.0324333
-0.458469
0.454634
0.0238387
-0.0109747
-0.302687
0.289823
0.002662
-0.0559264
0.0532644
-0.0522802
0.0519935
0.000286717
-0.0077253
0.0136826
-0.345281
0.339323
-0.0190521
0.0223986
-0.457468
0.454121
-0.0247451
0.0258191
-0.538015
0.536941
-0.0262281
0.0258364
-0.630876
0.631267
-0.0248125
0.0233685
-0.745019
0.746463
-0.0212865
0.0189767
-0.884515
0.886825
-0.0161126
0.0132194
-1.05392
1.05681
-0.00982355
0.00656743
-1.25923
1.26249
-0.00281861
-0.000849401
-1.50832
1.51198
0.00448765
-0.00820036
-1.50916
1.51287
0.011391
-0.0146487
-1.26138
1.26464
0.0174005
-0.0201234
-1.05703
1.05975
0.0222985
-0.0242427
-0.888431
0.890375
0.0255872
-0.0265588
-0.749916
0.750887
0.0268874
-0.0263748
-0.63719
0.636678
0.0252297
-0.0228149
-0.545397
0.542982
0.0194114
-0.0139727
-0.449577
0.444138
0.00793504
-0.00243666
-0.281155
0.275657
0.000321902
-0.0521376
0.0518157
-0.0518666
0.0517151
0.000151537
-0.0036441
0.00754208
-0.334518
0.33062
-0.0124881
0.0166278
-0.450181
0.446042
-0.0202561
0.0224068
-0.535242
0.533091
-0.0235493
0.0237449
-0.631231
0.631035
-0.0232497
0.022294
-0.747574
0.748529
-0.0206682
0.018746
-0.888919
0.890841
-0.016184
0.0134952
-1.05966
1.06235
-0.0101943
0.00681602
-1.26585
1.26922
-0.00278129
-0.00121549
-1.51586
1.51985
0.0051953
-0.00909991
-1.51672
1.52063
0.0123427
-0.015544
-1.26793
1.27113
0.0181285
-0.0205377
-1.06233
1.06474
0.0223032
-0.0237322
-0.892005
0.893434
0.0244955
-0.0248255
-0.751376
0.751706
0.0245219
-0.0232727
-0.635776
0.634527
0.0210062
-0.0172503
-0.539701
0.535945
0.012989
-0.00789949
-0.438736
0.433647
0.00387232
-0.00114187
-0.27192
0.26919
0.000188478
-0.0516451
0.0514566
-0.0516306
0.0516321
-1.4901e-06
-0.00146372
0.00365827
-0.327598
0.325404
-0.00707391
0.0104287
-0.442117
0.438762
-0.0137259
0.0160862
-0.530665
0.528304
-0.017833
0.0187192
-0.630437
0.629551
-0.0189419
0.0185965
-0.749313
0.749658
-0.0176599
0.0163212
-0.892544
0.893883
-0.0143687
0.0121942
-1.06482
1.06699
-0.0093685
0.0062443
-1.27254
1.27566
-0.00233076
-0.00156005
-1.52388
1.52778
0.00538397
-0.00917305
-1.52456
1.52834
0.0121873
-0.0149229
-1.27414
1.27687
0.0170087
-0.0188122
-1.06692
1.06873
0.0200232
-0.0208159
-0.894685
0.895478
0.0209949
-0.0205032
-0.751695
0.751203
0.0193516
-0.0173397
-0.632685
0.630673
0.0147605
-0.0112417
-0.532092
0.528574
0.00770181
-0.00410577
-0.429185
0.425589
0.00176509
-0.000446155
-0.267251
0.265932
4.74687e-05
-0.051337
0.0512895
-0.0516572
0.0516744
-1.71176e-05
-0.000557579
0.00158577
-0.323881
0.322853
-0.00339611
0.00537024
-0.436115
0.434141
-0.00751336
0.00923643
-0.526221
0.524498
-0.0107265
0.0117009
-0.628557
0.627583
-0.0123114
0.0124534
-0.749688
0.749546
-0.0121388
0.0114281
-0.894859
0.89557
-0.0101877
0.00864049
-1.06884
1.07039
-0.00648355
0.00410306
-1.27845
1.28083
-0.00107293
-0.00199469
-1.53132
1.53439
0.0049844
-0.00784115
-1.53174
1.5346
0.0100649
-0.0121807
-1.27931
1.28142
0.013607
-0.0145538
-1.07008
1.07102
0.0149648
-0.0149653
-0.895805
0.895806
0.0145489
-0.013641
-0.75042
0.749512
0.0124066
-0.0106542
-0.628728
0.626976
0.00871041
-0.00634575
-0.52562
0.523256
0.00418334
-0.00217071
-0.422858
0.420845
0.000952647
-0.000278555
-0.265012
0.264338
4.82861e-05
-0.0512521
0.0512038
-0.0516874
0.0517064
-1.89511e-05
-0.000206919
0.000650021
-0.322173
0.32173
-0.00147937
0.00245209
-0.43273
0.431757
-0.00359942
0.00460356
-0.523148
0.522144
-0.00557295
0.00629279
-0.626708
0.625988
-0.00684086
0.00706211
-0.74933
0.749109
-0.00697239
0.00658346
-0.896092
0.896481
-0.00579964
0.00474512
-1.07167
1.07273
-0.00322602
0.00161278
-1.28281
1.28442
0.000431531
-0.00253112
-1.53695
1.53905
0.00457946
-0.00642753
-1.53691
1.53876
0.00779056
-0.00909005
-1.28316
1.28446
0.00987218
-0.0102468
-1.07165
1.07202
0.0102389
-0.009907
-0.895596
0.895264
0.00933111
-0.0084458
-0.74858
0.747695
0.00744055
-0.0061763
-0.625461
0.624197
0.00491951
-0.0035111
-0.521415
0.520007
0.00230994
-0.00123702
-0.419378
0.418306
0.000585212
-0.000197064
-0.263833
0.263444
4.21508e-05
-0.0511563
0.0511141
-0.0517328
0.0517668
-3.40635e-05
1.84868e-05
0.000152894
-0.321447
0.321276
-0.000497563
0.000918755
-0.431107
0.430686
-0.00143858
0.00191522
-0.521434
0.520957
-0.00240029
0.002777
-0.625444
0.625068
-0.00307426
0.00319039
-0.748929
0.748812
-0.00312245
0.00286641
-0.896784
0.89704
-0.00234689
0.00164021
-1.07359
1.07429
-0.0006183
-0.00046169
-1.28573
1.28681
0.00181329
-0.00318889
-1.54076
1.54213
0.00450865
-0.00565781
-1.54023
1.54138
0.00641971
-0.00694211
-1.28533
1.28585
0.00715636
-0.00719216
-1.07221
1.07224
0.00700768
-0.00659616
-0.894874
0.894462
0.00606531
-0.00535823
-0.746896
0.746189
0.00463224
-0.0037863
-0.623163
0.622317
0.00299941
-0.00216074
-0.518929
0.518091
0.00146675
-0.000844715
-0.417503
0.416881
0.000443932
-0.000173563
-0.26313
0.26286
4.47547e-05
-0.0510726
0.0510279
-0.0518094
0.0518632
-5.38065e-05
0.000197029
-0.000197856
-0.321201
0.321202
0.000110739
2.23497e-05
-0.430429
0.430296
-0.000194445
0.000352136
-0.52066
0.520503
-0.000507389
0.000616139
-0.624836
0.624727
-0.000675991
0.000648692
-0.748767
0.748795
-0.000509209
0.00026628
-0.897279
0.897522
0.000147677
-0.000667766
-1.07489
1.07541
0.00139062
-0.00214452
-1.28771
1.28846
0.00306752
-0.00396812
-1.54324
1.54414
0.00478736
-0.00545819
-1.54226
1.54293
0.00581388
-0.00586062
-1.2861
1.28615
0.00578305
-0.0056159
-1.07217
1.072
0.00534002
-0.00491444
-0.894044
0.893618
0.00444498
-0.0038748
-0.74556
0.74499
0.0033275
-0.00272153
-0.621612
0.621006
0.0021799
-0.00161727
-0.517417
0.516855
0.00115317
-0.000723195
-0.416377
0.415947
0.000420376
-0.000185553
-0.262614
0.262379
5.42968e-05
-0.0509786
0.0509243
-0.0519249
0.0519943
-6.94386e-05
0.000350994
-0.00045977
-0.321256
0.321365
0.000533692
-0.000579672
-0.430263
0.430309
0.000623135
-0.000669803
-0.520457
0.520504
0.000738145
-0.000824918
-0.624724
0.624811
0.000957733
-0.00112638
-0.748894
0.749063
0.0013747
-0.00166935
-0.897785
0.89808
0.00207655
-0.00252806
-1.07588
1.07633
0.00310612
-0.00368291
-1.28911
1.28969
0.00434697
-0.00494136
-1.54488
1.54547
0.00541943
-0.00574156
-1.54342
1.54374
0.00583645
-0.00570552
-1.28608
1.28595
0.0054437
-0.00512105
-1.07175
1.07143
0.00475726
-0.00429818
-0.893179
0.89272
0.00384511
-0.00333179
-0.744457
0.743944
0.00286242
-0.0023606
-0.620465
0.619964
0.00192269
-0.00147292
-0.516363
0.515913
0.0010981
-0.000735663
-0.415561
0.415199
0.000457522
-0.000216872
-0.262145
0.261905
6.76901e-05
-0.0508638
0.0507962
-0.0520739
0.052165
-9.11409e-05
0.000499893
-0.000708303
-0.321527
0.321736
0.000910379
-0.0010848
-0.430421
0.430596
0.00128128
-0.00147596
-0.520628
0.520823
0.00171173
-0.00195185
-0.624977
0.625217
0.00224671
-0.00255017
-0.749299
0.749602
0.00292456
-0.00330775
-0.898415
0.898798
0.00377402
-0.00423765
-1.07678
1.07725
0.00477678
-0.0052734
-1.29021
1.29071
0.00579008
-0.00618778
-1.54595
1.54635
0.00643491
-0.00649949
-1.54392
1.54399
0.00639349
-0.00610703
-1.28575
1.28546
0.005753
-0.00531121
-1.07104
1.0706
0.00486526
-0.00434965
-0.892236
0.89172
0.00386961
-0.00334786
-0.743433
0.742912
0.0028849
-0.00240037
-0.619479
0.618995
0.00198317
-0.0015564
-0.515484
0.515057
0.00119612
-0.000834715
-0.414843
0.414482
0.000539318
-0.000265276
-0.26165
0.261376
8.53934e-05
-0.0507201
0.0506348
-0.0522682
0.0523846
-0.000116385
0.000661849
-0.0009619
-0.321989
0.322289
0.00127866
-0.00156855
-0.430828
0.431118
0.00190143
-0.00222853
-0.521084
0.521411
0.00261623
-0.00299916
-0.625529
0.625912
0.0034514
-0.00389486
-0.749975
0.750418
0.00441315
-0.00491322
-0.899236
0.899736
0.00548375
-0.00601407
-1.07774
1.07827
0.00658592
-0.00707106
-1.2912
1.29168
0.00751972
-0.00779863
-1.54668
1.54696
0.00788667
-0.00776584
-1.54396
1.54383
0.00749504
-0.00706098
-1.2851
1.28467
0.00658991
-0.00602198
-1.0701
1.06953
0.00547718
-0.0048709
-0.891164
0.890558
0.00432291
-0.00374005
-0.742366
0.741783
0.00323116
-0.00270446
-0.618495
0.617969
0.00225403
-0.00179379
-0.514619
0.514159
0.0014018
-0.000999303
-0.414104
0.413702
0.000657925
-0.000329239
-0.261077
0.260749
0.000107435
-0.050539
0.0504316
-0.0525162
0.0526652
-0.000148978
0.000859717
-0.00126224
-0.322639
0.323041
0.00170026
-0.00210921
-0.431466
0.431875
0.00258201
-0.00304568
-0.521805
0.522269
0.00359157
-0.00412549
-0.626368
0.626902
0.00474783
-0.00534805
-0.750937
0.751537
0.00603523
-0.00668158
-0.900306
0.900952
0.00739667
-0.00803696
-1.07885
1.07949
0.00869576
-0.00922093
-1.29218
1.2927
0.00965895
-0.00986947
-1.5472
1.54741
0.00983917
-0.00956126
-1.54363
1.54336
0.00913822
-0.0085414
-1.28415
1.28356
0.00792327
-0.00720182
-1.06889
1.06817
0.00652654
-0.00578981
-0.889892
0.889155
0.00513357
-0.00444335
-0.741152
0.740462
0.00384516
-0.00322942
-0.617403
0.616787
0.00270439
-0.00216821
-0.513666
0.513129
0.00170914
-0.00123164
-0.413266
0.412789
0.000818467
-0.000413004
-0.260385
0.259979
0.000135606
-0.0503109
0.0501753
-0.0528342
0.0530259
-0.000191684
0.0011121
-0.00163902
-0.323502
0.324029
0.00221886
-0.00276424
-0.432349
0.432895
0.00339632
-0.00401574
-0.522807
0.523426
0.004743
-0.00545158
-0.627519
0.628228
0.00627314
-0.0070598
-0.752226
0.753013
0.00795189
-0.00878101
-0.901684
0.902513
0.00968406
-0.0104768
-1.0802
1.08099
0.0112702
-0.0118779
-1.29327
1.29387
0.0123473
-0.0125197
-1.5476
1.54777
0.0123885
-0.0119532
-1.543
1.54256
0.0113645
-0.0105761
-1.28287
1.28208
0.00977903
-0.00886322
-1.06736
1.06644
0.0080171
-0.00710269
-0.888336
0.887421
0.00629417
-0.00544853
-0.7397
0.738854
0.00471878
-0.00396986
-0.61611
0.615361
0.00333249
-0.00268162
-0.512541
0.51189
0.00212261
-0.00153711
-0.412261
0.411676
0.00102553
-0.000519157
-0.259526
0.25902
0.000170812
-0.0500231
0.0498522
-0.0532439
0.0534914
-0.000247494
0.0014377
-0.00212139
-0.32463
0.325313
0.002877
-0.00358973
-0.433519
0.434231
0.00441625
-0.00522556
-0.524135
0.524945
0.00617392
-0.00709569
-0.629037
0.629959
0.00816106
-0.00917706
-0.753908
0.754924
0.0103234
-0.0113816
-0.903451
0.904509
0.0125244
-0.0135158
-1.08188
1.08287
0.0144918
-0.0152198
-1.29454
1.29527
0.0157522
-0.0159021
-1.54793
1.54808
0.0156679
-0.0150566
-1.54204
1.54143
0.014271
-0.0132471
-1.28118
1.28016
0.0122256
-0.0110628
-1.06541
1.06425
0.00999644
-0.00884982
-0.886398
0.885252
0.00783999
-0.00678638
-0.737912
0.736858
0.00587898
-0.00494889
-0.614528
0.613598
0.0041581
-0.00335067
-0.511166
0.510359
0.00265647
-0.00192729
-0.411023
0.410294
0.00128762
-0.000652318
-0.258453
0.257818
0.000214612
-0.0496608
0.0494462
-0.0537745
0.0540957
-0.000321161
0.00186309
-0.00274879
-0.326091
0.326976
0.00372895
-0.00465415
-0.435041
0.435967
0.00572652
-0.00677487
-0.525865
0.526914
0.00800089
-0.00919008
-0.631007
0.632197
0.0105611
-0.0118651
-0.756076
0.75738
0.0133309
-0.0146779
-0.905703
0.90705
0.0161231
-0.0173664
-1.08398
1.08522
0.0185754
-0.0194596
-1.29607
1.29695
0.0200787
-0.020209
-1.54822
1.54835
0.0198544
-0.0190292
-1.54072
1.5399
0.0180006
-0.0166806
-1.27899
1.27767
0.0153754
-0.0138988
-1.06293
1.06146
0.01255
-0.0111047
-0.883965
0.882519
0.00983481
-0.00851247
-0.735678
0.734356
0.00737519
-0.00621064
-0.612558
0.611394
0.00522084
-0.00421009
-0.509457
0.508446
0.00334029
-0.00242508
-0.409478
0.408563
0.0016206
-0.000820685
-0.257105
0.256305
0.000269736
-0.0492056
0.0489359
-0.0544655
0.0548853
-0.000419813
0.00242714
-0.00357827
-0.327982
0.329133
0.00485227
-0.00605362
-0.437013
0.438214
0.00744288
-0.00879631
-0.528104
0.529457
0.0103748
-0.0119029
-0.633549
0.635077
0.0136609
-0.0153291
-0.758859
0.760527
0.0171984
-0.0189088
-0.908569
0.910279
0.0207331
-0.0222901
-1.08661
1.08817
0.0237867
-0.0248613
-1.29793
1.299
0.0255821
-0.0256812
-1.54847
1.54857
0.02517
-0.0240724
-1.53894
1.53785
0.022736
-0.0210407
-1.27618
1.27448
0.0193767
-0.017503
-1.05979
1.05792
0.0157976
-0.0139744
-0.880895
0.879072
0.012375
-0.0107112
-0.732872
0.731208
0.00928087
-0.00781635
-0.610088
0.608624
0.00657131
-0.00529934
-0.507314
0.506042
0.00420406
-0.00305109
-0.407538
0.406385
0.00203765
-0.00103066
-0.255408
0.254401
0.00033817
-0.0486343
0.0482961
-0.0553722
0.0559284
-0.000556196
0.00319155
-0.00469952
-0.330434
0.331942
0.0063667
-0.00793152
-0.439563
0.441128
0.00972991
-0.0114721
-0.530999
0.532741
0.0134965
-0.0154534
-0.636824
0.638781
0.0177018
-0.0198324
-0.762421
0.764552
0.0222129
-0.0243811
-0.912204
0.914372
0.026678
-0.0286201
-1.08991
1.09185
0.0304622
-0.0317565
-1.30018
1.30147
0.032581
-0.0326192
-1.54864
1.54868
0.0318946
-0.0304432
-1.53658
1.53513
0.0287141
-0.0265442
-1.27256
1.27039
0.0244272
-0.0220532
-1.05581
1.05343
0.0198987
-0.0175998
-0.87702
0.874721
0.0155864
-0.0134935
-0.729337
0.727245
0.0116948
-0.00985201
-0.606981
0.605139
0.00828356
-0.00667873
-0.504621
0.503016
0.00529523
-0.00383884
-0.405095
0.403639
0.00256077
-0.00129344
-0.253273
0.252006
0.000423894
-0.0479191
0.0474952
-0.0565725
0.0573276
-0.000755067
0.00426735
-0.00626681
-0.333629
0.335628
0.00846259
-0.0104964
-0.442877
0.444911
0.0128063
-0.0150293
-0.534757
0.53698
0.0176077
-0.020106
-0.64105
0.643548
0.0229822
-0.0257078
-0.766976
0.769701
0.0287426
-0.0314892
-0.916797
0.919544
0.034371
-0.0367771
-1.094
1.0964
0.0390195
-0.0405518
-1.30288
1.30441
0.0414615
-0.0413843
-1.54867
1.54859
0.0403621
-0.0384481
-1.53346
1.53155
0.0362185
-0.0334513
-1.26794
1.26517
0.0307698
-0.0277736
-1.05076
1.04776
0.0250622
-0.0221745
-0.872128
0.869241
0.0196488
-0.0170254
-0.724883
0.72226
0.0147701
-0.0124563
-0.603069
0.600756
0.0104812
-0.00845255
-0.501232
0.499204
0.00669781
-0.00484893
-0.402023
0.400174
0.00323076
-0.00163093
-0.25059
0.248991
0.00053526
-0.047027
0.0464917
-0.0581835
0.0592396
-0.00105613
0.00583268
-0.00851123
-0.337824
0.340503
0.0113959
-0.0140038
-0.447222
0.44983
0.016923
-0.0197293
-0.539668
0.542474
0.0230048
-0.0262068
-0.646508
0.64971
0.0299124
-0.0334208
-0.772782
0.77629
0.0373007
-0.0407734
-0.922563
0.926036
0.044365
-0.0473091
-1.09901
1.10195
0.0499879
-0.0517487
-1.30602
1.30778
0.0526874
-0.0524032
-1.5484
1.54812
0.0509657
-0.0484504
-1.52934
1.52683
0.0455897
-0.0420827
-1.26204
1.25854
0.0387057
-0.0349473
-1.04439
1.04063
0.0315551
-0.0279499
-0.86597
0.862365
0.0248024
-0.0215369
-0.719275
0.71601
0.0187292
-0.0158435
-0.598143
0.595257
0.0133676
-0.0108046
-0.496969
0.494406
0.00856788
-0.00619698
-0.398161
0.39579
0.00412507
-0.00208362
-0.247222
0.24518
0.00068791
-0.0459163
0.0452284
-0.060397
0.0619186
-0.00152163
0.00818275
-0.0117953
-0.343413
0.347026
0.0155552
-0.0188597
-0.452983
0.456288
0.0225203
-0.0260806
-0.546111
0.549671
0.0303059
-0.0344785
-0.65355
0.657722
0.0393105
-0.043841
-0.780151
0.784681
0.0487731
-0.0531034
-0.929729
0.93406
0.0574859
-0.0609876
-1.10503
1.10854
0.0640672
-0.0659788
-1.30954
1.31145
0.0668156
-0.0661718
-1.54762
1.54698
0.0641541
-0.0608645
-1.52392
1.52063
0.0572235
-0.0528186
-1.25458
1.25017
0.0486064
-0.043934
-1.03639
1.03172
0.0397251
-0.0352585
-0.858254
0.853787
0.0313657
-0.0273344
-0.712232
0.708201
0.0238721
-0.020312
-0.591938
0.588378
0.0172414
-0.0140275
-0.491596
0.488382
0.0111742
-0.0080974
-0.393308
0.390231
0.00539134
-0.00272484
-0.242997
0.24033
0.000906787
-0.0445349
0.0436281
-0.0635431
0.0658399
-0.00229679
0.0119817
-0.016921
-0.350992
0.355931
0.0218306
-0.0260637
-0.460694
0.464927
0.0307433
-0.0353911
-0.55458
0.559228
0.0409894
-0.0464998
-0.662619
0.66813
0.0527782
-0.0585175
-0.78945
0.795189
0.0646006
-0.0697927
-0.938492
0.943684
0.0748955
-0.0788339
-1.11205
1.11599
0.0821282
-0.0839856
-1.31322
1.31507
0.0844655
-0.0832164
-1.54596
1.54472
0.0803893
-0.076112
-1.51681
1.51253
0.0715233
-0.0660552
-1.24521
1.23974
0.0608678
-0.0551339
-1.02646
1.02073
0.0499714
-0.0444913
-0.848667
0.843187
0.0397146
-0.0347718
-0.703436
0.698493
0.0305324
-0.0261799
-0.584134
0.579781
0.0224146
-0.0184356
-0.484802
0.480823
0.014825
-0.0108204
-0.387179
0.383174
0.0072284
-0.00364887
-0.23768
0.234101
0.00121363
-0.0428005
0.0415869
-0.0682143
0.0720228
-0.00380844
0.0188596
-0.0257473
-0.361563
0.36845
0.0321854
-0.0376618
-0.471214
0.476691
0.0438213
-0.0500357
-0.565761
0.571975
0.0574773
-0.0646027
-0.674267
0.681392
0.0724382
-0.0793394
-0.800982
0.807883
0.0864132
-0.0922512
-0.948823
0.954661
0.0977788
-0.101843
-1.11975
1.12381
0.104981
-0.10643
-1.31657
1.31802
0.10617
-0.103977
-1.5429
1.54071
0.10005
-0.0945406
-1.50759
1.50208
0.0888296
-0.0821448
-1.23363
1.22694
0.0758653
-0.068953
-1.01433
1.00741
0.0627303
-0.0561078
-0.836929
0.830307
0.0503144
-0.0442994
-0.692578
0.686563
0.039128
-0.0338091
-0.574384
0.569065
0.0291943
-0.0242951
-0.476189
0.47129
0.0197576
-0.0145797
-0.379326
0.374148
0.00980145
-0.00493831
-0.230861
0.225998
0.00161588
-0.040562
0.0389461
-0.0756232
0.082912
-0.00728881
0.0329266
-0.0429141
-0.377133
0.387121
0.0511839
-0.0581874
-0.485807
0.49281
0.0663195
-0.0744524
-0.580416
0.588549
0.083798
-0.0922831
-0.688854
0.697339
0.101188
-0.108721
-0.814583
0.822115
0.116161
-0.122052
-0.960149
0.966039
0.127354
-0.130944
-1.12735
1.13094
0.13331
-0.133804
-1.31879
1.31928
0.132285
-0.128726
-1.5377
1.53414
0.123374
-0.116401
-1.49575
1.48878
0.109419
-0.101426
-1.21955
1.21156
0.0940032
-0.0858893
-0.999808
0.991694
0.0785973
-0.0708267
-0.822879
0.815108
0.0639988
-0.0568689
-0.679449
0.672319
0.0506917
-0.0442989
-0.562397
0.556005
0.038742
-0.0328175
-0.465309
0.459384
0.0271603
-0.0203169
-0.369037
0.362194
0.0136288
-0.00669621
-0.221689
0.214756
0.00208175
-0.0376007
0.0355189
-0.0902117
0.0929771
-0.00276534
0.0200838
-0.0289383
-0.400494
0.409348
0.0372006
-0.0449509
-0.505373
0.513123
0.0543322
-0.0641279
-0.59833
0.608126
0.0748336
-0.0843515
-0.70549
0.715008
0.094926
-0.104271
-0.828926
0.838271
0.113971
-0.122281
-0.971032
0.979342
0.130537
-0.137162
-1.13349
1.14012
0.143077
-0.146984
-1.31866
1.32257
0.149137
-0.148677
-1.52944
1.52898
0.145462
-0.139865
-1.48082
1.47522
0.133187
-0.124615
-1.20281
1.19424
0.116152
-0.105895
-0.982914
0.972657
0.0963795
-0.085793
-0.806606
0.79602
0.0762161
-0.0659336
-0.664134
0.653851
0.0565722
-0.0469421
-0.548142
0.538512
0.0387277
-0.0296944
-0.451897
0.442864
0.0214784
-0.0128665
-0.355404
0.346792
0.00623121
-0.00163902
-0.208349
0.203757
-0.000152202
-0.0334352
0.0335874
-0.100249
0.0955546
0.00469417
-0.00375765
-0.001369
-0.421453
0.426579
0.00869149
-0.0157805
-0.524565
0.531654
0.0246379
-0.0330173
-0.617973
0.626353
0.0425072
-0.0511558
-0.724465
0.733113
0.0603803
-0.0687369
-0.84712
0.855476
0.0774232
-0.084605
-0.987361
0.994543
0.091976
-0.0975966
-1.14664
1.15226
0.102622
-0.105717
-1.32635
1.32944
0.106921
-0.105859
-1.52797
1.5269
0.102261
-0.0965341
-1.46914
1.46341
0.0897977
-0.0814636
-1.18551
1.17718
0.0734294
-0.0642132
-0.962515
0.953298
0.0555581
-0.0459192
-0.785186
0.775547
0.037271
-0.0283708
-0.642422
0.633521
0.0207739
-0.0129907
-0.52694
0.519156
0.00638706
-2.59165e-05
-0.431265
0.424903
-0.00479056
0.00822338
-0.336189
0.332756
-0.0086524
0.0061301
-0.196586
0.199108
-0.00276799
-0.0319619
0.0347299
-0.0974305
0.0930715
0.00435899
-0.0102045
0.0081178
-0.435674
0.437761
-0.00335189
-0.00230678
-0.540841
0.5465
0.00934733
-0.0163034
-0.634834
0.64179
0.0241492
-0.0313359
-0.741221
0.748407
0.0392166
-0.046232
-0.863133
0.870149
0.0533405
-0.0595867
-1.00153
1.00777
0.0658539
-0.0707741
-1.1575
1.16242
0.0748363
-0.0772334
-1.33206
1.33445
0.0782236
-0.0770966
-1.52552
1.52439
0.0737528
-0.0686539
-1.45765
1.45255
0.0628398
-0.0559513
-1.16938
1.16249
0.0491174
-0.0416469
-0.944528
0.937058
0.034797
-0.0273382
-0.766932
0.759473
0.0209921
-0.0145113
-0.624914
0.618433
0.00923094
-0.00386515
-0.510493
0.505127
-0.000208332
0.00375694
-0.416648
0.4131
-0.00621001
0.00731882
-0.326157
0.325048
-0.00624788
0.00372668
-0.195407
0.197928
-0.00161626
-0.0343442
0.0359604
-0.0937588
0.0898936
0.00386515
-0.0116015
0.0112332
-0.444635
0.445004
-0.00812627
0.00362206
-0.553367
0.557871
0.00225223
-0.00779104
-0.648399
0.653938
0.0141977
-0.0200966
-0.755277
0.761176
0.0265393
-0.032305
-0.87667
0.882436
0.0385264
-0.0436527
-1.01359
1.01872
0.0490207
-0.0528649
-1.16701
1.17085
0.0563898
-0.0584942
-1.33681
1.33892
0.0592786
-0.0580811
-1.5232
1.522
0.0553589
-0.0512286
-1.44749
1.44336
0.046479
-0.0406258
-1.15604
1.15019
0.0351836
-0.0293602
-0.930053
0.92423
0.0239414
-0.0184174
-0.752791
0.747267
0.0134339
-0.00859923
-0.612
0.607165
0.00467906
-0.00106276
-0.499151
0.495535
-0.00153503
0.00375448
-0.407185
0.404966
-0.00522097
0.00548171
-0.320061
0.3198
-0.00464237
0.00281438
-0.19471
0.196538
-0.00123604
-0.035017
0.0362531
-0.0906951
0.0877323
0.00296277
-0.0104531
0.0111401
-0.450426
0.449739
-0.0087467
0.00531867
-0.563507
0.566935
-0.000785219
-0.00391404
-0.659391
0.66409
0.00897579
-0.0138922
-0.766611
0.771527
0.0191661
-0.0239189
-0.887777
0.89253
0.0290131
-0.0334163
-1.0237
1.0281
0.0378339
-0.0413446
-1.17461
1.17812
0.0444044
-0.0462744
-1.34083
1.3427
0.047062
-0.0461285
-1.52096
1.52002
0.0439383
-0.0404046
-1.43908
1.43554
0.0364973
-0.0318263
-1.14483
1.14016
0.0274101
-0.0225877
-0.918671
0.913849
0.0183109
-0.0138563
-0.741994
0.737539
0.0100291
-0.00621647
-0.602427
0.598615
0.00321478
-0.000470702
-0.491053
0.488309
-0.00164336
0.00329864
-0.400636
0.398981
-0.0041207
0.00440062
-0.315734
0.315454
-0.00379669
0.00217053
-0.193201
0.194828
-0.000995924
-0.0351881
0.0361841
-0.0886891
0.0863801
0.00230899
-0.00872841
0.00947913
-0.454272
0.453521
-0.00815989
0.00538496
-0.571025
0.573799
-0.00139724
-0.00231697
-0.668233
0.671947
0.00638766
-0.010418
-0.775842
0.779872
0.0148602
-0.0189046
-0.896953
0.900998
0.0233843
-0.0270945
-1.03223
1.03594
0.0309731
-0.0340974
-1.18142
1.18454
0.0368115
-0.038512
-1.34444
1.34614
0.0392944
-0.0389251
-1.51925
1.51888
0.037112
-0.0343083
-1.43196
1.42915
0.031012
-0.0270509
-1.13569
1.13173
0.0235227
-0.0193285
-0.909269
0.905075
0.0156683
-0.0119962
-0.73329
0.729618
0.00877599
-0.00555461
-0.594925
0.591704
0.00296349
-0.000424432
-0.484768
0.482229
-0.00121078
0.00258666
-0.395431
0.394055
-0.00351289
0.0037365
-0.3119
0.311677
-0.00316268
0.00186564
-0.191676
0.192973
-0.000826651
-0.0350843
0.035911
-0.0875011
0.0857773
0.00172382
-0.00689691
0.0077068
-0.457161
0.456351
-0.00654276
0.00449929
-0.577323
0.579366
-0.00114045
-0.00197322
-0.675408
0.678522
0.00564023
-0.00887998
-0.783627
0.786867
0.0125503
-0.0159404
-0.905006
0.908396
0.0200375
-0.0232708
-1.03966
1.0429
0.0265904
-0.0294974
-1.18751
1.19042
0.032362
-0.033981
-1.34796
1.34958
0.0349603
-0.0347572
-1.51832
1.51811
0.0336082
-0.0310612
-1.42641
1.42386
0.0283884
-0.0250975
-1.12788
1.12458
0.0219145
-0.0183936
-0.901139
0.897618
0.0151134
-0.0116738
-0.72587
0.72243
0.00900134
-0.00600796
-0.588401
0.585407
0.00352477
-0.00132
-0.479168
0.476963
-0.000354315
0.00182542
-0.391041
0.38957
-0.00262059
0.00290031
-0.30865
0.30837
-0.00249769
0.00149148
-0.190126
0.191132
-0.000680244
-0.0348266
0.0355069
-0.0869969
0.0856352
0.00136175
-0.00539962
0.00618029
-0.459505
0.458724
-0.00506045
0.00318761
-0.582473
0.584346
-0.000341727
-0.00223513
-0.681453
0.68403
0.00514088
-0.00813466
-0.790135
0.793128
0.0113422
-0.0147559
-0.91159
0.915004
0.0180568
-0.0210178
-1.04618
1.04914
0.024364
-0.0269817
-1.19321
1.19582
0.0293682
-0.0313956
-1.35117
1.3532
0.0326191
-0.0328052
-1.51811
1.5183
0.0319543
-0.0300947
-1.42168
1.41982
0.0278259
-0.024899
-1.12115
1.11822
0.0220917
-0.0188472
-0.894099
0.890854
0.0158225
-0.0127511
-0.719112
0.71604
0.00994228
-0.00715321
-0.582304
0.579515
0.00485751
-0.00251553
-0.474198
0.471856
0.000724169
0.000575462
-0.386733
0.385434
-0.00149432
0.00201335
-0.305502
0.304983
-0.00189462
0.00113567
-0.188493
0.189252
-0.00054352
-0.0344656
0.0350091
-0.0870229
0.0858014
0.0012216
-0.00406998
0.0045413
-0.4617
0.461229
-0.00362411
0.00185326
-0.58693
0.588701
0.000528281
-0.00290278
-0.686737
0.689111
0.00556758
-0.0081061
-0.79599
0.798528
0.0113208
-0.0138965
-0.917855
0.920431
0.0170491
-0.0197268
-1.05219
1.05487
0.0228482
-0.0255616
-1.19839
1.2011
0.0281541
-0.0299537
-1.35503
1.35683
0.0315261
-0.0321637
-1.51854
1.51918
0.0320021
-0.0305024
-1.41799
1.41649
0.0286538
-0.0260544
-1.11548
1.11288
0.0235019
-0.0203886
-0.887471
0.884358
0.0175787
-0.0144709
-0.712785
0.709677
0.0117057
-0.00885632
-0.576551
0.573701
0.00640392
-0.00418277
-0.469137
0.466916
0.00222367
-0.000711536
-0.382532
0.38102
-0.000459172
0.00113618
-0.302236
0.301559
-0.00120447
0.000840937
-0.186589
0.186952
-0.000383678
-0.0339528
0.0343365
-0.0872045
0.0862361
0.000968356
-0.00307079
0.00307603
-0.464055
0.46405
-0.00235251
0.00064034
-0.590584
0.592296
0.00132527
-0.00352199
-0.69138
0.693577
0.00596025
-0.00854154
-0.800981
0.803562
0.0110879
-0.0137052
-0.923165
0.925782
0.0166907
-0.0190472
-1.05788
1.06024
0.0221129
-0.0246651
-1.20357
1.20613
0.0272126
-0.0294688
-1.35903
1.36128
0.0315037
-0.0324786
-1.51997
1.52094
0.0326431
-0.0318947
-1.41529
1.41454
0.0305741
-0.0282644
-1.11025
1.10794
0.0258347
-0.0230349
-0.881209
0.878409
0.0199423
-0.0169717
-0.706348
0.703377
0.0141667
-0.0111452
-0.570864
0.567842
0.00871483
-0.00620856
-0.463977
0.461471
0.00415333
-0.00221352
-0.378362
0.376422
0.000899787
6.73057e-05
-0.298814
0.297847
-0.000549041
0.000524438
-0.184417
0.184441
-0.000288815
-0.0332011
0.0334899
-0.0876387
0.0867881
0.00085052
-0.00234629
0.00241484
-0.466512
0.466443
-0.0011723
-0.000237302
-0.594213
0.595622
0.00226227
-0.00428057
-0.695448
0.697466
0.0065097
-0.00865596
-0.805856
0.808002
0.0112251
-0.013443
-0.928362
0.93058
0.0162436
-0.018869
-1.06295
1.06558
0.0214344
-0.0241542
-1.20866
1.21138
0.026961
-0.0292193
-1.36343
1.36568
0.0315998
-0.0333881
-1.52223
1.52402
0.0341087
-0.0341037
-1.41386
1.41385
0.0330765
-0.0312163
-1.10577
1.10391
0.0291124
-0.0263176
-0.87527
0.872475
0.0233867
-0.0202762
-0.699948
0.696837
0.0173551
-0.0141021
-0.564669
0.561416
0.0113727
-0.0087096
-0.458537
0.455873
0.0062724
-0.00408495
-0.373652
0.371465
0.00244559
-0.00113871
-0.294963
0.293656
0.000352053
7.8151e-05
-0.181932
0.181502
-0.000142526
-0.0322735
0.032416
-0.0882218
0.0875053
0.000716475
-0.00158661
0.00147565
-0.468994
0.469105
-0.000401637
-0.0011687
-0.597337
0.598907
0.00305704
-0.00486628
-0.699183
0.700992
0.00710676
-0.00904883
-0.810123
0.812065
0.0113822
-0.0136109
-0.933188
0.935417
0.0161822
-0.0186271
-1.06799
1.07044
0.0212172
-0.0237933
-1.21394
1.21652
0.0266
-0.0294443
-1.3682
1.37104
0.0321915
-0.0343395
-1.52585
1.52799
0.0359124
-0.0364656
-1.41397
1.41452
0.036162
-0.0349615
-1.10216
1.10096
0.0329422