/*--------------------------------*- C++ -*----------------------------------*\
  =========                 |
  \\      /  F ield         | OpenFOAM: The Open Source CFD Toolbox
   \\    /   O peration     | Website:  https://openfoam.org
    \\  /    A nd           | Version:  9
     \\/     M anipulation  |
\*---------------------------------------------------------------------------*/
FoamFile
{
    format      ascii;
    class       volVectorField;
    location    "7";
    object      U;
}
// * * * * * * * * * * * * * * * * * * * * * * * * * * * * * * * * * * * * * //

dimensions      [0 1 -1 0 0 0 0];

internalField   nonuniform List<vector> 
8800
(
(0.984834 -0.0883481 0)
(1.00192 -0.0566307 0)
(0.999533 -0.0301217 0)
(0.999547 -0.0151199 0)
(0.999691 -0.0080459 0)
(0.999986 -0.0046318 0)
(1.00002 -0.00276479 0)
(0.999963 -0.00159929 0)
(0.999967 -0.000773886 0)
(1.00004 -0.000127037 0)
(0.999969 0.000508293 0)
(0.999961 0.00123163 0)
(0.999973 0.00222335 0)
(1.00003 0.00367158 0)
(0.999893 0.0061602 0)
(0.999539 0.0109698 0)
(0.999616 0.0214258 0)
(0.999068 0.040872 0)
(1.00723 0.0768528 0)
(0.773682 0.0450473 0)
(0.362412 -0.0149383 0)
(1.04667 -0.0732311 0)
(1.08658 -0.0666709 0)
(1.04759 -0.0514275 0)
(1.02508 -0.0380581 0)
(1.01263 -0.0253537 0)
(1.00649 -0.01578 0)
(1.00339 -0.00921361 0)
(1.00191 -0.00484987 0)
(1.00132 -0.00175488 0)
(1.00123 0.000765274 0)
(1.0015 0.00352813 0)
(1.00251 0.0071174 0)
(1.00463 0.0123803 0)
(1.00897 0.0202934 0)
(1.01791 0.0315847 0)
(1.03486 0.044976 0)
(1.06486 0.0584152 0)
(1.09389 0.0716819 0)
(0.843877 0.0551633 0)
(0.222304 -0.00141878 0)
(1.07919 -0.0465598 0)
(1.10079 -0.0437713 0)
(1.06451 -0.034816 0)
(1.03954 -0.0278558 0)
(1.02288 -0.0214611 0)
(1.0128 -0.0156134 0)
(1.00742 -0.0103699 0)
(1.00483 -0.00568222 0)
(1.00395 -0.000888713 0)
(1.00414 0.00405341 0)
(1.00576 0.00858576 0)
(1.00951 0.0133926 0)
(1.01692 0.0188843 0)
(1.03004 0.0249183 0)
(1.05063 0.0314289 0)
(1.08082 0.0389992 0)
(1.10861 0.0471424 0)
(0.949305 0.0385217 0)
(0.22207 0.00142655 0)
(0.187914 -0.000214278 0)
(1.02936 -0.0260951 0)
(1.10649 -0.0319935 0)
(1.07671 -0.0289449 0)
(1.05074 -0.0249328 0)
(1.03376 -0.0207796 0)
(1.02246 -0.0161134 0)
(1.01523 -0.0111366 0)
(1.01104 -0.00600843 0)
(1.00927 -0.000807285 0)
(1.00976 0.00428205 0)
(1.01261 0.00936026 0)
(1.01816 0.0143437 0)
(1.02722 0.0191093 0)
(1.04097 0.0233993 0)
(1.06193 0.0272204 0)
(1.09361 0.0311325 0)
(1.09845 0.0313463 0)
(0.85162 0.0160068 0)
(0.18754 0.000221737 0)
(0.180133 5.84582e-05 0)
(0.986156 -0.00965487 0)
(1.09559 -0.0184668 0)
(1.07649 -0.0220813 0)
(1.05204 -0.0227144 0)
(1.03607 -0.0209405 0)
(1.02518 -0.0173986 0)
(1.01803 -0.0126383 0)
(1.01366 -0.00701779 0)
(1.0117 -0.000821081 0)
(1.01221 0.00543629 0)
(1.01518 0.0112032 0)
(1.02076 0.0161923 0)
(1.02961 0.0201528 0)
(1.0427 0.0226682 0)
(1.06257 0.0232708 0)
(1.08993 0.0210608 0)
(1.07378 0.0152309 0)
(0.801154 0.00400075 0)
(0.179577 -5.1845e-05 0)
(0.179116 7.50258e-06 0)
(0.958414 -0.00473872 0)
(1.07699 -0.0129337 0)
(1.07069 -0.0187454 0)
(1.05387 -0.0206183 0)
(1.0415 -0.0198407 0)
(1.03243 -0.0171278 0)
(1.02575 -0.0128469 0)
(1.0211 -0.00734512 0)
(1.01878 -0.000655622 0)
(1.01935 0.00616839 0)
(1.02264 0.0120512 0)
(1.02805 0.0167601 0)
(1.03571 0.0200165 0)
(1.04612 0.021425 0)
(1.06092 0.0210266 0)
(1.07738 0.0168871 0)
(1.04795 0.00925702 0)
(0.779552 0.00173291 0)
(0.178287 4.19786e-06 0)
(0.178612 2.4263e-05 0)
(0.940957 -0.00203934 0)
(1.0578 -0.00770071 0)
(1.06024 -0.0130965 0)
(1.05077 -0.0160157 0)
(1.04203 -0.0163539 0)
(1.0348 -0.0147845 0)
(1.02908 -0.0115238 0)
(1.02508 -0.00681883 0)
(1.02285 -0.000336875 0)
(1.02327 0.00627391 0)
(1.02601 0.0117845 0)
(1.03074 0.0155947 0)
(1.03698 0.0177682 0)
(1.04479 0.0181764 0)
(1.05389 0.0161195 0)
(1.06144 0.0115276 0)
(1.02633 0.00509193 0)
(0.76839 0.000693432 0)
(0.177513 -1.52049e-05 0)
(0.178763 1.76338e-05 0)
(0.932189 -0.000803869 0)
(1.0452 -0.00382084 0)
(1.05217 -0.00735012 0)
(1.04791 -0.00982462 0)
(1.04268 -0.0108221 0)
(1.03764 -0.0102857 0)
(1.03317 -0.0082134 0)
(1.03005 -0.00463449 0)
(1.02809 0.000390097 0)
(1.02832 0.00557783 0)
(1.0305 0.0096538 0)
(1.03393 0.0123132 0)
(1.03834 0.0130716 0)
(1.04313 0.0123308 0)
(1.04778 0.0101218 0)
(1.04981 0.0066277 0)
(1.01328 0.00269209 0)
(0.763085 0.000404283 0)
(0.177242 3.84905e-06 0)
(0.178866 1.40635e-05 0)
(0.928272 -0.000315205 0)
(1.0384 -0.00170014 0)
(1.04669 -0.00359414 0)
(1.04487 -0.00519744 0)
(1.04193 -0.00609532 0)
(1.03871 -0.00593621 0)
(1.03555 -0.00463018 0)
(1.03316 -0.00211736 0)
(1.03147 0.00127592 0)
(1.03135 0.00482635 0)
(1.03316 0.0073156 0)
(1.03499 0.00879702 0)
(1.03769 0.00881099 0)
(1.04039 0.00777426 0)
(1.04262 0.00596049 0)
(1.04239 0.00368428 0)
(1.00622 0.0014965 0)
(0.760185 0.000276861 0)
(0.176926 6.66685e-06 0)
(0.179051 1.63224e-05 0)
(0.926647 -3.31256e-05 0)
(1.03528 -0.00060864 0)
(1.04386 -0.00146799 0)
(1.04308 -0.0022693 0)
(1.04145 -0.00275622 0)
(1.03943 -0.00263776 0)
(1.03721 -0.00177298 0)
(1.03527 -7.71968e-05 0)
(1.03374 0.00215852 0)
(1.03331 0.00444285 0)
(1.03458 0.00583522 0)
(1.03535 0.00624954 0)
(1.0368 0.00594527 0)
(1.03819 0.00498811 0)
(1.03919 0.00367302 0)
(1.03808 0.00224461 0)
(1.00237 0.000979611 0)
(0.758371 0.00023469 0)
(0.176637 1.07381e-05 0)
(0.179352 2.06843e-05 0)
(0.926217 0.000194628 0)
(1.03405 4.22441e-05 0)
(1.04267 -0.000242467 0)
(1.04231 -0.000498754 0)
(1.04132 -0.000594315 0)
(1.03998 -0.000360789 0)
(1.03837 0.000322413 0)
(1.03672 0.00151627 0)
(1.03524 0.00304128 0)
(1.0345 0.00445231 0)
(1.03498 0.00510734 0)
(1.0352 0.00495068 0)
(1.03583 0.00447109 0)
(1.03643 0.00362485 0)
(1.03683 0.00263243 0)
(1.03538 0.00164808 0)
(0.999943 0.000801744 0)
(0.756954 0.000243069 0)
(0.176298 1.55191e-05 0)
(0.179778 2.38549e-05 0)
(0.926525 0.000356612 0)
(1.03388 0.000484285 0)
(1.04249 0.00055757 0)
(1.04229 0.000670841 0)
(1.0416 0.000891155 0)
(1.0406 0.00130161 0)
(1.03928 0.00197444 0)
(1.03776 0.00292687 0)
(1.03622 0.00401905 0)
(1.03515 0.00484707 0)
(1.03488 0.00505578 0)
(1.03472 0.00459357 0)
(1.03481 0.00393852 0)
(1.03495 0.00312031 0)
(1.03502 0.0022692 0)
(1.03341 0.00147278 0)
(0.998091 0.000788518 0)
(0.755606 0.000278892 0)
(0.175879 2.08552e-05 0)
(0.18033 3.08937e-05 0)
(0.927466 0.000527806 0)
(1.03443 0.000865571 0)
(1.04299 0.001193 0)
(1.04285 0.00158383 0)
(1.04226 0.00207127 0)
(1.04138 0.00268931 0)
(1.04015 0.00345691 0)
(1.03862 0.00434195 0)
(1.03687 0.00518644 0)
(1.03539 0.00561495 0)
(1.03453 0.00543136 0)
(1.03397 0.00480128 0)
(1.03368 0.00400105 0)
(1.03353 0.00313289 0)
(1.0334 0.00229291 0)
(1.03169 0.00153458 0)
(0.99638 0.000876625 0)
(0.754137 0.000337937 0)
(0.175353 2.71501e-05 0)
(0.181045 3.88941e-05 0)
(0.928931 0.000705761 0)
(1.03555 0.0012345 0)
(1.04404 0.00178844 0)
(1.0439 0.00243092 0)
(1.0433 0.00317858 0)
(1.0424 0.00403329 0)
(1.04111 0.0049711 0)
(1.0394 0.00590749 0)
(1.03732 0.00663496 0)
(1.03535 0.0067882 0)
(1.03395 0.00631204 0)
(1.033 0.00546907 0)
(1.03239 0.0044884 0)
(1.032 0.00349686 0)
(1.03173 0.00257355 0)
(1.02993 0.00175465 0)
(0.994565 0.00103864 0)
(0.752413 0.000417604 0)
(0.17469 3.46287e-05 0)
(0.181957 4.9524e-05 0)
(0.930948 0.000920187 0)
(1.03723 0.00165134 0)
(1.04562 0.00243761 0)
(1.04543 0.00334246 0)
(1.04475 0.00437115 0)
(1.04372 0.00550387 0)
(1.04223 0.00667841 0)
(1.0402 0.00775448 0)
(1.03764 0.0084595 0)
(1.03507 0.00840958 0)
(1.03312 0.00766344 0)
(1.03175 0.00655616 0)
(1.03084 0.00533915 0)
(1.03024 0.00415134 0)
(1.02984 0.00306696 0)
(1.02795 0.00211189 0)
(0.992468 0.00127329 0)
(0.750311 0.000522817 0)
(0.173854 4.39505e-05 0)
(0.183128 6.36258e-05 0)
(0.933611 0.00119198 0)
(1.03951 0.00216 0)
(1.04779 0.00321092 0)
(1.04749 0.00441621 0)
(1.04668 0.00577403 0)
(1.04543 0.00724446 0)
(1.04361 0.00872715 0)
(1.04111 0.0100215 0)
(1.03789 0.0107731 0)
(1.03459 0.0105496 0)
(1.03201 0.00950818 0)
(1.03018 0.0080785 0)
(1.02893 0.00655274 0)
(1.02812 0.00508934 0)
(1.02758 0.00376581 0)
(1.02559 0.00260675 0)
(0.989931 0.00158548 0)
(0.747699 0.000656841 0)
(0.172799 5.54323e-05 0)
(0.184638 8.21888e-05 0)
(0.937075 0.00154139 0)
(1.04251 0.00280324 0)
(1.05063 0.0041776 0)
(1.0502 0.00574844 0)
(1.04917 0.00750931 0)
(1.04761 0.00939805 0)
(1.04533 0.0112736 0)
(1.04218 0.012865 0)
(1.0381 0.0137141 0)
(1.03389 0.0133144 0)
(1.03055 0.0119235 0)
(1.02817 0.0100908 0)
(1.02655 0.00816657 0)
(1.02549 0.00633892 0)
(1.02479 0.00469262 0)
(1.02269 0.00325465 0)
(0.986791 0.00198614 0)
(0.744426 0.00082539 0)
(0.171473 6.95906e-05 0)
(0.186594 0.000106866 0)
(0.941554 0.00199688 0)
(1.0464 0.00363447 0)
(1.05431 0.0054177 0)
(1.05369 0.00744727 0)
(1.05238 0.00971261 0)
(1.05037 0.0121278 0)
(1.04747 0.0144993 0)
(1.04346 0.0164699 0)
(1.03828 0.0174553 0)
(1.03292 0.0168498 0)
(1.02866 0.0150259 0)
(1.02563 0.0126837 0)
(1.02356 0.0102498 0)
(1.0222 0.00795066 0)
(1.02131 0.00588783 0)
(1.01907 0.00408782 0)
(0.982865 0.0024985 0)
(0.740312 0.00103893 0)
(0.169806 8.73002e-05 0)
(0.189144 0.000140186 0)
(0.947335 0.00259993 0)
(1.0514 0.00472941 0)
(1.05905 0.0070391 0)
(1.05817 0.00965063 0)
(1.05646 0.012555 0)
(1.05387 0.0156342 0)
(1.05013 0.0186274 0)
(1.045 0.021067 0)
(1.0384 0.0222125 0)
(1.03161 0.0213403 0)
(1.02623 0.0189673 0)
(1.02239 0.0159787 0)
(1.01977 0.0129004 0)
(1.01805 0.0100045 0)
(1.01694 0.00741011 0)
(1.01453 0.00514548 0)
(0.977929 0.00314427 0)
(0.735133 0.00130574 0)
(0.167715 0.000109136 0)
(0.192502 0.000186962 0)
(0.954808 0.00341564 0)
(1.05781 0.00620293 0)
(1.06511 0.00919144 0)
(1.06389 0.012539 0)
(1.06163 0.016253 0)
(1.05824 0.020173 0)
(1.05339 0.0239413 0)
(1.04681 0.0269448 0)
(1.03842 0.0282539 0)
(1.02985 0.0270171 0)
(1.02308 0.023943 0)
(1.01827 0.0201386 0)
(1.01498 0.016248 0)
(1.01283 0.0126015 0)
(1.01145 0.0093385 0)
(1.00882 0.00648622 0)
(0.971715 0.0039585 0)
(0.728609 0.00163964 0)
(0.165096 0.00013649 0)
(0.196988 0.000257087 0)
(0.964532 0.00456117 0)
(1.06608 0.00823095 0)
(1.07294 0.0120665 0)
(1.07122 0.0163278 0)
(1.06819 0.0210783 0)
(1.06368 0.0260745 0)
(1.05735 0.0308024 0)
(1.04888 0.0344614 0)
(1.03824 0.0359051 0)
(1.02749 0.0341605 0)
(1.01903 0.0301886 0)
(1.01303 0.0253646 0)
(1.00893 0.0204659 0)
(1.00624 0.0158912 0)
(1.00453 0.0118001 0)
(1.00165 0.00820916 0)
(0.963889 0.00500418 0)
(0.720379 0.00206719 0)
(0.161815 0.000172449 0)
(0.203104 0.000366567 0)
(0.977364 0.0062218 0)
(1.07696 0.0110367 0)
(1.08326 0.0158789 0)
(1.08075 0.0212906 0)
(1.07655 0.0274111 0)
(1.07048 0.0337952 0)
(1.06213 0.0396895 0)
(1.05121 0.0440674 0)
(1.03775 0.0455564 0)
(1.02433 0.0431008 0)
(1.01385 0.0379927 0)
(1.0064 0.0319107 0)
(1.0013 0.0257782 0)
(0.997954 0.0200759 0)
(0.995835 0.0149834 0)
(0.992641 0.0104847 0)
(0.954016 0.00640259 0)
(0.709937 0.00263772 0)
(0.157685 0.000223012 0)
(0.211669 0.000539116 0)
(0.994611 0.0086989 0)
(1.09165 0.0149511 0)
(1.0971 0.0210208 0)
(1.09332 0.0280077 0)
(1.08737 0.0359849 0)
(1.07907 0.0440971 0)
(1.06796 0.0512985 0)
(1.05383 0.0563438 0)
(1.03686 0.0576672 0)
(1.02025 0.0542151 0)
(1.00735 0.0476944 0)
(0.998149 0.0400947 0)
(0.991794 0.0324783 0)
(0.987578 0.0254232 0)
(0.984893 0.0191436 0)
(0.981274 0.0135694 0)
(0.941555 0.0083706 0)
(0.69665 0.00344499 0)
(0.15246 0.000297078 0)
(0.224071 0.000824919 0)
(1.01804 0.0126513 0)
(1.11144 0.0207255 0)
(1.11557 0.0285342 0)
(1.10983 0.0378172 0)
(1.10135 0.0481689 0)
(1.08986 0.0581782 0)
(1.07501 0.0665834 0)
(1.05677 0.0719979 0)
(1.03552 0.0727404 0)
(1.01512 0.0678912 0)
(0.999368 0.059645 0)
(0.988055 0.0502662 0)
(0.980108 0.040912 0)
(0.974701 0.0322483 0)
(0.971148 0.0245554 0)
(0.966876 0.0177268 0)
(0.925891 0.0111659 0)
(0.67991 0.00461961 0)
(0.145849 0.000398517 0)
(0.242695 0.00137543 0)
(1.05019 0.0195901 0)
(1.13796 0.0299626 0)
(1.13976 0.0404527 0)
(1.13087 0.0528011 0)
(1.11854 0.0657061 0)
(1.10255 0.0773762 0)
(1.08284 0.0865097 0)
(1.05959 0.0916849 0)
(1.03337 0.0912104 0)
(1.0087 0.084452 0)
(0.989701 0.0741497 0)
(0.975896 0.062772 0)
(0.965965 0.0514787 0)
(0.958936 0.0409586 0)
(0.954063 0.0315638 0)
(0.948728 0.0231792 0)
(0.906288 0.0149746 0)
(0.659182 0.00626617 0)
(0.137547 0.000519976 0)
(0.270826 0.00270653 0)
(1.09651 0.0332015 0)
(1.17399 0.046558 0)
(1.17071 0.0608175 0)
(1.15619 0.0762707 0)
(1.13783 0.0909622 0)
(1.11576 0.103276 0)
(1.09011 0.112048 0)
(1.06121 0.115936 0)
(1.02964 0.113355 0)
(1.00045 0.104111 0)
(0.978001 0.0914801 0)
(0.961435 0.078012 0)
(0.949164 0.0647689 0)
(0.940069 0.0523538 0)
(0.93335 0.0411386 0)
(0.926289 0.0309538 0)
(0.881351 0.02072 0)
(0.633096 0.00857754 0)
(0.127652 0.000631925 0)
(0.311822 0.0106847 -2.79947e-20)
(1.15773 0.0614247 -2.15724e-20)
(1.21911 0.0786043 5.99473e-21)
(1.20612 0.0958097 0)
(1.1834 0.112245 1.69118e-35)
(1.15733 0.126605 7.77531e-23)
(1.12805 0.137741 -2.08204e-21)
(1.09572 0.144633 0)
(1.06066 0.146105 8.66754e-35)
(1.02335 0.140689 -6.71623e-21)
(0.989287 0.12867 0)
(0.962948 0.113769 -9.82765e-21)
(0.94307 0.0984605 -3.01792e-20)
(0.927754 0.0836675 -1.46476e-20)
(0.915701 0.0699613 -4.63352e-21)
(0.905958 0.0577298 -2.81281e-21)
(0.895741 0.0468383 0)
(0.848478 0.0354402 2.03208e-21)
(0.598429 0.0200695 2.38966e-21)
(0.117571 0.00361298 4.22434e-20)
(0.332753 0.0292683 -5.10947e-20)
(1.20814 0.110166 1.01095e-21)
(1.26006 0.129418 -2.8828e-21)
(1.23836 0.144697 0)
(1.20782 0.159165 5.04702e-21)
(1.1744 0.171472 3.21006e-21)
(1.13815 0.180484 -1.10237e-21)
(1.09916 0.185161 -1.04458e-20)
(1.05764 0.184279 0)
(1.01392 0.17639 2.82483e-20)
(0.973944 0.16218 3.16729e-20)
(0.942524 0.1458 1.02529e-20)
(0.918112 0.129677 4.09895e-20)
(0.898518 0.114536 6.09434e-20)
(0.882307 0.100871 0)
(0.868359 0.0891093 9.13784e-20)
(0.853573 0.0791433 1.34409e-19)
(0.804514 0.068447 1.49794e-19)
(0.573067 0.0472039 -1.74659e-19)
(0.116359 0.0100104 -3.15474e-21)
(0.3212 0.0472589 0)
(1.23775 0.173248 -1.51353e-20)
(1.29039 0.192838 0)
(1.26285 0.203933 2.46633e-20)
(1.22608 0.214211 0)
(1.18652 0.222568 1.39013e-20)
(1.14429 0.228009 5.2586e-22)
(1.0995 0.229362 -1.39081e-20)
(1.0523 0.225395 -3.02938e-21)
(1.00285 0.214707 1.33755e-20)
(0.957643 0.198433 7.37291e-20)
(0.921988 0.180991 -4.56753e-22)
(0.894111 0.164689 -3.07625e-20)
(0.871562 0.150131 -6.00637e-20)
(0.852845 0.137627 7.32194e-20)
(0.836875 0.127395 -1.31545e-19)
(0.821134 0.119302 -1.80806e-20)
(0.777247 0.109162 0)
(0.566306 0.0801144 1.03073e-21)
(0.12201 0.0177391 0)
(0.307181 0.062405 -3.71461e-19)
(1.25047 0.239252 1.54708e-19)
(1.30841 0.260481 8.25231e-20)
(1.27775 0.267639 -1.59925e-20)
(1.23706 0.273258 2.45604e-20)
(1.19317 0.277148 -3.34827e-20)
(1.14641 0.278364 -1.05946e-21)
(1.09696 0.27582 0)
(1.04509 0.268339 -4.93167e-20)
(0.99102 0.25454 0)
(0.941779 0.236017 -3.69844e-20)
(0.903076 0.21742 -5.32001e-20)
(0.872988 0.20083 -3.4287e-20)
(0.848972 0.186557 -4.45562e-20)
(0.829377 0.174656 0)
(0.813015 0.165188 0)
(0.797565 0.157955 -1.20759e-19)
(0.757168 0.147571 2.41053e-20)
(0.558006 0.109239 -1.4097e-20)
(0.122201 0.0243039 -1.62884e-20)
(0.29535 0.0758121 2.6996e-19)
(1.25177 0.304574 0)
(1.31634 0.328314 -2.27839e-19)
(1.28399 0.331813 -5.93745e-20)
(1.24085 0.332965 -4.64572e-20)
(1.19417 0.332434 0)
(1.14432 0.329427 -8.43122e-21)
(1.09152 0.322944 1.01969e-20)
(1.03602 0.311822 2.02807e-20)
(0.978134 0.294785 6.64002e-20)
(0.925541 0.273822 0)
(0.884506 0.253775 -1.15067e-19)
(0.852971 0.236471 -7.4266e-20)
(0.828136 0.221961 -4.48542e-20)
(0.808206 0.210096 2.9646e-19)
(0.79188 0.200729 3.64289e-20)
(0.776896 0.193528 1.74254e-19)
(0.738599 0.18214 -8.44267e-19)
(0.547168 0.135263 5.02652e-19)
(0.120874 0.0302497 -5.99627e-19)
(0.286501 0.0882108 2.80993e-19)
(1.24626 0.366954 -5.29182e-20)
(1.31681 0.394183 3.95145e-20)
(1.28366 0.394295 1.08509e-19)
(1.23902 0.391368 6.78242e-20)
(1.19049 0.386794 3.09013e-21)
(1.13844 0.37985 8.22344e-21)
(1.08312 0.369609 4.86855e-21)
(1.02483 0.354937 -4.36723e-20)
(0.963973 0.334631 0)
(0.908812 0.311067 -4.89212e-20)
(0.866046 0.289288 -2.96581e-21)
(0.833524 0.27088 -8.32053e-20)
(0.808247 0.255685 0)
(0.788258 0.243345 -6.466e-20)
(0.772129 0.233586 -1.57423e-19)
(0.757567 0.225954 4.36626e-19)
(0.720776 0.213298 -4.36599e-19)
(0.535608 0.158671 6.19372e-19)
(0.118678 0.0355172 -6.37286e-19)
(0.279929 0.0998195 -9.91873e-22)
(1.23672 0.425547 6.37024e-20)
(1.31172 0.456738 1.87461e-19)
(1.27834 0.454063 -6.57592e-20)
(1.23288 0.447561 3.84782e-20)
(1.18319 0.439348 0)
(1.12968 0.428813 2.02739e-20)
(1.07259 0.415085 -9.9588e-22)
(1.01223 0.397072 -1.85643e-20)
(0.949008 0.373587 0)
(0.891698 0.347354 -4.66075e-20)
(0.847498 0.323604 -6.72692e-20)
(0.814214 0.303749 9.0987e-20)
(0.788664 0.287478 -5.87416e-20)
(0.768711 0.27432 -2.85463e-19)
(0.752816 0.263864 1.75955e-19)
(0.738661 0.255561 5.61102e-20)
(0.703083 0.241558 0)
(0.523434 0.179741 -6.02669e-19)
(0.115923 0.0401543 -2.18801e-20)
(0.274896 0.110934 4.50837e-20)
(1.22488 0.48026 -7.25311e-20)
(1.30268 0.515474 -1.01666e-19)
(1.26936 0.510489 -2.01725e-19)
(1.22357 0.500973 1.84618e-19)
(1.17327 0.489593 -1.02651e-19)
(1.11879 0.475816 -4.3661e-20)
(1.0604 0.458884 9.90561e-22)
(0.998455 0.437802 2.10405e-20)
(0.933324 0.411334 -1.5693e-19)
(0.87417 0.382456 -5.82182e-20)
(0.828671 0.356553 0)
(0.794727 0.33498 9.97525e-20)
(0.768966 0.317329 1.24229e-19)
(0.749104 0.303041 1.53555e-19)
(0.733489 0.291662 -1.92923e-19)
(0.719737 0.282487 -5.8213e-20)
(0.685287 0.266999 6.90831e-20)
(0.510663 0.198552 0)
(0.11273 0.0441559 -4.80705e-20)
(0.270823 0.121585 -5.15376e-19)
(1.21192 0.53124 3.31157e-19)
(1.29098 0.570338 1.10508e-19)
(1.25776 0.563433 -1.52604e-19)
(1.21191 0.55132 1.09192e-19)
(1.1613 0.537158 -7.09435e-21)
(1.10626 0.52051 4.44387e-20)
(1.047 0.500698 -3.51553e-22)
(0.983874 0.476848 -3.19614e-20)
(0.917191 0.447693 -5.74088e-23)
(0.856333 0.416277 -1.7035e-19)
(0.809536 0.388136 1.73305e-19)
(0.774883 0.364616 -1.12699e-19)
(0.748885 0.345291 1.41393e-19)
(0.729122 0.329625 0)
(0.713814 0.317086 -1.05638e-19)
(0.700512 0.306896 -2.66312e-21)
(0.667111 0.289781 -3.04645e-19)
(0.497223 0.21525 -4.47673e-20)
(0.109079 0.0474863 0)
(0.267419 0.131656 0)
(1.19838 0.578762 3.53833e-19)
(1.27756 0.621469 2.55598e-19)
(1.24444 0.612935 1.71039e-19)
(1.19864 0.598577 1.06129e-19)
(1.14794 0.58195 0)
(1.09263 0.562733 3.78879e-20)
(1.03285 0.540354 -2.74363e-21)
(0.968855 0.514048 6.45826e-20)
(0.900867 0.482562 -1.80369e-20)
(0.838327 0.448858 -1.25085e-19)
(0.790109 0.418478 8.57542e-20)
(0.754566 0.39282 -4.36892e-21)
(0.728222 0.371547 1.49408e-19)
(0.708516 0.354214 9.8824e-20)
(0.693523 0.340272 -2.31267e-19)
(0.680729 0.328821 2.8107e-19)
(0.648358 0.309972 8.44373e-20)
(0.482995 0.229743 3.47563e-19)
(0.104868 0.0500937 -9.18294e-19)
(0.264531 0.141402 -1.29412e-19)
(1.1846 0.623024 2.03264e-19)
(1.26302 0.669111 -1.56955e-19)
(1.22998 0.659086 -1.96213e-19)
(1.1843 0.642748 0)
(1.13364 0.623929 8.63179e-20)
(1.07826 0.60242 -1.13082e-19)
(1.01826 0.577774 -1.17997e-20)
(0.953725 0.549339 0)
(0.88461 0.515912 -2.81539e-19)
(0.820372 0.480282 3.39972e-19)
(0.770445 0.447762 0)
(0.733705 0.419811 1.35341e-19)
(0.706807 0.396296 -4.69837e-21)
(0.687056 0.37699 -3.157e-19)
(0.672341 0.361354 1.23662e-19)
(0.660071 0.348462 0)
(0.628823 0.327608 4.60969e-19)
(0.467728 0.242156 0)
(0.100135 0.0518659 -4.40565e-19)
(0.26208 0.150763 1.42702e-19)
(1.17105 0.66447 2.3116e-19)
(1.24774 0.713435 -1.63958e-19)
(1.2148 0.702059 0)
(1.1693 0.683934 1.42681e-19)
(1.11877 0.663152 0)
(1.06348 0.639579 1.43482e-19)
(1.00349 0.612912 2.00637e-20)
(0.938741 0.582691 2.95245e-21)
(0.868737 0.547734 -1.3726e-19)
(0.802693 0.510672 3.20663e-20)
(0.750687 0.476239 0)
(0.712295 0.445874 -2.89805e-19)
(0.684481 0.419825 4.9877e-21)
(0.664481 0.398165 0)
(0.64997 0.380517 5.35565e-21)
(0.63826 0.365869 4.23355e-19)
(0.608083 0.342811 -4.09891e-19)
(0.451243 0.252212 1.20179e-19)
(0.0946712 0.0527962 0)
(0.25973 0.159636 0)
(1.15764 0.703278 2.56204e-19)
(1.23219 0.75464 1.89998e-19)
(1.19915 0.742063 -3.90452e-21)
(1.15394 0.722283 8.76477e-20)
(1.10363 0.699717 2.03096e-19)
(1.04856 0.674267 -4.78972e-20)
(0.988749 0.64578 1.33011e-20)
(0.924074 0.614054 2.56186e-20)
(0.853507 0.578078 -2.04772e-19)
(0.785589 0.540163 -6.06035e-21)
(0.731015 0.504192 -1.15289e-19)
(0.69036 0.471407 4.80361e-19)
(0.661108 0.4425 -6.28475e-21)
(0.640544 0.418031 -2.56183e-19)
(0.626138 0.397918 -4.68259e-19)
(0.614955 0.381202 0)
(0.585805 0.355579 0)
(0.433188 0.259892 1.35277e-19)
(0.0883363 0.0527859 -7.76163e-20)
(0.257868 0.168175 1.74099e-19)
(1.14447 0.740052 -5.54589e-19)
(1.21655 0.792932 -2.01856e-19)
(1.18333 0.779269 0)
(1.1384 0.757962 -2.42477e-21)
(1.08838 0.73374 2.39711e-19)
(1.03367 0.706556 -1.5372e-19)
(0.974232 0.676408 -9.48961e-20)
(0.909882 0.643408 1.25235e-20)
(0.839111 0.606939 -1.47566e-19)
(0.769384 0.568871 -2.80887e-19)
(0.711646 0.531929 3.07496e-19)
(0.667978 0.496859 0)
(0.636621 0.464825 -1.16714e-19)
(0.61505 0.437022 -2.85281e-19)
(0.600506 0.413747 -3.4535e-19)
(0.589624 0.394545 -4.20868e-19)
(0.561415 0.365894 1.26746e-19)
(0.413036 0.264921 -7.35081e-20)
(0.0809208 0.0516079 1.6232e-21)
(0.256044 0.176323 0)
(1.13153 0.77451 0)
(1.20093 0.828563 3.444e-21)
(1.16758 0.813851 0)
(1.12287 0.79116 -3.2275e-19)
(1.07317 0.765369 -2.08379e-19)
(1.0189 0.736542 0)
(0.960048 0.704839 -1.9154e-20)
(0.896309 0.670746 -1.54034e-20)
(0.825717 0.634246 -3.29989e-19)
(0.754335 0.59693 0)
(0.692924 0.559765 -1.97621e-19)
(0.645344 0.522753 -7.59569e-21)
(0.610983 0.48739 -6.21483e-21)
(0.587603 0.455539 3.09843e-19)
(0.572549 0.42844 -2.946e-22)
(0.561759 0.405893 -9.2996e-19)
(0.534855 0.373693 2.81451e-19)
(0.390547 0.266865 8.36737e-20)
(0.0723413 0.0490117 0)
(0.254293 0.184074 -6.29094e-19)
(1.11894 0.806884 -3.32722e-19)
(1.18538 0.861804 -4.93631e-19)
(1.15199 0.846009 6.96803e-19)
(1.10748 0.822029 -5.97585e-19)
(1.05811 0.794751 0)
(1.00434 0.764341 -1.27169e-19)
(0.946221 0.731128 3.87321e-20)
(0.883455 0.696065 6.63949e-21)
(0.813468 0.659953 2.66169e-20)
(0.740609 0.624394 3.40209e-19)
(0.675235 0.588003 -6.66481e-20)
(0.622648 0.549658 -3.03173e-19)
(0.58394 0.511103 -1.4427e-19)
(0.557473 0.47397 1.75833e-19)
(0.541587 0.442681 7.77818e-24)
(0.531595 0.415497 2.6113e-19)
(0.505794 0.378792 -6.19584e-19)
(0.36433 0.265005 7.4336e-19)
(0.0624157 0.0448191 1.04932e-19)
(0.252531 0.191483 2.28841e-19)
(1.1068 0.837218 -1.79111e-19)
(1.1701 0.892797 9.46138e-21)
(1.13662 0.875954 3.87395e-19)
(1.09231 0.850744 1.37266e-19)
(1.04327 0.822033 4.11174e-19)
(0.990042 0.790078 -5.36102e-20)
(0.932772 0.755335 1.81942e-19)
(0.871311 0.719332 8.42005e-20)
(0.802487 0.683991 -1.53205e-19)
(0.728507 0.651167 0)
(0.65902 0.61695 -3.07591e-19)
(0.60029 0.578113 4.47503e-19)
(0.555176 0.536041 0)
(0.524246 0.49379 -3.80378e-19)
(0.506703 0.456811 2.40278e-19)
(0.497407 0.424554 -2.87199e-19)
(0.471738 0.381604 -3.4909e-19)
(0.333356 0.259205 -6.16685e-19)
(0.0508325 0.0387622 -4.73801e-19)
(0.251046 0.198814 -2.48583e-19)
(1.0948 0.865696 1.91098e-19)
(1.15516 0.921685 4.48944e-19)
(1.12156 0.903847 5.28074e-19)
(1.07744 0.877466 -2.86222e-19)
(1.02869 0.847372 2.78703e-19)
(0.976019 0.813879 -1.68377e-19)
(0.919707 0.777541 2.18658e-19)
(0.859842 0.740538 7.20967e-20)
(0.792843 0.706235 1.14765e-19)
(0.718541 0.677098 6.924e-19)
(0.644847 0.646798 0)
(0.578638 0.607998 0)
(0.525219 0.562613 -1.686e-19)
(0.488809 0.516739 0)
(0.46881 0.470732 5.3019e-19)
(0.458404 0.430726 6.40257e-19)
(0.432794 0.379753 0)
(0.296494 0.247472 0)
(0.0376013 0.0305686 5.30165e-19)
(0.249531 0.205663 2.7117e-19)
(1.08309 0.892469 2.23486e-19)
(1.14063 0.948633 3.19906e-19)
(1.10689 0.929858 -4.63244e-19)
(1.06292 0.902358 -3.14773e-19)
(1.01443 0.870914 -3.63718e-19)
(0.962294 0.835889 2.48443e-19)
(0.906997 0.797835 4.40078e-21)
(0.849019 0.759705 -7.81703e-21)
(0.784554 0.726521 -1.98879e-20)
(0.711022 0.702114 3.4274e-19)
(0.632854 0.67738 0)
(0.558282 0.63991 4.64409e-19)
(0.495654 0.593333 3.59711e-19)
(0.452129 0.54126 9.4063e-19)
(0.42615 0.489015 2.89793e-19)
(0.412023 0.43729 -3.63898e-19)
(0.387084 0.371467 -2.15716e-19)
(0.254692 0.227773 0)
(0.0247316 0.0206616 5.90436e-19)
(0.24846 0.212572 -5.88495e-19)
(1.07177 0.917638 0)
(1.12649 0.973787 3.50929e-19)
(1.09264 0.954125 -3.74311e-19)
(1.04879 0.925565 3.49193e-19)
(1.0005 0.89281 5.22167e-19)
(0.948872 0.856244 -5.65772e-19)
(0.89461 0.816342 8.22212e-21)
(0.838758 0.776871 0)
(0.777654 0.744656 -4.26132e-20)
(0.706123 0.725973 -6.64099e-19)
(0.623432 0.708623 4.03277e-20)
(0.539883 0.673864 6.44974e-19)
(0.468808 0.627876 0)
(0.414983 0.572175 6.424e-19)
(0.3779 0.508056 0)
(0.354476 0.443144 0)
(0.330031 0.352405 -2.47152e-19)
(0.213791 0.190768 0)
(0.0308167 0.0165277 1.61577e-19)
(0.247283 0.219022 -6.35711e-19)
(1.06079 0.94143 0)
(1.11273 0.997347 5.62999e-19)
(1.07882 0.976882 0)
(1.03502 0.947359 -1.85964e-19)
(0.986837 0.913365 0)
(0.935663 0.875303 -4.04687e-20)
(0.882397 0.833446 -3.87149e-20)
(0.828861 0.792356 -1.48854e-20)
(0.772013 0.760817 7.35402e-21)
(0.703738 0.748995 1.39495e-20)
(0.616638 0.741355 3.48152e-19)
(0.524193 0.711528 6.29518e-19)
(0.443901 0.666165 9.27479e-20)
(0.375537 0.60894 5.07855e-19)
(0.319857 0.54294 0)
(0.27607 0.456043 8.08736e-19)
(0.242315 0.315837 -4.89148e-19)
(0.119519 0.148101 5.61017e-19)
(-0.042733 0.382703 -6.78005e-19)
(0.246355 0.225402 5.1375e-19)
(1.04999 0.963974 8.18143e-19)
(1.09922 1.01961 0)
(1.06527 0.998523 4.8302e-21)
(1.02139 0.968236 4.99456e-19)
(0.973124 0.933149 -9.83442e-19)
(0.922263 0.893673 -2.43157e-19)
(0.869856 0.849736 0)
(0.818817 0.806618 -1.50823e-19)
(0.767384 0.775397 7.3214e-21)
(0.704208 0.771944 0)
(0.613134 0.776979 0)
(0.510161 0.755995 5.63135e-19)
(0.414109 0.715653 -2.98214e-19)
(0.328646 0.657764 -5.11686e-19)
(0.256907 0.587851 0)
(0.172347 0.485445 4.08748e-19)
(0.0714698 0.556202 -4.84469e-19)
(0.059243 1.73717 -2.65685e-19)
(0.0947747 2.73132 -3.43582e-19)
(0.245567 0.231024 -3.66948e-19)
(1.03937 0.985355 -1.01746e-18)
(1.08596 1.04051 3.16055e-19)
(1.05207 1.01899 3.05509e-19)
(1.008 0.988088 0)
(0.95946 0.952035 -6.95808e-19)
(0.908862 0.911265 -3.99081e-19)
(0.857118 0.865052 2.46795e-20)
(0.808715 0.819333 -2.41885e-20)
(0.763734 0.787709 -1.04833e-19)
(0.708365 0.793215 2.23643e-19)
(0.616191 0.813511 3.56619e-19)
(0.49739 0.807691 5.68112e-19)
(0.383258 0.766871 -6.9999e-19)
(0.279214 0.709883 -7.62135e-19)
(0.197331 0.658907 0)
(0.10722 0.905875 0)
(0.158394 2.42707 2.10576e-19)
(0.165 3.13792 0)
(0.163411 3.34495 4.58558e-19)
(0.248306 0.236069 0)
(1.02873 1.00548 0)
(1.07291 1.05987 0)
(1.03899 1.03815 8.37013e-20)
(0.994638 1.00681 4.36803e-19)
(0.945702 0.970013 -5.20169e-19)
(0.895466 0.928072 -2.82488e-19)
(0.844114 0.879469 2.72431e-20)
(0.79848 0.83039 -2.83006e-19)
(0.760964 0.797254 -3.91493e-20)
(0.716896 0.811384 2.81281e-19)
(0.627276 0.854478 -4.50723e-20)
(0.490358 0.867244 6.37898e-20)
(0.352733 0.820364 1.01804e-19)
(0.239546 0.779665 1.52822e-21)
(0.170084 1.00562 4.12655e-21)
(0.211604 2.52737 -1.01337e-18)
(0.237864 3.24215 -3.8269e-19)
(0.217632 3.39968 1.73309e-19)
(0.196509 3.42816 -1.77327e-19)
(0.153618 0.179464 1.9783e-19)
(1.01248 1.02605 0)
(1.06067 1.07802 -6.06063e-19)
(1.02651 1.05653 -7.7565e-19)
(0.981872 1.02502 8.93444e-19)
(0.93243 0.987593 5.49074e-19)
(0.881654 0.944312 3.2814e-19)
(0.830908 0.894298 -4.23632e-19)
(0.786881 0.841838 2.73325e-19)
(0.757709 0.803692 0)
(0.731404 0.82313 3.25181e-20)
(0.646786 0.891725 -2.42899e-19)
(0.493216 0.932273 0)
(0.320187 0.890788 9.3424e-20)
(0.224423 0.950988 2.08956e-19)
(0.212813 2.14047 -2.5215e-19)
(0.315773 3.26295 2.71732e-19)
(0.294342 3.41606 1.29199e-19)
(0.248564 3.45053 1.43718e-19)
(0.218132 3.46682 1.69989e-19)
(0.295346 0.280943 -3.43296e-19)
(0.989751 1.03128 0)
(1.04344 1.10237 5.99339e-19)
(1.00749 1.083 7.73643e-19)
(0.96125 1.05108 -8.93281e-19)
(0.91015 1.01221 -5.61638e-19)
(0.857395 0.965601 -4.81718e-19)
(0.806186 0.90964 -3.33366e-20)
(0.767178 0.849196 -3.7098e-19)
(0.756897 0.807158 -4.01045e-19)
(0.760239 0.83877 -1.14591e-20)
(0.689557 0.960117 1.8575e-19)
(0.497975 1.06788 6.10082e-20)
(0.287384 1.13328 -9.51376e-20)
(0.31558 2.02266 -1.93495e-19)
(0.410088 3.22716 1.27574e-19)
(0.408994 3.448 -1.06374e-19)
(0.361349 3.4912 -5.62442e-20)
(0.311002 3.53123 3.11396e-20)
(0.235861 3.52386 6.02571e-22)
(0.284446 0.278586 0)
(0.986322 1.05181 1.57859e-19)
(1.03253 1.12211 -1.18685e-19)
(0.995197 1.10219 -8.57447e-20)
(0.947863 1.07005 -5.78575e-19)
(0.895729 1.03037 5.45553e-19)
(0.84168 0.981825 3.18621e-19)
(0.790002 0.922617 -3.4456e-20)
(0.75353 0.855924 4.51806e-19)
(0.755924 0.805971 -5.30967e-20)
(0.799704 0.842257 4.9661e-19)
(0.758677 1.01436 3.27472e-20)
(0.538406 1.17454 -5.72692e-20)
(0.330158 1.40855 -8.71878e-20)
(0.454496 2.7906 3.39386e-20)
(0.528234 3.40675 -3.59041e-21)
(0.465989 3.52011 -1.05452e-19)
(0.422834 3.56965 -1.49058e-19)
(0.34107 3.61727 2.09988e-19)
(0.260091 3.60112 7.86927e-20)
(0.266875 0.274897 3.85621e-19)
(0.980762 1.07572 1.05353e-18)
(1.02083 1.14369 -3.33685e-19)
(0.981903 1.12298 -3.22502e-19)
(0.933469 1.09043 0)
(0.880017 1.04968 7.76312e-19)
(0.824364 0.998922 4.75689e-19)
(0.771426 0.93536 -3.54657e-20)
(0.736342 0.86002 5.29751e-20)
(0.749282 0.792656 7.16586e-19)
(0.830432 0.827899 4.58038e-19)
(0.854057 1.04446 -1.15099e-19)
(0.630223 1.30175 -4.71059e-19)
(0.428191 1.79232 5.73493e-19)
(0.605775 3.19215 2.67714e-19)
(0.629425 3.4968 0)
(0.549805 3.57697 0)
(0.479669 3.66543 2.0642e-19)
(0.392052 3.73497 0)
(0.279672 3.70714 2.75351e-19)
(0.254441 0.275225 -5.59466e-19)
(0.972818 1.10136 -8.71117e-19)
(1.00768 1.16686 0)
(0.967193 1.14505 3.56279e-21)
(0.91752 1.11187 -5.49851e-19)
(0.862556 1.06998 1.13445e-18)
(0.804998 1.01688 3.12066e-19)
(0.750063 0.948308 -3.73945e-20)
(0.715104 0.861524 4.63835e-19)
(0.741072 0.770493 -4.68601e-20)
(0.886906 0.78267 0)
(0.998696 1.06229 0)
(0.757828 1.46202 -3.68537e-19)
(0.587422 2.20691 1.64165e-19)
(0.758261 3.36744 5.49295e-20)
(0.724547 3.55823 0)
(0.659752 3.65885 4.80808e-19)