/*--------------------------------*- C++ -*----------------------------------*\
  =========                 |
  \\      /  F ield         | OpenFOAM: The Open Source CFD Toolbox
   \\    /   O peration     | Website:  https://openfoam.org
    \\  /    A nd           | Version:  9
     \\/     M anipulation  |
\*---------------------------------------------------------------------------*/
FoamFile
{
    format      ascii;
    class       volScalarField;
    location    "0.9";
    object      p;
}
// * * * * * * * * * * * * * * * * * * * * * * * * * * * * * * * * * * * * * //

dimensions      [0 2 -2 0 0 0 0];

internalField   nonuniform List<scalar> 
400
(
3.77843e-06
-0.00582356
-0.0129615
-0.018414
-0.0204317
-0.0182381
-0.0117735
-0.00148326
0.0118379
0.0271498
0.0432451
0.0588238
0.0725796
0.0833095
0.0900539
0.0922681
0.0900269
0.0842449
0.0768816
0.071068
0.0057825
-0.000216725
-0.00580272
-0.00954155
-0.0105982
-0.00843212
-0.00296945
0.00547461
0.0163034
0.0287123
0.0417505
0.0543868
0.0655873
0.0744108
0.0801212
0.0823168
0.0810783
0.0770558
0.071275
0.0653186
0.0133367
0.00503508
-0.000994087
-0.00442206
-0.00527206
-0.00326326
0.00160286
0.00902803
0.0185025
0.0293498
0.0407661
0.0518704
0.0617693
0.0696372
0.0748079
0.0768789
0.0758425
0.0720867
0.0658063
0.0575362
0.020141
0.00869731
0.00122705
-0.00266746
-0.00372119
-0.00188455
0.00273186
0.00978502
0.0187808
0.0290955
0.0399926
0.0506547
0.0602337
0.0679168
0.073004
0.0750023
0.0737665
0.0694568
0.0616036
0.0501031
0.0245036
0.00977446
0.000590945
-0.00398585
-0.00530126
-0.00350648
0.00117543
0.00833508
0.0174624
0.0279495
0.0390855
0.0500705
0.0600496
0.0681658
0.0736271
0.0757984
0.0743696
0.0692904
0.0595261
0.0445376
0.0251795
0.00715139
-0.00380086
-0.00905616
-0.0105112
-0.00849905
-0.00335599
0.00443009
0.0143139
0.0256794
0.0378142
0.0499038
0.0610487
0.0703038
0.0767353
0.0795175
0.0781395
0.0723341
0.0605397
0.0418904
0.021095
-0.000261019
-0.0129333
-0.0187083
-0.0200288
-0.017413
-0.0113175
-0.00231888
0.0089911
0.0219767
0.0359101
0.0499448
0.0631127
0.0743459
0.0825225
0.0865702
0.0857213
0.0794477
0.0656209
0.0430721
0.0111442
-0.0136169
-0.0278739
-0.0338532
-0.0346026
-0.0308566
-0.0232119
-0.0123443
0.00110567
0.0164846
0.0330531
0.0499341
0.0660839
0.0802905
0.0912013
0.0974307
0.097871
0.0916367
0.0758968
0.049117
-0.00596598
-0.0342653
-0.0498689
-0.0555475
-0.0550892
-0.0495137
-0.0395926
-0.0261124
-0.00975621
0.00882383
0.0289017
0.0495941
0.0697981
0.0881551
0.103048
0.112702
0.115551
0.110193
0.0928349
0.061412
-0.0318562
-0.0638751
-0.0804158
-0.0850061
-0.0824191
-0.0740774
-0.06098
-0.0440357
-0.0239506
-0.001336
0.0231464
0.0486618
0.0740963
0.0979729
0.118397
0.133126
0.139989
0.136819
0.118442
0.0819345
-0.0686665
-0.104602
-0.121343
-0.123589
-0.117514
-0.105126
-0.0877173
-0.0663246
-0.0416361
-0.0141547
0.0156065
0.0469541
0.0788566
0.109794
0.137625
0.159586
0.172728
0.173779
0.155521
0.113572
-0.119401
-0.159356
-0.174914
-0.172756
-0.161147
-0.142928
-0.119758
-0.092776
-0.0625765
-0.0294467
0.00637412
0.0444745
0.0840562
0.123704
0.161137
0.193087
0.215669
0.224078
0.208052
0.160634
-0.188627
-0.232241
-0.243937
-0.233947
-0.213693
-0.187153
-0.156371
-0.1225
-0.0858967
-0.046471
-0.0040133
0.04154
0.0898434
0.139831
0.18932
0.23469
0.271076
0.291666
0.281744
0.229777
-0.283973
-0.329303
-0.33183
-0.308278
-0.274707
-0.236438
-0.195763
-0.153608
-0.109838
-0.0637436
-0.0144364
0.0388649
0.0965558
0.158278
0.222376
0.28529
0.341399
0.381577
0.384916
0.331836
-0.419317
-0.459669
-0.442348
-0.39579
-0.342127
-0.287737
-0.234614
-0.182928
-0.131607
-0.0789828
-0.0232119
0.0374773
0.104555
0.17884
0.259863
0.344972
0.428618
0.499702
0.529677
0.485393
-0.620529
-0.636741
-0.578674
-0.49419
-0.411238
-0.335656
-0.267778
-0.205975
-0.147534
-0.0893803
-0.0284234
0.0383509
0.113809
0.200474
0.299978
0.412028
0.533032
0.651778
0.732774
0.722398
-0.935921
-0.878512
-0.741738
-0.597945
-0.47439
-0.372656
-0.288865
-0.21776
-0.15395
-0.0924608
-0.0287142
0.0416987
0.123266
0.220721
0.338929
0.482158
0.652
0.841345
1.01527
1.09751
-1.47642
-1.20663
-0.9205
-0.691384
-0.517301
-0.38754
-0.290058
-0.213334
-0.148121
-0.0872123
-0.0245744
0.0454607
0.128941
0.233074
0.367106
0.542681
0.771296
1.05932
1.40329
1.73014
-2.53965
-1.63054
-1.04443
-0.710955
-0.495747
-0.35209
-0.254527
-0.18358
-0.126166
-0.0735919
-0.0192658
0.04279
0.119215
0.218786
0.354815
0.547987
0.826396
1.23658
1.91168
2.9242
-4.36666
-2.04463
-0.973539
-0.563177
-0.357843
-0.240143
-0.170116
-0.123779
-0.0874779
-0.053507
-0.0166513
0.0276637
0.0846105
0.161733
0.272414
0.442102
0.718222
1.22571
2.41104
4.84853
)
;

boundaryField
{
    movingWall
    {
        type            zeroGradient;
    }
    fixedWalls
    {
        type            zeroGradient;
    }
    frontAndBack
    {
        type            empty;
    }
}


// ************************************************************************* //
