/*--------------------------------*- C++ -*----------------------------------*\
  =========                 |
  \\      /  F ield         | OpenFOAM: The Open Source CFD Toolbox
   \\    /   O peration     | Website:  https://openfoam.org
    \\  /    A nd           | Version:  9
     \\/     M anipulation  |
\*---------------------------------------------------------------------------*/
FoamFile
{
    format      ascii;
    class       volScalarField;
    location    "28";
    object      p;
}
// * * * * * * * * * * * * * * * * * * * * * * * * * * * * * * * * * * * * * //

dimensions      [0 2 -2 0 0 0 0];

internalField   nonuniform List<scalar> 
918
(
0.300741
0.959856
0.042332
0.30001
-0.00643667
0.926913
-0.758466
0.474759
0.28082
-0.34007
-0.341563
0.272764
0.787433
0.553572
-1.38536
-0.272383
0.427238
-0.637668
0.279823
-0.180377
0.515055
0.287463
0.290505
0.281102
0.341456
0.536549
0.668004
-0.00688521
0.0237133
-0.00545174
-0.0450917
-0.105436
-0.142742
0.810562
0.86164
0.884312
0.249496
0.0771722
-0.616143
-0.688922
-0.677331
-0.806217
0.466819
0.470585
-0.423451
0.474636
0.486115
0.268175
0.280178
0.28111
0.282216
0.281135
0.282547
0.171707
-0.345598
-0.375156
-0.320386
-0.313512
-0.147723
-0.326478
-0.314943
-0.354078
-0.363465
0.202317
0.269663
0.267262
0.277728
0.284687
0.899402
0.871325
0.897459
0.811105
0.827622
0.765413
0.73793
0.574349
0.595674
0.538175
0.527148
-1.82547
-2.79294
-0.78697
-0.531671
-0.0169409
-0.249273
-0.238338
0.416991
0.419375
0.427343
0.439407
0.82317
-0.632881
-0.769876
0.279909
0.2787
0.287167
0.287848
0.283855
0.282947
-0.232235
-0.272771
-0.0493117
-0.14877
-0.114739
0.501785
0.499165
0.281656
0.278689
0.292351
0.313746
0.304638
0.0407336
0.348048
0.365587
0.354792
0.524571
0.519573
0.528144
0.641553
0.604342
0.705334
0.728661
0.00547484
-0.00111753
-0.273044
-0.184885
-0.227563
0.245504
0.23837
0.263876
0.252787
0.255195
-0.00748861
-0.143928
0.163501
0.187604
-0.525321
-0.590493
-0.695641
-0.711018
-0.820098
0.328787
0.457303
0.457856
-0.442182
-0.36065
-0.50143
-0.286928
-0.351245
0.258644
0.265489
0.260548
0.275895
0.270423
0.272356
0.284433
0.281531
0.283065
0.234112
0.357735
0.100568
0.066389
-0.495512
-0.395756
-0.486341
-0.304324
-0.304924
-0.148538
-0.130383
-0.166098
-0.154106
-0.298628
-0.307374
-0.30035
-0.376655
-0.365004
0.195134
0.184525
0.213908
0.221077
0.261405
0.262307
0.264899
0.263394
0.688759
0.711133
0.718578
0.692387
-3.79929
-6.61409
-0.200759
-0.0606758
-0.0186033
-0.0127922
-0.00339101
-0.0200131
-0.0118466
-0.0244857
-0.145444
-0.143389
-0.189234
-0.168462
0.402273
0.402961
0.739506
0.733574
0.725413
0.677373
0.267951
0.270116
0.275671
0.271525
-0.36385
-0.315683
-0.337674
0.483671
0.492381
0.492213
0.00516314
-0.0789624
0.0869507
0.114058
0.388093
0.371233
0.386515
0.416585
0.452636
0.736148
0.754375
0.75264
0.761037
0.805137
0.821591
0.786839
0.22635
0.235484
0.230659
0.267118
0.264802
0.265736
0.260828
0.262523
0.260168
-0.297197
-0.683599
0.246681
0.263608
0.235286
0.247768
0.404046
0.475193
0.437852
0.446829
0.448587
-0.220149
-0.280064
0.0303442
0.000702782
0.139175
0.17316
0.154074
0.659796
0.620438
0.670341
0.643884
0.605238
0.631099
-0.635652
-2.1569
-1.26436
0.296487
0.106445
0.195474
-0.165651
-0.155496
-0.14438
0.722231
0.801845
0.412699
0.573176
0.58534
0.492155
0.523597
0.577205
0.501841
0.537128
0.573126
0.555606
0.288062
0.258079
0.254225
0.544279
0.600293
-0.106584
-0.159384
-0.206324
-0.113808
-0.0551893
-0.0819298
0.769616
0.660028
0.734948
0.27841
0.279095
-0.0323967
-0.0716833
0.283196
0.283226
-0.0553654
-0.144143
0.177817
-1.09463
-0.119045
0.271603
0.262035
0.278804
-0.327208
0.134261
-0.309666
-0.154523
-0.188802
0.270727
0.211577
0.174338
-0.0444798
-0.308664
-0.246137
-0.453028
0.276069
0.274401
0.278282
0.279327
0.279958
-0.0810168
-0.0714618
-0.0519423
-0.230204
-0.141716
-0.163387
0.243779
0.260406
-0.411919
0.278459
0.280554
0.280402
0.273511
0.279215
0.27742
-0.223434
-0.170803
-0.308506
-0.00883185
0.107609
0.427006
0.524777
0.390361
0.163122
-0.0768918
0.325845
0.392285
0.293478
0.453678
0.448969
0.464705
-0.057428
-0.203868
-0.048893
-0.103682
0.269521
0.268157
0.260308
0.257453
0.273707
0.271784
0.276396
0.273305
0.276248
0.277659
-0.286482
-0.307507
-0.324569
-0.384763
0.0919167
0.346583
0.0271509
0.0577672
-0.0855359
-0.343324
-0.345095
-0.292991
-0.3023
-0.210615
-0.205747
-0.17129
-0.157874
-0.210418
-0.209782
-0.245857
-0.239684
-0.253719
0.264515
0.263607
0.269793
0.276719
0.220799
0.224718
0.191546
0.210576
0.196026
0.140928
0.174126
0.149271
-0.0512181
-0.065865
-0.0379476
-0.30308
-0.272333
-0.214211
-0.150444
-0.21337
-0.133362
-0.137861
-0.340056
-0.332601
-0.414801
-0.530184
0.724656
0.670117
-0.140573
0.265344
0.271691
0.268538
0.273185
0.276326
0.277247
0.274978
0.271538
0.261117
0.262936
0.259167
0.259498
-0.352659
-0.48818
-0.313337
-0.380169
-0.115873
0.379884
0.120831
0.0614684
0.0565602
0.273689
0.671465
0.469895
0.472587
0.497237
-0.596767
-0.199133
-0.529585
0.0900406
-0.0871731
0.425037
0.476157
0.499261
0.445645
0.39648
-0.369728
0.289495
-0.29903
-0.255736
-0.065706
-0.169
0.469298
0.431768
0.436279
0.451993
0.471073
0.436293
0.414462
0.411262
0.448607
0.454002
0.246528
0.0234528
-0.0210771
-0.058831
0.414375
0.288262
0.345694
0.260482
0.264324
0.267214
0.265731
0.248513
0.255798
0.251599
0.25717
0.260298
0.269457
0.269792
0.265196
0.267537
-0.287484
-0.296848
-0.266434
-0.376155
-0.367239
-0.415999
-0.309794
-0.17428
-0.209342
-0.0192804
0.0897745
-0.198718
-0.316535
-0.286613
-0.258408
-0.0733749
-0.0482931
-0.152669
-0.0668473
-0.079108
-0.086843
0.00876174
0.0141268
-0.292923
-0.250356
-0.268198
-0.286369
-0.187079
-0.131502
-0.112967
-0.333582
-0.286307
-0.370456
-0.375705
-0.257147
-0.267253
-0.254487
-0.214755
-0.303445
-0.283332
-0.29848
-0.375752
-0.306851
-0.30087
0.259422
0.260866
0.260988
0.269726
0.283141
0.297934
0.262608
0.241858
0.233173
0.236162
0.21123
0.220623
0.216251
0.229062
0.248508
0.255908
0.255349
0.257663
0.241066
0.24302
0.230252
0.233165
0.210859
0.193704
0.182784
-0.215769
-0.136407
-0.198985
-0.166448
-0.0898147
-0.119594
-0.256849
-0.286151
-0.283787
-0.261436
-0.220873
-0.293497
-0.279742
-0.327609
-0.252991
-0.436742
-0.469278
-0.53893
0.63361
0.74449
0.561404
0.344498
0.347973
0.579427
0.671497
0.310688
0.483424
0.512143
0.301618
0.562412
0.270107
0.26972
0.267351
0.266774
0.268144
-0.269252
-0.169296
-0.153906
-0.104551
0.0147722
0.130679
0.0349538
-0.087635
0.0491421
0.0569266
0.374765
0.391256
0.335895
0.361016
0.359121
0.186332
0.262857
0.317623
0.272238
0.315768
0.337779
0.299149
0.329145
0.276705
0.23475
0.233497
0.178712
0.199895
0.177363
0.15924
0.259621
0.23814
0.248199
0.239108
0.258708
0.286398
0.280797
0.30769
0.319532
0.244416
0.205384
0.214443
0.241915
0.203945
0.217244
0.232046
-0.0422215
-0.142729
-0.0539065
-0.345264
-0.260879
-0.277016
-0.322857
-0.280411
0.00617912
-0.693464
-0.665888
-1.3012
0.229204
0.700182
0.425238
0.396375
0.466863
0.444731
0.447877
0.47285
0.479497
0.403693
0.421326
0.425236
0.37699
0.401822
0.426191
0.423664
0.258587
0.13874
0.130007
0.0908811
-0.0319405
-0.000271712
0.204353
0.126175
0.0531995
0.0581709
0.221909
0.112663
0.177994
0.216153
0.148366
0.104601
0.303363
0.371345
0.362837
0.33659
0.252403
0.264643
0.290812
0.326683
0.353251
0.388143
0.256934
0.262608
0.263868
0.26145
0.258603
0.261445
0.261608
0.264106
0.264927
0.267905
0.266883
-0.290171
-0.262919
-0.29481
-0.305441
-0.261912
-0.269252
-0.223187
-0.228811
-0.248132
-0.239291
-0.272341
-0.270783
-0.272148
-0.260533
-0.135955
-0.117016
-0.132424
-0.180096
-0.00665198
0.131081
0.194165
0.0775632
-0.0326687
-0.00185214
0.0245786
-0.23899
-0.204245
-0.207454
-0.175917
-0.186094
-0.361985
-0.39302
-0.397394
-0.310646
-0.329374
-0.431875
-0.372023
-0.409746
-0.406094
-0.389408
-0.377512
0.243862
0.237363
0.239157
0.233578
0.232252
0.245623
0.249722
0.251272
0.256246
0.257871
0.249155
0.254009
0.257342
-0.408081
-0.384248
-0.411365
-0.446867
-0.422851
-0.374587
-0.38935
-0.146261
-0.218458
-0.213294
-0.254482
-0.37721
-0.320954
0.213724
0.210882
0.225222
0.438075
0.291972
0.20996
0.303854
0.406758
-0.000358483
0.200009
0.0310375
0.612404
0.50031
0.643523
0.271089
-0.025491
0.127167
0.179306
-0.0147868
0.0556084
0.0702018
-0.0410201
-0.00999619
0.0198372
0.119837
-0.00123779
-0.0289658
-0.275386
-0.0913688
0.0365797
0.0151913
0.150569
0.215518
-0.0170215
-0.0922327
-0.135984
0.365649
0.38586
0.404685
0.374412
0.399119
0.321232
0.312238
0.330833
0.339734
0.333653
-1.0288
-0.73634
-1.68037
-0.991439
-0.541231
0.264199
0.22296
0.500152
0.390021
0.459326
0.443436
0.403158
0.367584
0.378692
0.412325
0.114199
0.224405
0.198006
0.205214
0.10817
0.0416146
0.339975
0.33337
0.371979
0.395918
0.360737
0.395185
0.254612
0.254281
0.254134
0.25087
0.249088
0.251028
-0.179942
-0.202001
-0.179809
-0.196651
-0.212442
-0.217704
-0.433876
-0.444281
-0.489864
-0.49148
-0.467079
-0.431835
-0.109926
-0.165357
-0.237392
-0.209756
-0.266113
-0.329139
-0.346873
-0.250156
-0.162525
-0.169884
0.132843
0.384518
0.209227
0.378306
0.21501
0.272305
0.218647
0.211983
0.243148
0.113594
0.189218
-0.0400804
-0.546275
-0.453286
0.516097
0.536332
0.326674
0.137885
-0.0923574
0.0965228
0.287609
0.226025
0.266092
0.334509
0.328037
-0.256942
-0.18855
0.0674859
0.294746
-0.0343174
-0.0413595
-0.0464029
0.124822
0.0495671
)
;

boundaryField
{
    wall-4
    {
        type            zeroGradient;
    }
    velocity-inlet-5
    {
        type            zeroGradient;
    }
    velocity-inlet-6
    {
        type            zeroGradient;
    }
    pressure-outlet-7
    {
        type            fixedValue;
        value           uniform 0;
    }
    wall-8
    {
        type            zeroGradient;
    }
    frontAndBackPlanes
    {
        type            empty;
    }
}


// ************************************************************************* //
