/*--------------------------------*- C++ -*----------------------------------*\
  =========                 |
  \\      /  F ield         | OpenFOAM: The Open Source CFD Toolbox
   \\    /   O peration     | Website:  https://openfoam.org
    \\  /    A nd           | Version:  9
     \\/     M anipulation  |
\*---------------------------------------------------------------------------*/
FoamFile
{
    format      ascii;
    class       surfaceScalarField;
    location    "28";
    object      phi;
}
// * * * * * * * * * * * * * * * * * * * * * * * * * * * * * * * * * * * * * //

dimensions      [0 3 -1 0 0 0 0];

internalField   nonuniform List<scalar> 
1300
(
3.75095
5.62643
-5.3038
3.75095
-5.28863
5.62643
-4.46601
4.46601
-1.10134
1.10134
1.87646
1.87449
-2.96481
2.96481
-2.28747
2.28747
-2.56283
2.56283
-5.24643
5.24643
-5.0689
5.0689
4.67157
-4.67157
-4.0566
4.0566
-1.50197
1.50197
-3.90701
3.90701
3.16987
-3.16987
-2.97223
2.97223
-0.304295
0.304295
-0.553555
4.30451
3.1974
3.1974
-2.15112
2.15112
-4.86127
4.86127
6.21813
-6.21813
7.72
-7.72
-2.4162
-3.37126
1.54761
-9.49885
-3.74102
-3.74102
-8.44039
8.44039
-2.81396
2.81247
2.94247
-2.94247
-1.78673
1.78673
-4.4049
-0.0611106
-4.4049
4.46703
-0.00101822
4.46703
-1.23078
0.129445
-1.23078
3.9712
-3.9712
0.934123
0.167214
0.934123
3.06457
-3.06457
-1.87714
3.7536
1.87381
-1.87183
6.17634
-1.87912
3.75361
-5.91043
5.91043
-3.21808
0.253274
-3.21808
2.76042
0.20439
2.76042
-6.68588
6.68588
-2.45875
0.171285
-2.45875
2.22168
0.0657897
2.22168
2.8587
-2.8587
-2.6609
0.098068
-2.6609
2.46056
0.102273
2.46056
0.353543
5.27289
-5.97997
8.79244
-5.27289
0.0264615
5.2084
0.0380285
5.2084
-5.10613
0.0372309
-5.10613
5.01147
0.0574297
5.01147
4.76459
-0.0930275
4.76459
-4.78546
0.113892
-4.78546
-2.91456
-4.52738
-4.52679
0.470195
-4.52679
-1.5028
0.000831586
-1.5028
1.45407
0.0478938
1.45407
-3.54118
3.54118
-4.26957
0.362559
-4.26957
3.12452
0.0453533
3.12452
1.86854
1.88241
5.61949
-5.61949
2.44962
-2.57742
-0.394805
-2.57742
-3.41846
-4.30155
3.41846
-0.446229
-0.573508
0.269214
-0.573508
3.15918
0.0382224
3.15918
2.33922
0.121338
-2.33922
0.188098
3.22587
-3.22587
1.53408
0.617041
1.53408
-5.56725
5.56725
4.95316
0.0583059
-4.95316
0.0918917
6.15711
0.0610191
6.15711
-6.19962
-0.018507
-6.19962
2.35386
-5.72513
-3.94874
3.78597
0.270623
-3.78597
0.0449548
2.91229
0.0301762
2.91229
-2.9223
2.9223
-2.98266
0.0401884
-2.98266
-2.19056
0.403832
-2.19056
1.48199
0.304735
1.48199
-4.27829
-0.126604
-4.27829
-4.4026
0.133034
4.4026
0.0644263
1.04032
-1.04032
-1.35058
0.119802
-1.35058
-4.11566
-0.162637
4.11566
-0.144458
-3.85343
-0.117768
-3.85343
-3.02334
0.0406839
3.02334
0.0412307
3.11236
0.0468199
-3.11236
0.047783
-1.87083
3.75325
-1.88012
3.75393
-5.52042
-0.390007
-5.52042
6.21457
-0.304142
6.21457
3.55716
0.349848
-3.55716
0.339079
2.58732
0.173096
2.58732
-6.66868
-0.0172084
-6.66868
6.58513
0.100755
6.58513
2.4933
0.0940236
-2.4933
0.0345443
2.24643
-0.0247501
2.24643
2.86367
-0.00496304
2.86367
-2.86215
0.00344679
-2.86215
2.80441
-2.80441
2.73703
0.0673837
-2.73703
0.0761292
-11.1327
11.1142
-0.0350462
-11.0977
5.17335
5.17335
4.19675
0.567847
4.19675
-4.99993
0.214473
-4.99993
2.43478
-6.38352
4.36435
-7.27891
4.28946
-13.7883
3.34907
-7.87645
5.91396
-5.91396
5.24575
0.668211
-5.24575
0.718963
-1.52837
0.0255717
-1.52837
-2.93099
-0.610184
-2.93099
4.20021
-0.659032
4.20021
-3.02939
3.02939
-3.07837
0.0489862
3.07837
0.0461464
2.3805
-0.134075
-2.3805
-0.196919
0.754425
0.179698
-0.754425
0.180917
3.44687
-0.221004
3.44687
-3.02455
-0.201319
-3.02455
-1.53433
0.00596047
1.53433
-0.00024888
-5.81504
0.24779
-5.81504
-11.1907
0.0930412
-11.1527
-6.10658
-6.10658
2.33381
11.1262
-2.88457
0.0224233
2.88457
0.0277202
2.97668
0.0527032
-2.97668
0.0543811
-2.86513
0.0607194
2.86513
0.0571704
-2.56909
0.378529
-2.56909
-1.06395
1.06395
-1.24678
0.182832
1.24678
0.23521
1.27673
-0.236412
1.27673
1.40677
0.0472974
-1.40677
0.0561918
-3.7442
-0.109234
-3.7442
6.44039
-0.225824
6.44039
-2.91304
-0.111511
2.91304
-0.0493703
-0.0333354
11.1476
-5.14002
0.0338896
5.14002
-11.2086
11.2425
-3.24344
0.674353
3.24344
0.953306
5.29021
0.277039
-5.29021
0.290279
6.36834
0.216789
-6.36834
0.454376
-2.43853
-0.492457
-2.43853
-4.93193
-0.588491
4.93193
-0.73172
-11.4745
-0.20468
11.6792
-11.4171
6.01972
0.137395
-6.01972
11.3799
-0.978868
-0.0614532
0.978868
0.0850801
1.58749
-0.310752
1.58749
3.63945
-0.192576
-3.63945
-0.10475
-6.58571
-0.08297
6.58571
-0.145315
-1.99702
-0.441511
1.99702
-0.409538
-4.2669
4.30512
1.90944
-1.77336
-3.95176
-6.07491
1.85184
1.90141
4.30146
-8.80452
-4.98379
-8.75957
7.26762
-6.97734
-9.27744
9.18441
7.58728
-7.70504
-5.78518
5.83133
6.48165
-6.44042
1.87904
1.87456
7.91816
-7.66489
-15.6528
15.2628
6.89208
-6.7208
15.7513
-15.7685
-17.8948
18.1116
-5.73437
5.83244
-6.70809
6.71154
-6.88798
6.83861
-1.79156
-5.48735
12.865
-12.3948
7.2203
-7.6151
-8.49794
8.8605
3.38238
0.92274
3.4292
-1.88233
3.76137
-1.87129
3.78072
4.35229
-6.14384
2.03124
-5.983
4.16119
3.05911
-3.71496
-2.35995
-5.9182
5.94837
-5.82219
5.87936
8.90889
-8.97
-1.885
3.75957
-1.86893
3.77034
-3.42525
-2.35993
3.3799
0.92156
7.33161
5.5334
-7.60224
-1.15733
-7.80691
7.61434
-8.08243
7.88111
-0.443597
5.8205
-5.3769
4.41767
-1.55792
7.37842
5.7097
5.92417
5.86682
-5.58978
1.11052
-6.48742
-6.39553
-2.55097
2.67078
2.50946
-2.34224
5.95061
1.63666
5.80616
-5.5494
-2.15565
-5.65863
3.8211
2.01023
3.87008
4.07593
2.40572
4.11662
3.03109
-3.03531
0.00421928
-3.05622
6.08731
0.724258
-5.41615
-4.49459
4.92435
2.99381
5.12874
-5.49545
-2.16944
-5.15637
-9.52841
-6.12437
-10.1169
10.0925
5.17023
9.78841
-11.9672
11.8219
3.8889
3.00319
3.95469
-4.69447
-2.02633
-4.65992
11.9597
-2.89843
-9.06129
-10.3135
-7.58129
10.2128
5.53857
10.8824
7.22915
11.3368
4.56077
7.39895
-10.0993
2.51805
-3.87328
-1.86109
-3.79715
3.70765
2.12479
3.80992
-4.20952
-2.49857
-4.1871
-4.27079
-2.6172
4.27575
2.43579
-4.3486
-3.73384
4.46011
2.37851
4.52949
-9.51329
3.34696
-8.83431
-9.35027
-3.04455
-8.6313
5.54667
1.19558
-6.74225
-0.597169
8.94012
-5.88101
6.58017
-4.01352
-3.60159
-4.21044
-6.78992
-1.70802
-6.65689
-8.87387
8.38141
-9.18372
8.52469
12.7215
-5.70675
-7.0147
-3.96803
-2.47239
3.92025
-0.491047
-3.71202
3.71624
0.0493501
3.83007
4.75282
4.26177
-3.88716
-1.93503
-3.83278
3.83324
2.04612
3.89396
6.72492
2.18397
6.7239
-6.43168
-2.53832
-6.55828
9.09603
-8.6922
2.93788
-2.93192
5.26743
2.61369
-5.04642
-2.76049
6.1518
-3.09065
-3.06115
-12.2127
10.5637
1.649
-4.83432
-0.416649
-0.112355
-5.50107
-3.77637
5.38718
0.536992
11.1007
7.32437
-5.51332
5.76111
6.1659
6.22421
-0.171325
5.84689
-5.17254
5.36023
-2.46887
-2.89136
5.29613
-5.45876
-1.26216
-5.31011
4.04796
0.347394
1.74204
-1.47282
-2.01516
-0.535817
-1.95897
1.48495
1.02451
1.66465
0.982815
1.68796
-2.93392
0.524835
2.40908
-1.9511
-1.81741
-3.68907
-1.01291
4.70198
5.55156
2.06278
-5.44681
-0.211822
2.73674
-2.68884
-0.81294
-2.87613
2.08749
-2.90043
-3.56052
-1.90187
5.46239
-3.37075
-0.462031
3.31804
0.552039
-3.8252
-2.093
3.78501
0.331609
-3.1242
6.18978
-3.06558
-5.05924
2.52916
3.55815
4.53939
-4.79036
2.44652
2.34384
-1.23221
4.21448
0.914265
4.38757
-6.72207
4.55263
5.72381
3.13669
-6.07366
0.917284
-5.80479
8.47726
-7.26969
-1.20757
4.10958
4.36768
7.18646
5.53499
-5.75453
12.941
-1.13819
-6.1315
6.94297
-3.80628
4.73868
-8.54496
-10.2737
4.14217
-9.22051
10.9583
-1.73775
-3.6113
-8.35588
12.8318
-1.20671
-11.6251
8.5817
-4.12849
-4.80837
8.93686
-7.02692
6.8347
-1.79287
-5.04183
-10.0985
-5.67002
10.1815
1.64038
-11.0193
13.5373
-3.62035
3.10628
0.848404
3.08153
3.29212
-5.4248
2.13267
3.7348
-5.52766
2.08506
-7.50986
-7.67729
12.776
-5.09866
-10.7218
-10.5208
-0.201032
2.58452
10.9528
-9.81367
7.14708
2.66659
3.31051
0.583448
-3.3779
-0.419255
0.284395
4.55827
-4.84267
4.09432
4.21566
3.41636
1.14191
3.83918
2.10919
-3.8669
-0.320195
-4.13984
1.52265
-1.70406
-3.64464
5.16729
-4.08053
0.435891
-2.72893
-3.5286
6.25753
-4.59002
3.03994
3.14984
5.08606
-4.91073
1.38213
-2.40923
-2.5015
2.6984
-4.40245
1.94327
3.22402
4.32177
0.587937
7.20519
5.57076
-8.40077
-0.433546
11.1042
-9.94683
3.0356
8.30123
-10.1827
-0.338138
-8.96944
-0.160793
-5.72022
-6.90305
5.05846
-6.76648
-3.48651
6.13899
0.584912
-6.20341
-0.453477
-6.02136
-2.85251
-6.46287
-3.06273
-6.121
-8.81725
-1.65023
-7.16702
6.73118
-6.66707
-3.44984
7.39879
1.12591
-7.40292
7.34147
-7.48364
7.17289
0.0944853
3.62175
4.35625
1.88386
-2.38955
4.27341
-5.06615
7.25012
-8.49927
3.43313
4.00503
-6.54335
-4.49425
5.04812
4.04791
5.35286
8.97121
-10.5064
1.53516
-10.8368
12.1521
-1.31528
-16.6271
5.79027
-7.65585
2.67568
0.262197
2.70125
0.670089
2.41434
-3.08442
-2.26183
-2.26208
-2.32313
-3.38802
5.71114
1.14762
-3.38665
2.23902
-3.47218
4.6198
-0.0713104
-3.31534
5.26111
-2.84678
5.52331
-3.54349
1.97982
3.30502
5.63846
-2.33344
4.31888
-1.70519
1.82963
-4.16307
-1.55839
-2.98973
5.11452
-3.2678
3.70369
-0.271851
3.97554
-4.074
0.983344
-0.657637
3.55802
3.74612
4.27431
-3.1324
2.94991
-4.6551
-1.21316
-4.06716
-0.843144
-0.294408
-3.80076
4.09517
6.07343
-6.36783
-5.267
9.58782
-4.32082
7.73378
-5.40897
-2.3248
-4.28324
-4.40896
3.90471
1.94218
9.67595
0.212999
-5.62197
-4.95954
-4.00623
3.21791
2.14232
-1.95151
3.60051
2.06387
-0.321832
0.584038
1.08061
1.85556
-1.27152
0.211298
1.64426
-1.26153
2.00183
0.73491
-2.04912
0.0901565
-1.39915
3.48663
1.00993
-2.03444
0.762921
1.03497
-3.50384
4.81866
-2.48097
-2.33769
5.85363
1.15705
-3.63802
4.15306
-3.80566
2.32316
-3.33607
-1.31487
-5.12053
-3.48387
-2.50199
4.74101
-3.20916
5.27194
1.18049
-5.06011
6.24061
-3.56191
1.66004
-3.05095
3.78586
-1.05789
-1.99306
2.76977
2.69262
-2.91849
0.0423614
-0.148717
2.30997
-2.45869
-0.590452
-2.54155
-4.57231
4.90391
-2.10683
4.55335
2.16658
-1.914
6.46735
1.81164
-3.72564
-3.24759
-3.70962
-1.38181
3.15758
-0.43285
-4.22707
-5.47468
4.13305
0.254524
-6.90337
7.7485
-0.845131
-3.90955
-0.643078
4.75266
-5.99336
0.465693
-3.90829
3.8402
4.75447
5.00899
-11.4276
-0.197544
-6.25734
1.16995
-7.42729
5.53763
-3.63348
7.77565
-10.4334
6.98358
-9.30751
6.56808
-0.859205
6.22637
-4.0937
2.83492
-8.50494
-6.86456
5.42614
-2.42295
6.27454
-2.89356
9.1681
-6.51391
4.76046
4.40764
-1.15455
-3.05588
-4.65203
3.49748
0.108426
3.18996
4.97571
-2.86652
4.65552
2.24551
-4.65474
-2.15695
-6.496
1.84127
-3.34616
-1.91322
3.75448
3.17285
3.7563
1.25298
-3.33704
9.09593
-9.29696
-3.99727
-2.90577
4.64121
-1.14373
4.6806
-7.58637
-1.03963
4.89042
-0.829998
-4.06043
0.816322
-4.30283
1.65116
-5.95399
5.11532
-5.5688
2.196
-9.85184
-5.20693
-5.12185
-2.23829
-5.24535
-7.64997
5.41169
-1.85971
5.48176
-8.65588
7.82588
-3.49619
8.90787
-5.4252
-1.03767
5.83474
1.33815
10.246
0.167804
-4.66205
-1.9141
4.00268
-2.08858
1.30381
-3.63296
0.369721
2.44148
3.41216
-6.48943
-0.053915
-4.71597
-3.92948
7.97738
5.65834
11.7318
1.2254
9.17931
-1.20193
10.4047
4.15093
4.38614
-3.04879
4.58395
1.04639
4.47951
-0.844877
2.8247
1.85638
1.85721
0.831633
2.29459
1.45153
3.27794
0.193512
-2.06857
4.64033
-8.64656
-0.981645
-8.07871
1.1057
5.72825
-4.62255
3.15437
-1.01206
1.0658
0.0922355
-1.6333
1.54107
-2.79912
-1.95513
-0.310876
-1.59787
2.36079
1.88877
-2.04991
-0.749211
0.314034
-3.79791
3.02203
-2.97967
-0.287054
5.95355
-2.7333
0.274614
-1.07326
-2.26694
-2.80276
2.7126
6.17618
0.291167
3.1106
5.19508
3.10208
0.235557
3.96673
-5.70447
-3.54314
-5.90202
-0.36439
4.38827
1.67522
9.27761
6.08286
4.93913
-2.64724
-11.9442
6.56999
-1.98604
5.2547
-1.19428
-4.75971
4.9736
2.27652
-5.55852
-0.0102794
-4.76999
-6.75603
-0.541539
8.36742
-9.70448
8.66682
5.8143
1.35272
-4.41192
-0.709931
4.22908
0.157055
10.5618
-1.12281
-6.83134
7.95415
-4.60544
3.6238
0.847911
2.7526
2.38898
1.37692
-5.45442
-10.077
-1.91808
-1.58577
-4.25577
0.446213
-2.33498
6.26242
-2.63862
3.93762
5.31553
6.38132
-2.16001
-4.20782
6.48084
-2.54322
3.8381
)
;

boundaryField
{
    wall-4
    {
        type            calculated;
        value           uniform 0;
    }
    velocity-inlet-5
    {
        type            calculated;
        value           uniform -3.75095;
    }
    velocity-inlet-6
    {
        type            calculated;
        value           uniform -5.62643;
    }
    pressure-outlet-7
    {
        type            calculated;
        value           nonuniform List<scalar> 8(5.3038 5.28863 5.78747 7.95123 7.44194 6.30261 6.79913 7.63854);
    }
    wall-8
    {
        type            calculated;
        value           uniform 0;
    }
    frontAndBackPlanes
    {
        type            empty;
        value           nonuniform List<scalar> 0();
    }
}


// ************************************************************************* //
