/*--------------------------------*- C++ -*----------------------------------*\
  =========                 |
  \\      /  F ield         | OpenFOAM: The Open Source CFD Toolbox
   \\    /   O peration     | Website:  https://openfoam.org
    \\  /    A nd           | Version:  9
     \\/     M anipulation  |
\*---------------------------------------------------------------------------*/
FoamFile
{
    format      ascii;
    class       volVectorField;
    location    "28";
    object      U;
}
// * * * * * * * * * * * * * * * * * * * * * * * * * * * * * * * * * * * * * //

dimensions      [0 1 -1 0 0 0 0];

internalField   nonuniform List<vector> 
918
(
(0.985168 -0.000496134 0)
(0.00500844 2.96625 0)
(-0.0374164 1.41206 0)
(0.9797 0.0021495 0)
(0.00290164 1.40781 7.86563e-20)
(-0.0070412 2.94879 -1.97161e-18)
(0.838361 1.18026 6.67277e-19)
(0.366851 0.167278 -1.04963e-20)
(0.999905 -0.000292125 0)
(0.0628469 0.854046 0)
(0.00615502 0.645167 0)
(0.732947 -0.00872108 0)
(0.0111376 2.93034 0)
(0.00210042 2.79514 0)
(-0.0175714 3.15942 1.01818e-18)
(-0.0167193 1.21944 2.45113e-19)
(0.459945 0.0645587 6.64865e-19)
(0.188922 1.21181 5.66212e-19)
(0.962791 0.0049952 0)
(-0.0477505 0.850024 0)
(0.0942882 0.206159 -5.12399e-19)
(1.00199 -0.00498479 0)
(1.00021 -0.00980516 0)
(0.975708 -0.00644321 0)
(0.611987 -0.0449658 0)
(0.0166405 2.63692 0)
(-0.0150028 2.91013 6.90425e-19)
(-0.104763 1.32329 0)
(-0.109443 1.54172 0)
(-0.0594827 1.36589 0)
(-0.0107284 2.1213 0)
(0.063803 1.44131 -6.20888e-20)
(0.0451139 1.15183 0)
(-0.0206104 2.9876 -6.93654e-23)
(-0.0166931 3.0053 1.53234e-18)
(0.00210283 3.00019 0)
(0.870076 -0.00933496 0)
(0.404267 0.941402 1.35644e-20)
(0.817735 1.19803 -9.12535e-19)
(0.967338 1.03502 8.70686e-19)
(0.686134 1.29256 -1.54909e-19)
(0.683692 1.28272 8.71793e-19)
(0.408033 0.260873 1.02406e-20)
(0.396966 0.148179 0)
(1.15435 0.558982 0)
(0.368893 0.262373 4.71977e-20)
(0.321415 0.170546 -4.89819e-20)
(0.919641 -0.00751538 0)
(1.00028 0.000146459 0)
(0.999913 0.000340252 0)
(1.00364 -0.00778792 0)
(1.00096 -0.000943143 0)
(1.00017 2.12871e-05 0)
(0.0819324 1.78456 -3.26954e-19)
(0.0423675 1.00536 0)
(0.0833558 0.932684 0)
(0.0204099 0.939021 0)
(0.0329072 0.785279 0)
(0.0187645 1.99134 0)
(0.0224079 0.795075 0)
(0.00316198 0.688556 0)
(-0.0100205 0.747257 0)
(-0.0160297 0.625094 0)
(0.833748 -0.0142183 0)
(0.85321 0.0257681 0)
(0.767307 0.00071754 0)
(0.827832 0.0323298 0)
(0.703944 -0.0160033 0)
(0.0146921 3.0004 7.23699e-19)
(0.0115048 3.00801 0)
(0.00611589 3.00279 0)
(0.0135458 2.99736 8.09874e-24)
(0.00797683 2.95846 -1.0756e-18)
(0.0144906 2.98203 0)
(0.0108449 2.90359 0)
(0.024464 2.93053 1.48953e-24)
(0.00445589 2.82532 0)
(0.0311844 2.91619 0)
(-0.00546601 2.74485 0)
(0.310005 3.55824 0)
(-0.132075 3.64001 0)
(0.140419 3.25022 -9.47542e-19)
(-0.0123996 2.98447 0)
(-0.203605 1.98459 0)
(-0.0327762 1.44875 -2.4162e-19)
(-0.0990398 1.35804 1.95368e-19)
(0.534096 0.152553 -2.29235e-19)
(0.458019 0.0365932 -2.21666e-19)
(0.515393 0.179826 -6.92356e-19)
(0.442186 0.0870672 -4.61885e-19)
(0.214668 0.913685 0)
(0.269359 1.35122 -6.00816e-19)
(0.383996 1.29865 9.89072e-19)
(0.98752 0.00850575 0)
(0.942089 0.00586103 0)
(1.0003 0.00057168 0)
(1.00287 0.00929993 0)
(1.00303 0.00842733 -1.44063e-18)
(0.991923 0.00971774 1.0878e-18)
(-0.0615105 0.913967 0)
(-0.0311737 0.737505 0)
(-0.109738 1.27893 0)
(-0.0563868 1.04536 0)
(-0.0277108 0.994577 0)
(0.143787 0.214404 1.58354e-19)
(0.19644 0.192314 0)
(0.993517 -0.00840811 0)
(0.954368 -0.00650519 0)
(0.786464 0.0344032 0)
(0.741933 0.0436181 0)
(0.669206 -0.0334704 0)
(0.956733 -0.00375101 0)
(0.674816 0.0597613 0)
(0.511614 -0.0205372 9.08967e-19)
(-0.0363611 2.86386 3.91481e-19)
(0.0419438 2.90916 0)
(0.0551706 2.8846 0)
(-0.00486507 2.6988 0)
(-0.0129931 2.98528 6.38527e-19)
(-0.0180654 2.89529 0)
(-0.0153813 2.9881 -2.01166e-18)
(-0.013313 2.92523 6.93661e-19)
(-0.211478 1.54354 0)
(-0.204699 1.68015 0)
(0.0381928 1.37149 8.68352e-21)
(0.0693233 1.33509 0)
(0.000616938 1.14496 0)
(0.937455 -0.00779447 0)
(0.85539 -0.00948406 0)
(0.864108 0.0069277 0)
(0.948799 -0.00804126 0)
(0.883353 -0.00827245 0)
(0.517223 1.1358 -2.60798e-20)
(0.567391 1.18761 0)
(0.366847 0.884656 1.07208e-20)
(0.309074 0.744645 0)
(0.927123 1.07333 -2.50127e-19)
(1.04074 0.875311 5.10714e-19)
(0.377991 1.39063 0)
(0.538877 1.35951 0)
(0.544678 1.3196 0)
(0.104731 0.174488 -1.69854e-19)
(0.449731 0.242677 0)
(0.427067 0.133178 1.3185e-19)
(1.01137 0.929383 0)
(1.07894 0.777098 0)
(1.10444 0.719484 -4.40218e-19)
(1.134 0.618439 0)
(1.18156 0.403381 5.68753e-20)
(0.95732 -0.00869531 0)
(0.962274 -0.010074 0)
(0.901365 -0.00814694 0)
(0.984114 -0.00920725 0)
(0.974561 -0.00935791 0)
(0.936971 -0.006348 0)
(1.00018 0.00231965 0)
(1.0009 0.00143785 0)
(0.999902 0.000846183 0)
(0.0352986 2.04294 1.99882e-19)
(0.119584 1.72068 0)
(0.0115258 2.15754 2.12855e-19)
(0.0562293 1.85052 -1.24134e-19)
(0.13426 1.20341 -4.68404e-19)
(0.0434325 1.08201 0)
(0.104929 1.07662 0)
(0.0297313 0.886955 0)
(0.00833132 0.725135 0)
(-0.0102676 2.18133 2.06414e-21)
(0.0294171 1.98232 0)
(-0.0355778 2.15225 1.39445e-19)
(-0.00864826 1.9754 -2.78061e-19)
(0.00488402 0.856176 0)
(0.00598872 0.834214 0)
(-0.00438681 0.690826 0)
(-0.0192683 0.743692 0)
(-0.0262494 0.634078 0)
(0.930253 0.00717097 0)
(0.83882 -0.0143901 0)
(0.92324 -0.000615195 0)
(0.83815 -0.0108607 0)
(0.81381 0.00448192 0)
(0.903925 0.0184301 0)
(0.882244 0.0211329 0)
(0.790386 0.00290675 0)
(0.00563426 3.06473 -6.44262e-21)
(0.0165534 3.05794 0)
(0.0146371 2.96909 0)
(0.0085243 2.87629 0)
(0.928334 3.97693 0)
(1.24372 3.30916 9.95528e-19)
(0.0703935 3.07674 0)
(-0.0278766 2.90734 0)
(-0.281412 1.69202 0)
(-0.284402 1.93545 0)
(-0.238289 1.8124 0)
(-0.0642787 2.15139 -3.4579e-20)
(-0.216622 2.08213 0)
(-0.12647 2.0373 0)
(-0.111134 1.80389 -5.31773e-21)
(-0.13074 1.81081 -1.25562e-19)
(-0.112978 1.60512 -1.99742e-19)
(-0.133186 1.59075 0)
(0.56213 0.124479 3.38392e-19)
(0.475482 0.0123526 -3.31336e-19)
(0.261053 1.54864 0)
(0.262662 0.68938 -2.29585e-19)
(0.177937 1.63582 -7.70724e-19)
(0.226471 1.16382 7.72684e-19)
(0.902515 0.00670022 0)
(0.967629 0.0109918 0)
(0.974748 0.0107318 0)
(0.923655 0.00662248 0)
(-0.0183209 0.763294 0)
(-0.032748 0.814597 0)
(-0.0399837 0.682698 0)
(0.312717 0.254368 4.31893e-19)
(0.254764 0.230471 -5.1512e-19)
(0.267292 0.182073 0)
(1.08552 0.0869353 2.74555e-21)
(1.06883 0.0405887 0)
(0.997466 0.0413231 0)
(0.892052 -0.00042106 0)
(0.585775 0.0953461 0)
(0.615381 0.0713401 -1.46067e-18)
(0.490376 -0.00114934 5.54774e-19)
(0.00926297 2.98106 4.7144e-19)
(-0.0330317 2.86612 4.6511e-20)
(0.00372606 3.05021 -1.38593e-20)
(0.0200958 3.04344 4.97257e-19)
(-0.0149933 2.99657 2.30044e-20)
(-0.0129927 2.94948 -9.29756e-23)
(-0.0172742 3.01195 -4.33921e-19)
(0.0148688 3.02383 3.13941e-19)
(0.00736361 3.03682 -4.91962e-19)
(0.931155 -0.00143661 0)
(0.937705 -0.00373911 0)
(0.843325 -0.00883636 0)
(0.956916 0.0115246 0)
(0.943425 0.0125014 0)
(0.882193 0.00642564 0)
(0.919432 0.0153156 0)
(0.927374 0.0141468 0)
(0.840006 0.00557381 0)
(0.722161 1.41553 2.67517e-19)
(0.756038 1.52493 0)
(0.201027 0.352175 3.58417e-20)
(0.19909 0.638517 2.8991e-19)
(0.252577 0.713975 -1.68477e-19)
(0.275422 0.555653 3.23638e-19)
(0.313724 0.74265 9.34703e-19)
(0.119674 0.203461 2.47056e-19)
(0.491904 0.200531 4.93789e-19)
(0.473353 0.21796 1.25503e-19)
(0.434345 0.111897 2.47898e-19)
(1.16997 0.460299 2.42679e-19)
(1.18195 0.254856 2.50476e-19)
(0.0108779 2.19577 4.50623e-20)
(0.0422393 1.90055 0)
(0.954855 0.0302287 0)
(0.929567 0.0137369 0)
(0.8536 -0.0129288 0)
(0.0112398 3.07461 0)
(0.0198267 2.94405 8.65556e-19)
(0.0164767 2.95644 0)
(0.00617889 2.85072 -8.58742e-19)
(0.00613401 3.091 2.06129e-19)
(0.00723871 3.08248 0)
(0.789453 1.82826 -2.22941e-19)
(1.25151 2.50745 6.0745e-19)
(0.771757 1.96818 -1.43865e-18)
(0.0205697 2.98255 -3.62559e-19)
(0.0362559 3.00359 0)
(-0.0330665 2.88011 0)
(-0.0638074 2.08546 3.65383e-21)
(-0.115114 1.98131 2.64255e-19)
(-0.0457993 1.92864 4.40738e-21)
(0.274369 1.35574 7.49952e-19)
(0.214806 0.469196 -5.16313e-19)
(0.0648461 1.96743 5.18599e-19)
(0.137752 1.85541 -6.41467e-19)
(0.17776 1.45763 8.63008e-20)
(0.00178522 3.11904 -1.22986e-18)
(0.014871 3.11845 1.32326e-18)
(-0.00879499 2.98129 5.60566e-19)
(-0.0036329 2.97771 -5.03874e-19)
(-0.0211609 2.88155 -5.70923e-19)
(0.00870141 3.10018 -1.51601e-18)
(0.00244483 3.10546 1.4833e-18)
(0.255311 0.656595 0)
(0.213429 0.645338 -5.87214e-19)
(0.103662 0.217675 2.63344e-19)
(0.33403 0.864359 7.42087e-19)
(0.176705 0.243583 -1.13872e-18)
(1.17292 0.173481 -3.12336e-20)
(1.18256 0.30859 0)
(1.16103 0.121149 9.15721e-20)
(-0.00391139 2.20041 1.57432e-21)
(0.00507317 2.21047 0)
(0.0227555 1.9496 0)
(0.336871 1.25459 -2.71677e-19)
(0.358009 1.07554 -5.80445e-19)
(0.187892 0.337867 1.00816e-18)
(1.00585 -0.0108845 0)
(1.00765 -0.00767751 2.64021e-19)
(-0.229639 1.51158 0)
(-0.236082 1.42377 0)
(1.0022 0.00350595 1.80183e-21)
(1.00373 0.00946743 5.41669e-19)
(-0.0773988 2.18303 4.37968e-20)
(-0.0541168 2.22226 0)
(0.036889 3.18009 1.71427e-19)
(0.397581 3.49483 0)
(1.12941 0.650261 3.81571e-20)
(1.01299 0.0129953 -2.12974e-21)
(1.02118 -0.0105048 0)
(1.00172 0.000163601 9.43011e-23)
(0.104228 1.35383 0)
(0.149753 2.57551 0)
(0.0944056 1.18924 0)
(-3.84523e-05 2.61924 -1.5428e-19)
(-0.03977 2.59431 -1.53565e-19)
(1.00591 0.0292737 2.76197e-21)
(1.05961 -0.000659228 0)
(1.08475 0.0153429 0)
(-0.291661 1.94637 0)
(-0.20746 2.49331 0)
(-0.193559 1.13123 0)
(0.275434 1.46354 -3.81041e-19)
(1.01124 -0.00972756 0)
(1.00934 -0.014985 0)
(1.00246 0.000738854 3.37015e-19)
(1.00548 -0.00485428 -3.96404e-19)
(1.00118 -0.00104654 0)
(-0.356843 1.79704 0)
(-0.285333 1.53688 0)
(-0.30377 1.70182 0)
(-0.203655 1.12912 0)
(-0.252973 1.27734 0)
(-0.183249 1.15246 0)
(1.03425 -0.00676451 0)
(1.02089 0.0155815 -1.00846e-21)
(0.788786 1.25522 4.63735e-19)
(1.00225 0.000363475 -3.35155e-19)
(1.0041 0.00525242 3.95054e-19)
(1.00116 0.00203865 0)
(1.0129 0.0101996 3.30455e-19)
(1.00801 0.00825636 -4.06304e-19)
(1.00864 0.0146292 0)
(-0.190203 2.4858 0)
(-0.115322 2.35987 -2.50223e-19)
(-0.119799 2.36891 2.02648e-19)
(1.20206 0.26076 6.73402e-20)
(1.13941 0.0870328 0)
(0.0466897 3.07728 -5.89167e-19)
(0.0663633 2.85263 -4.56621e-20)
(0.143427 3.1945 9.33169e-19)
(0.138179 3.22366 -4.00267e-20)
(0.136358 3.2366 0)
(0.020952 3.13798 1.3545e-19)
(0.0779457 3.16093 5.76065e-19)
(0.070526 3.18749 -2.59405e-19)
(0.0239546 3.12914 0)
(0.659988 0.310656 0)
(0.576855 0.370325 0)
(1.10133 0.678582 -1.65652e-19)
(1.09823 0.810194 2.75849e-19)
(1.15802 0.569448 0)
(1.18755 0.513506 0)
(1.01617 0.0132865 -6.12879e-19)
(1.01497 0.0142598 7.67005e-19)
(1.02507 -0.0101684 0)
(1.02305 -0.0123605 0)
(1.00653 0.00250356 0)
(1.01042 0.00362514 0)
(1.00436 0.00188933 0)
(1.00976 0.00609035 0)
(1.00792 0.00580587 0)
(1.00452 0.00465794 0)
(0.0935619 1.35156 0)
(0.0881513 1.31748 0)
(0.118336 1.38215 0)
(0.130075 1.4071 0)
(0.146364 2.59816 0)
(0.187749 2.65899 -2.48967e-19)
(0.102272 2.65514 0)
(0.0873392 2.65874 2.36093e-20)
(0.0341542 2.6799 1.38322e-19)
(0.102409 1.14934 0)
(0.0539313 1.02984 0)
(0.0978958 1.2432 0)
(0.011135 1.20068 0)
(0.038135 1.98098 1.95691e-19)
(-0.0539588 2.61294 -2.0505e-19)
(-0.0155962 2.65759 -2.44793e-19)
(-0.0343726 2.6606 0)
(-0.0899925 2.63186 4.35671e-19)
(-0.0981241 2.61624 2.9459e-19)
(-4.04387e-05 2.03681 -1.31109e-19)
(-0.045803 2.47852 2.85557e-19)
(0.000470636 2.46977 2.89922e-19)
(1.01474 0.0348714 6.16008e-19)
(1.00881 0.0189759 -7.58343e-19)
(1.0063 0.0414768 -6.2333e-19)
(0.987617 0.0220099 8.00535e-19)
(1.06052 0.00432846 0)
(1.04683 -0.0103804 0)
(1.08417 0.0233467 0)
(1.06781 0.00530869 0)
(1.06418 -0.0052571 0)
(1.12295 0.076226 0)
(1.09642 0.0383509 0)
(1.09775 0.0304384 0)
(-0.179612 2.24773 1.1702e-20)
(-0.315851 2.12357 0)
(-0.238345 2.12982 0)
(-0.226536 2.58432 -1.84003e-19)
(-0.221149 2.5457 5.51656e-21)
(-0.393101 1.92338 -2.09154e-19)
(-0.339161 1.80942 2.10655e-19)
(-0.334016 1.48604 0)
(-0.352902 1.51361 0)
(-0.344785 1.54602 0)
(-0.166775 1.11222 0)
(-0.0703056 0.958932 0)
(0.372006 1.4762 7.16432e-19)
(0.405509 1.48768 2.90716e-19)
(0.593279 2.44571 -1.72079e-19)
(0.405584 2.53893 4.785e-19)
(0.352803 2.08556 -2.514e-20)
(1.02087 -0.00841234 0)
(1.01543 -0.00990999 0)
(1.01481 -0.0156062 0)
(1.00765 -0.00142113 0)
(1.00498 -0.00105826 0)
(1.00774 -0.00489946 0)
(1.00921 -0.00385087 0)
(1.01411 -0.00454418 0)
(1.02161 0.0157793 5.9015e-19)
(1.01825 0.0157158 -7.59166e-19)
(1.02207 0.0175817 -5.92239e-19)
(1.01957 0.0162912 7.41752e-19)
(0.756824 1.30527 0)
(0.690334 1.35969 5.32892e-19)
(0.86678 1.19951 3.02119e-19)
(0.910285 1.1574 -4.01946e-19)
(1.16045 2.61439 -3.67779e-19)
(0.826765 0.0963374 3.58058e-19)
(1.13961 0.103807 0)
(1.18295 0.186181 -5.04875e-20)
(1.1678 0.158016 -2.01751e-21)
(1.00074 0.129095 0)
(0.139429 2.96347 2.22171e-19)
(0.117379 2.8691 -7.62665e-19)
(0.0291908 2.36814 5.34176e-19)
(0.0941537 0.0289091 -2.27887e-19)
(0.342306 3.42368 -3.91711e-19)
(0.195806 3.31579 0)
(0.238412 3.35815 5.10135e-19)
(0.248457 3.03623 -9.82034e-19)
(0.342987 3.19521 0)
(0.00728144 3.12081 2.99105e-20)
(0.0168384 3.12981 -3.72862e-19)
(0.0154886 3.1258 5.48794e-19)
(0.0367201 3.13991 0)
(0.0352713 3.15099 0)
(1.22019 2.61427 0)
(0.547059 0.841068 -3.03652e-19)
(1.02969 0.98313 -1.60002e-19)
(0.966991 1.05382 0)
(0.813089 0.957287 1.94312e-20)
(1.0525 0.867851 3.02123e-20)
(0.374119 0.417775 -6.0575e-19)
(0.702397 0.32334 -2.2446e-20)
(0.6906 0.253601 2.72314e-19)
(0.591716 0.399248 2.06768e-20)
(0.511904 0.377602 -8.40344e-19)
(0.67023 0.351708 0)
(0.693181 0.433258 4.51153e-19)
(0.699529 0.430808 0)
(0.628685 0.386675 0)
(0.610929 0.319055 0)
(0.77994 0.613574 1.952e-19)
(1.19861 0.278876 -7.10977e-20)
(1.19358 0.414564 0)
(1.208 0.363333 0)
(0.768565 0.202715 4.0176e-19)
(0.825238 0.541484 -2.32828e-19)
(0.731806 0.517506 3.89384e-19)
(0.922315 0.418905 -3.88323e-19)
(1.02001 0.0143952 4.07735e-19)
(1.01794 0.01413 -4.13564e-19)
(1.01598 0.0155874 0)
(1.03559 -0.00640936 0)
(1.02936 -0.00887153 -3.7809e-19)
(1.02705 -0.0126849 3.74224e-19)
(1.02517 0.00932635 0)
(1.02379 0.0129713 0)
(1.01145 0.00390204 0)
(1.01435 0.00880332 0)
(1.0151 0.00367117 0)
(1.01412 0.00272706 0)
(0.0682848 1.33983 0)
(0.0594405 1.28944 0)
(0.153372 1.33724 2.66657e-19)
(0.258592 1.46099 2.15199e-19)
(0.150265 1.43658 4.57028e-19)
(0.179335 1.44367 -7.45827e-19)
(0.172735 1.37349 0)
(0.123672 1.59123 2.04096e-19)
(0.1158 1.56424 0)
(0.350294 2.03986 3.65316e-20)
(0.351538 2.37067 3.08778e-19)
(0.183738 1.43999 -1.78088e-19)
(0.260384 1.36288 1.57059e-19)
(0.192379 1.35384 -1.25779e-19)
(0.267726 1.30137 2.32631e-19)
(0.234305 1.57441 0)
(0.25394 1.61664 -1.43211e-19)
(0.0506775 2.2741 7.6076e-20)
(0.0395523 2.67059 0)
(0.0666254 2.40799 -1.15716e-19)
(0.0485529 2.42625 0)
(0.073084 2.67106 -2.73378e-20)
(0.0454254 2.69872 0)
(0.154665 1.47631 3.0367e-19)
(0.0819786 1.52926 0)
(0.0789992 1.39546 0)
(0.165532 1.38663 -3.42347e-19)
(-0.00415625 2.64539 -2.56346e-20)
(0.0204549 2.69723 -1.86157e-19)
(0.00803421 2.71716 -1.25539e-21)
(0.0986999 2.00751 -2.67648e-19)
(0.101753 1.73114 -9.73948e-20)
(0.0207899 1.01316 0)
(0.00925147 0.917788 0)
(0.0308918 1.58234 -3.50962e-19)
(0.0613001 1.44225 -3.58044e-19)
(0.0672182 1.54844 4.50517e-19)
(0.0334434 1.59668 0)
(-0.269671 2.41294 7.68164e-19)
(-0.241117 2.5953 -2.98234e-19)
(-0.256252 2.57148 8.56539e-20)
(0.0485928 2.02082 3.2461e-19)
(-0.154153 2.59093 1.29427e-19)
(-0.0689849 2.52136 -3.67565e-19)
(1.02066 0.0202231 -4.02474e-19)
(1.0179 0.0254662 4.04417e-19)
(1.01476 0.0168838 0)
(1.01871 0.0596207 5.72293e-19)
(0.996862 0.0512702 -6.62629e-19)
(0.960444 0.0340799 7.5604e-19)
(1.01717 0.0903075 -7.50846e-20)
(1.04189 -0.00657061 0)
(1.04929 -0.00295422 3.47383e-19)
(1.03811 -0.0107694 -3.47828e-19)
(1.06619 0.0323426 -1.97233e-20)
(1.06008 0.0151645 1.73457e-19)
(1.06234 0.0443698 0)
(1.05782 0.0375386 -6.35787e-20)
(1.03493 0.0356804 0)
(1.02895 0.033209 0)
(1.02748 0.0124442 0)
(1.02436 0.0152626 0)
(1.04076 0.0263233 1.31907e-19)
(1.03805 0.0212125 -2.97397e-19)
(1.05234 0.0245268 -1.36582e-19)
(1.04982 0.024511 -1.53639e-19)
(1.07273 0.0523299 2.86318e-19)
(1.08475 0.0446198 0)
(1.09204 0.0919897 0)
(-0.299045 2.39778 2.55129e-19)
(-0.334816 2.16083 1.78292e-20)
(-0.324221 2.2085 0)
(-0.238826 2.41211 -2.52854e-19)
(-0.205775 2.29291 -2.93107e-20)
(-0.21438 2.36772 4.62005e-20)
(-0.149746 2.63894 -2.42565e-19)
(-0.205528 2.61283 2.33644e-20)
(-0.199335 2.59829 -9.78322e-20)
(-0.210476 2.61615 1.60452e-19)
(-0.182266 2.59084 -1.95667e-19)
(-0.401675 1.72513 -2.00776e-20)
(-0.357294 1.95462 -3.80411e-19)
(0.362446 1.40912 -3.50572e-19)
(0.359132 1.35138 -3.12135e-19)
(0.638716 1.40653 -5.15542e-19)
(0.506658 1.47239 -2.81254e-19)
(0.556186 1.44812 0)
(0.58926 2.41999 1.41087e-19)
(0.656433 2.40954 2.47851e-19)
(0.411105 2.51503 7.99577e-20)
(0.404874 2.55665 -2.55067e-19)
(0.515245 2.51209 3.32125e-19)
(0.547029 2.45921 0)
(0.487972 2.50822 -3.9453e-19)
(0.247749 2.58703 7.02618e-19)
(0.353321 2.56287 -8.07983e-20)
(0.285313 2.64629 -1.03534e-18)
(0.932021 2.38473 3.42711e-19)
(0.828841 2.38488 0)
(1.01097 0.000109237 1.34755e-20)
(1.01513 -0.0055131 -1.09167e-20)
(1.01742 -0.00363737 -1.98338e-19)
(1.01474 -0.00106312 1.99499e-19)
(1.01221 0.000748489 0)
(0.625194 1.27452 0)
(0.641298 1.16142 0)
(0.744364 1.06548 0)
(0.634009 1.13295 0)
(1.18767 2.63079 5.67742e-20)
(1.07788 2.3732 0)
(0.845102 2.20959 -5.99237e-22)
(0.827433 2.47177 0)
(0.921304 2.55833 -6.75149e-20)
(0.957891 2.51274 4.50128e-20)
(0.837995 0.146267 0)
(0.806161 0.137927 1.01336e-19)
(0.926033 0.121826 5.41685e-19)
(0.855652 0.119296 -2.12764e-19)
(0.838866 0.0615778 -6.40536e-19)
(1.05496 0.221027 -3.88863e-19)
(0.973103 0.273767 -1.57426e-20)
(0.908209 0.270365 4.98038e-19)
(0.989485 0.202271 3.85844e-19)
(0.943375 0.161108 -6.95624e-19)
(0.915212 0.170304 8.88859e-20)
(0.94142 0.232773 -1.79619e-19)
(0.919259 0.192503 0)
(0.984861 0.162248 3.37422e-19)
(1.03232 0.169267 0)
(1.02689 0.195427 0)
(1.08783 0.112239 1.26313e-19)
(1.05858 0.161171 -1.32691e-20)
(1.04932 0.224812 -6.99685e-20)
(1.08294 0.19493 0)
(1.02584 0.0401778 3.075e-19)
(1.04592 0.0490687 3.71854e-19)
(1.03678 0.0366358 -3.05754e-19)
(1.04827 0.0549945 -2.49904e-19)
(1.02293 0.06291 -4.02811e-19)
(0.985974 0.131658 0)
(1.00298 0.0851616 0)
(0.972483 0.0485501 -2.72239e-19)
(0.926542 0.064134 1.11008e-19)
(1.04045 0.0884362 3.48714e-19)
(1.06285 0.112547 -3.76567e-19)
(1.0667 0.140912 3.4153e-19)
(1.03039 0.128582 0)
(1.07099 0.0988072 0)
(1.05841 0.0784804 -1.55453e-19)
(1.05095 0.0846446 -2.81724e-19)
(0.587712 1.09115 -4.35921e-20)
(0.620545 1.42379 1.45457e-19)
(1.16086 2.74708 2.86819e-20)
(1.22708 3.08678 -5.45016e-20)
(1.25191 2.72922 4.11209e-19)
(1.28296 2.71268 -2.73249e-19)
(1.21126 2.35337 -9.24242e-21)
(1.21407 2.99123 1.30692e-19)
(1.23291 2.95672 -1.15552e-19)
(1.21845 3.24051 -2.4069e-19)
(1.37968 2.9732 3.33013e-19)
(1.37121 2.89129 0)
(0.54579 0.848063 -2.14493e-20)
(0.144748 1.2666 4.161e-19)
(0.525154 0.475088 3.97442e-19)
(0.361976 0.233031 4.3196e-19)
(0.530913 0.406705 4.72424e-19)
(0.540526 0.491506 -7.51435e-19)
(0.542524 0.495007 6.15752e-19)
(0.496987 0.423153 -2.39944e-19)
(0.429023 0.364014 5.50783e-19)
(0.769841 0.257834 -2.26438e-19)
(0.730241 0.289549 0)
(0.726736 0.228798 1.01287e-20)
(0.712865 0.517788 2.33176e-19)
(0.681561 0.491407 -8.57968e-19)
(0.602574 0.488324 1.6502e-20)
(0.61984 0.476257 0)
(0.672294 0.732959 2.04236e-19)
(0.810992 0.7664 1.33135e-19)
(0.740893 0.846544 -1.61858e-19)
(0.854057 0.800175 -4.82937e-20)
(0.88454 0.837644 2.68405e-21)
(0.893089 0.839992 -2.74787e-21)
(0.820078 0.641473 -3.29316e-19)
(0.899119 0.693395 4.4859e-20)
(0.955384 0.704161 0)
(0.944542 0.679067 -5.60585e-20)
(0.999165 0.315105 9.66094e-20)
(1.11121 0.287474 6.68777e-20)
(1.03925 0.257395 1.58928e-19)
(0.978318 0.34814 -2.08686e-19)
(1.02319 0.414506 0)
(1.07828 0.403211 0)
(0.896571 0.351987 5.08207e-21)
(0.837163 0.287202 0)
(0.855674 0.275111 2.48728e-19)
(0.891954 0.277199 -6.3755e-21)
(0.914039 0.421904 1.07028e-18)
(0.87107 0.484168 2.74043e-19)
(0.87594 0.448978 -3.25746e-19)
(0.806822 0.43601 3.49643e-19)
(0.789519 0.43449 2.27376e-19)
(0.758248 0.419817 -2.23249e-19)
(1.0279 -0.000616271 3.25145e-19)
(1.02021 -4.15829e-05 0)
(1.01859 0.000872745 2.13358e-19)
(1.02106 -0.0021602 -4.80865e-19)
(1.02218 0.00416579 2.34078e-19)
(1.02036 0.0107546 -4.90908e-19)
(1.02139 0.0101633 0)
(1.02095 0.0103606 -1.0313e-19)
(1.01606 0.00739962 2.58717e-19)
(1.01681 0.0101316 -1.29282e-19)
(1.01747 0.00943659 9.51101e-20)
(0.0711993 1.30085 0)
(0.0768201 1.3586 0)
(0.053841 1.32339 0)
(0.03958 1.2567 0)
(0.0635438 1.37561 -5.75446e-19)
(0.0865585 1.34154 1.80386e-19)
(0.105348 1.51074 1.25671e-19)
(0.0942488 1.34005 -1.3741e-19)
(0.0433924 1.4616 3.51616e-19)
(0.0372841 1.44919 -2.71708e-19)
(0.0543986 1.36378 -4.73633e-21)
(0.0542287 1.36826 3.50796e-19)
(0.0548522 1.34721 5.16546e-20)
(0.0429386 1.39186 4.6934e-20)
(0.101974 2.38946 1.31512e-19)
(0.0965639 2.42738 0)
(0.164623 2.06535 -8.32795e-21)
(0.101053 1.70941 -7.87817e-20)
(0.228201 2.06359 7.26963e-21)
(0.209738 2.45556 0)
(0.269483 2.409 -2.12224e-19)
(0.301825 2.40979 1.51359e-19)
(0.22744 2.02356 2.08229e-20)
(0.146933 2.18656 2.5665e-20)
(0.146129 2.30842 0)
(0.0208063 1.8705 3.59131e-19)
(-0.00762183 2.39557 3.56145e-19)
(-0.0361414 2.15851 0)
(0.00208227 2.46318 -1.29557e-20)
(0.0102102 2.31214 -1.62777e-19)
(0.14824 1.43428 -6.82177e-20)
(0.122364 1.31651 1.17753e-18)
(0.0850726 1.3909 -3.75319e-19)
(0.153042 1.47738 -3.43676e-19)
(0.15361 1.51379 0)
(0.0723063 1.32311 0)
(-0.098003 1.01805 -4.31146e-19)
(-0.0665922 1.18015 1.39328e-19)
(0.013184 1.2392 0)
(-0.0443095 0.963169 -3.18645e-19)
(-0.0509039 0.915044 6.3325e-19)
(1.04025 0.0106064 0)
(1.04657 0.00648767 -3.26287e-20)
(1.03894 0.0194631 -2.37534e-19)
(1.04754 0.0160937 0)
(1.05158 0.0157223 0)
(1.03518 0.0101589 -6.25077e-21)
(1.03113 0.0106438 3.8713e-19)
(1.03093 0.0149536 4.6959e-19)
(1.02613 0.0188866 0)
(1.02371 0.0197102 0)
(1.03486 0.0219786 2.38438e-19)
(1.02577 0.024994 0)
(1.02569 0.0234909 0)
(-0.186016 2.3032 0)
(-0.328618 2.07229 -4.66416e-20)
(-0.290748 2.19886 -1.74475e-19)
(-0.0604988 1.24304 0)
(-0.268677 1.86675 -3.11939e-19)
(-0.28654 1.60056 1.45879e-19)
(-0.186506 1.2454 0)
(0.393174 1.6953 0)
(0.359474 1.27755 5.0887e-19)
(0.302139 1.33618 0)
(0.413894 1.27422 -6.76942e-19)
(0.459047 1.44516 0)
(0.43933 1.38555 3.19237e-19)
(1.0305 2.70181 -6.74097e-21)
(0.95554 2.41794 -4.32081e-19)
(0.899978 2.18194 4.91159e-19)
(0.840981 2.37797 1.454e-19)
(0.844417 2.51601 0)
(0.913456 2.50967 0)
(0.915252 2.37851 0)
(0.893205 2.36047 -5.56325e-19)
(0.693082 2.49085 -8.91867e-20)
(0.801264 2.48218 -3.01801e-20)
(0.812937 2.45357 2.30959e-20)
(0.69011 2.38809 0)
(0.793927 2.38701 0)
(0.753435 2.39711 -2.56472e-19)
(0.769869 2.50518 0)
(0.604956 1.08333 0)
(0.493743 0.937232 -1.14561e-19)
(0.55714 0.965272 -8.21776e-21)
(0.527752 1.06915 0)
(0.529836 1.02159 1.73989e-19)
(0.763986 0.865384 -1.78289e-20)
(0.770664 1.0037 0)
(0.745956 0.960355 -9.01237e-21)
(0.639169 1.02274 0)
(0.642077 0.937248 0)
(1.16595 2.76924 -6.32452e-21)
(1.14468 2.83273 7.60248e-20)
(0.936958 2.35767 -2.00782e-19)
(0.903656 2.33556 1.02788e-20)
(1.12985 2.74386 0)
(1.08162 2.71494 -1.21611e-20)
(1.08904 2.49565 -1.31118e-19)
(0.98433 2.23706 -3.04046e-20)
(0.500481 1.37246 0)
(0.512161 1.08183 3.84749e-20)
(0.546312 1.15001 0)
(0.860555 0.215303 0)
(0.814849 0.169416 0)
(0.772708 0.151021 0)
(0.852436 0.222293 -3.91316e-19)
(0.789958 0.216669 2.38517e-19)
(0.935743 0.0524869 -2.28098e-19)
(0.951387 0.10021 0)
(0.925491 0.10572 1.00762e-19)
(0.879679 0.0833233 4.09204e-19)
(0.863301 0.0457609 -2.52953e-19)
(1.16605 3.36577 -9.23252e-19)
(1.21353 3.28502 0)
(1.16456 3.39345 -1.83434e-18)
(0.651078 3.55387 1.57136e-18)
(0.87732 3.12024 3.05544e-19)
(0.521622 0.864385 3.19025e-19)
(0.443143 0.862644 0)
(0.345336 0.508224 -9.86036e-20)
(0.44759 0.689004 4.92438e-19)
(0.528181 0.478194 -1.31764e-19)
(0.505442 0.524301 1.52797e-19)
(0.648448 0.543096 3.21944e-19)
(0.67894 0.56538 0)
(0.632404 0.622539 0)
(0.587857 0.563407 0)
(0.950811 0.588899 -2.06491e-20)
(0.872985 0.532532 -2.6576e-19)
(0.898543 0.565714 1.57801e-19)
(0.932358 0.501518 -1.99196e-19)
(1.035 0.473456 0)
(1.04406 0.561613 -2.66962e-20)
(0.833101 0.387957 -5.07991e-19)
(0.837774 0.372963 -5.98698e-19)
(0.78781 0.382197 3.97585e-19)
(0.780752 0.352496 -4.35221e-19)
(0.835955 0.31222 -3.26327e-19)
(0.791201 0.307875 4.01169e-19)
(1.02653 0.00524718 -2.42624e-19)
(1.02621 0.00550055 4.90512e-19)
(1.02921 -0.000867106 3.11827e-19)
(1.033 8.28783e-05 -3.75685e-19)
(1.03318 0.00829971 0)
(1.02974 0.00849957 -6.05968e-19)
(0.0359174 1.65042 -4.47713e-20)
(0.0355596 1.57007 0)
(0.0857219 1.70043 -3.96321e-19)
(0.0887697 1.68385 3.66723e-19)
(0.0908121 1.52574 -2.35739e-19)
(0.0755076 1.48909 0)
(0.0793334 1.98898 0)
(0.063845 1.54717 1.53831e-19)
(-0.0307706 1.48218 -1.39004e-19)
(-0.140719 1.80736 -1.45541e-20)
(-0.129259 2.23933 2.71884e-19)
(-0.0999432 2.21724 -1.02716e-19)
(0.493985 1.38004 2.75576e-19)
(0.488471 1.38572 -2.94789e-19)
(0.436016 1.27346 3.29673e-19)
(0.431718 1.29266 -1.88966e-20)
(0.618754 1.28743 0)
(0.535941 1.37421 4.43718e-19)
(0.550686 1.38341 -4.31857e-19)
(0.442133 1.2619 -3.17496e-19)
(0.496066 1.21732 0)
(0.550916 1.18715 0)
(0.659449 2.44941 1.31074e-19)
(0.669354 2.47715 6.78684e-19)
(0.717992 2.49341 -4.66934e-19)
(0.623054 2.47584 -1.37463e-19)
(0.562429 2.56865 1.35504e-19)
(0.512365 2.5406 -3.8727e-19)
(0.970253 2.38171 -2.68003e-19)
(1.01096 2.39983 0)
(0.914645 2.16238 -3.35887e-19)
(1.05027 2.69548 0)
(1.05237 2.68255 0)
(0.619457 2.27982 1.4903e-19)
(1.04685 3.16734 3.99285e-19)
(0.917791 3.03687 -3.33004e-19)
(0.286282 0.931929 0)
(0.327896 0.794465 -1.94201e-19)
(0.488826 0.750737 -1.335e-19)
(0.393894 2.02745 0)
(0.469114 2.78767 -2.12718e-19)
(0.427139 2.55235 0)
(0.68213 0.684514 -4.27413e-19)
(0.756379 0.676475 5.61935e-19)
(0.774493 0.623747 -5.51912e-19)
(0.660642 0.653756 -6.02247e-20)
(0.710539 0.601763 -2.47898e-19)
(1.0092 2.77201 -3.03595e-19)
(1.04417 2.82699 1.852e-19)
(0.64509 2.16173 2.16452e-19)
(0.605547 1.7265 -1.77539e-19)
(0.706161 1.91743 -5.22972e-21)
(0.995134 2.45561 -7.82591e-20)
(0.998001 2.44891 -5.98849e-20)
(0.670002 1.85729 2.48691e-21)
(0.462874 1.34819 -2.86295e-20)
)
;

boundaryField
{
    wall-4
    {
        type            noSlip;
    }
    velocity-inlet-5
    {
        type            fixedValue;
        value           uniform (1 0 0);
    }
    velocity-inlet-6
    {
        type            fixedValue;
        value           uniform (0 3 0);
    }
    pressure-outlet-7
    {
        type            zeroGradient;
    }
    wall-8
    {
        type            noSlip;
    }
    frontAndBackPlanes
    {
        type            empty;
    }
}


// ************************************************************************* //
