/*--------------------------------*- C++ -*----------------------------------*\
  =========                 |
  \\      /  F ield         | OpenFOAM: The Open Source CFD Toolbox
   \\    /   O peration     | Website:  https://openfoam.org
    \\  /    A nd           | Version:  9
     \\/     M anipulation  |
\*---------------------------------------------------------------------------*/
FoamFile
{
    format      ascii;
    class       volScalarField;
    location    "46";
    object      p;
}
// * * * * * * * * * * * * * * * * * * * * * * * * * * * * * * * * * * * * * //

dimensions      [0 2 -2 0 0 0 0];

internalField   nonuniform List<scalar> 
2200
(
0.777587
0.756086
0.740178
0.724507
0.70989
0.697363
0.686996
0.678882
0.673165
0.670184
0.670625
0.674411
0.680724
0.689267
0.699937
0.712689
0.727466
0.743356
0.759382
0.780885
0.710027
0.706768
0.70384
0.699718
0.694252
0.687773
0.681146
0.675178
0.670655
0.668231
0.668688
0.671958
0.677101
0.68353
0.690491
0.697227
0.702876
0.706993
0.709868
0.713215
0.670113
0.670331
0.672389
0.673732
0.674117
0.673257
0.671269
0.668578
0.666011
0.664493
0.66501
0.66742
0.670669
0.673869
0.676194
0.677199
0.676917
0.675878
0.674184
0.67394
0.647652
0.649101
0.651693
0.654137
0.656568
0.658575
0.659715
0.659926
0.65953
0.659207
0.659796
0.661128
0.662303
0.662668
0.661966
0.660285
0.658121
0.655905
0.653299
0.65189
0.63333
0.635302
0.638114
0.640941
0.643793
0.646609
0.649049
0.650885
0.652083
0.652851
0.65353
0.653949
0.653662
0.652523
0.650632
0.648241
0.645679
0.642961
0.640177
0.638247
0.626007
0.627606
0.629805
0.632329
0.634989
0.637644
0.640218
0.642616
0.6446
0.646064
0.646864
0.646831
0.64595
0.644395
0.642457
0.640279
0.63793
0.635577
0.633475
0.631899
0.622625
0.623647
0.624913
0.626772
0.628902
0.631049
0.633214
0.635471
0.637645
0.639431
0.640394
0.64034
0.639515
0.638258
0.636839
0.635251
0.633531
0.631936
0.630812
0.629795
0.620022
0.620689
0.621317
0.622613
0.62422
0.625891
0.627614
0.629489
0.631485
0.633366
0.634524
0.634747
0.634367
0.633706
0.632888
0.63191
0.630826
0.629883
0.629426
0.628749
0.616888
0.617337
0.617728
0.618708
0.619946
0.621303
0.622768
0.62439
0.626179
0.628057
0.629472
0.630172
0.630342
0.630214
0.629863
0.629334
0.628711
0.628144
0.627941
0.627479
0.612903
0.613201
0.61356
0.614426
0.61553
0.616782
0.618185
0.619742
0.621471
0.623391
0.62512
0.626306
0.626975
0.627258
0.627262
0.627052
0.626687
0.626318
0.626168
0.625847
0.608273
0.608472
0.608838
0.609667
0.610761
0.612066
0.613567
0.615249
0.617128
0.619239
0.621362
0.623027
0.624095
0.624675
0.624877
0.624883
0.624698
0.624457
0.624323
0.624093
0.603242
0.603387
0.603761
0.604567
0.605698
0.60711
0.608803
0.610767
0.612995
0.61553
0.61814
0.620255
0.621639
0.62244
0.622826
0.622934
0.622896
0.622787
0.622687
0.62251
0.597804
0.597912
0.598288
0.599106
0.60033
0.601924
0.603867
0.60617
0.608883
0.612013
0.615201
0.617744
0.61944
0.620493
0.621116
0.621409
0.621549
0.621569
0.621508
0.621356
0.591952
0.592016
0.592397
0.593248
0.594588
0.596359
0.598565
0.601247
0.60447
0.608262
0.612175
0.615335
0.617507
0.618936
0.619867
0.620437
0.620769
0.620905
0.620884
0.620745
0.585657
0.585693
0.586105
0.587
0.588447
0.590391
0.592864
0.595949
0.599793
0.604399
0.609174
0.613078
0.615887
0.617833
0.619174
0.620073
0.620624
0.620897
0.620922
0.620793
0.578854
0.578813
0.579228
0.580205
0.58187
0.58405
0.586834
0.590403
0.594956
0.600516
0.60638
0.611207
0.614722
0.617302
0.619172
0.620453
0.621276
0.621694
0.621769
0.62164
0.571177
0.571154
0.571595
0.572715
0.574592
0.577098
0.58034
0.584505
0.589825
0.596455
0.603577
0.609651
0.614197
0.61754
0.61996
0.621651
0.622748
0.62332
0.623456
0.623322
0.562539
0.56256
0.562963
0.56414
0.566368
0.569326
0.573173
0.578117
0.584447
0.592405
0.601128
0.608697
0.614394
0.618592
0.621658
0.623803
0.625208
0.625941
0.626128
0.625986
0.55255
0.552519
0.553065
0.554498
0.557033
0.560538
0.565236
0.571329
0.579118
0.588846
0.59944
0.608569
0.615499
0.620573
0.6243
0.626986
0.62875
0.62965
0.629889
0.629737
0.540669
0.540591
0.541257
0.5431
0.54624
0.550564
0.556386
0.563991
0.573746
0.585776
0.598544
0.609357
0.617485
0.623626
0.628189
0.63143
0.633555
0.634625
0.634915
0.63475
0.526634
0.526507
0.527257
0.529475
0.533376
0.538792
0.546058
0.555515
0.567566
0.582275
0.597673
0.61063
0.620425
0.627817
0.63327
0.637212
0.639774
0.64103
0.641373
0.641181
0.509553
0.509454
0.510425
0.513111
0.517893
0.524654
0.533745
0.545491
0.560292
0.578157
0.596778
0.612393
0.624167
0.633023
0.639639
0.644394
0.647469
0.648943
0.649339
0.64911
0.488337
0.488172
0.48945
0.492921
0.49907
0.507814
0.519476
0.534369
0.552707
0.574338
0.59654
0.615025
0.628971
0.639478
0.647336
0.653096
0.656756
0.658436
0.658861
0.658575
0.460713
0.460718
0.462765
0.467646
0.476072
0.487933
0.503417
0.522595
0.545442
0.571587
0.59773
0.619189
0.635269
0.64742
0.65662
0.663303
0.667476
0.669328
0.669749
0.669405
0.423766
0.424005
0.427525
0.435325
0.447759
0.464577
0.485345
0.509962
0.538199
0.569513
0.599994
0.624624
0.643014
0.656902
0.66739
0.674965
0.679558
0.681495
0.681868
0.681462
0.374273
0.374684
0.381653
0.394657
0.413464
0.437368
0.465112
0.496336
0.530774
0.567866
0.603084
0.63107
0.651835
0.667564
0.679465
0.68792
0.692778
0.694606
0.694791
0.69441
0.308582
0.311386
0.326501
0.347745
0.375374
0.408025
0.443777
0.482389
0.523715
0.567172
0.607695
0.639715
0.663674
0.681866
0.695604
0.705439
0.710813
0.712554
0.712559
0.712379
0.233666
0.243191
0.268338
0.299335
0.337008
0.378668
0.422565
0.468887
0.517527
0.567874
0.614598
0.651464
0.678962
0.700017
0.716161
0.727485
0.733343
0.734791
0.734732
0.734761
0.166602
0.181468
0.212963
0.25276
0.299925
0.350453
0.402397
0.456532
0.512575
0.569867
0.622163
0.663396
0.694254
0.717824
0.735655
0.748204
0.754568
0.756229
0.756571
0.756552
0.115463
0.128739
0.165611
0.211586
0.2661
0.324091
0.383433
0.444811
0.507657
0.571224
0.629031
0.674483
0.708397
0.734266
0.753874
0.76774
0.774567
0.776805
0.777054
0.77714
0.073328
0.0858834
0.126396
0.176271
0.236194
0.300099
0.365829
0.433637
0.502825
0.572644
0.636118
0.68508
0.721528
0.749381
0.770277
0.784904
0.792381
0.794973
0.795252
0.795354
0.0369808
0.0497915
0.0931153
0.145858
0.210008
0.278615
0.349737
0.423225
0.498198
0.573709
0.641492
0.694132
0.733122
0.762371
0.784463
0.799617
0.807424
0.810322
0.810695
0.810799
0.00524277
0.0182169
0.0636039
0.118924
0.186696
0.259279
0.335012
0.413375
0.493244
0.573638
0.646133
0.702197
0.742796
0.77348
0.796048
0.811667
0.819988
0.823077
0.823605
0.823683
-0.0232696
-0.010182
0.0368102
0.0945426
0.165506
0.241498
0.321143
0.403675
0.488083
0.573478
0.650459
0.708723
0.751268
0.782728
0.805818
0.821757
0.830284
0.833683
0.834297
0.834359
-0.0493832
-0.0362546
0.0119505
0.0720678
0.145795
0.224732
0.307788
0.394078
0.482752
0.572408
0.652722
0.71414
0.758287
0.790655
0.814225
0.830261
0.839276
0.842748
0.843458
0.843463
-0.0738867
-0.0604838
-0.0113426
0.0509624
0.127086
0.208652
0.294779
0.384429
0.476748
0.5703
0.654856
0.719243
0.764568
0.797792
0.821783
0.837968
0.846876
0.85051
0.851151
0.851011
-0.0969701
-0.0833351
-0.0333613
0.0308567
0.109067
0.193008
0.281849
0.374416
0.470016
0.56758
0.656056
0.722901
0.770376
0.804496
0.828697
0.844804
0.853642
0.857154
0.857861
0.857708
-0.118786
-0.105089
-0.0543723
0.0114927
0.0915338
0.177589
0.268802
0.364005
0.462753
0.563976
0.656199
0.726564
0.776108
0.810811
0.835232
0.851195
0.85979
0.863255
0.863885
0.863803
-0.139669
-0.125854
-0.0745398
-0.00729516
0.0743107
0.162263
0.255638
0.353284
0.454921
0.559535
0.655844
0.729741
0.781315
0.817365
0.841756
0.85737
0.865809
0.868999
0.869611
0.869507
-0.160051
-0.145788
-0.0940123
-0.0255894
0.057366
0.147016
0.242364
0.342237
0.446493
0.554396
0.654664
0.732084
0.786496
0.823987
0.848686
0.863885
0.871649
0.874556
0.87499
0.874894
-0.180064
-0.165071
-0.112879
-0.0434182
0.040695
0.131841
0.228947
0.330817
0.437442
0.548439
0.652561
0.733774
0.791517
0.831108
0.856384
0.870849
0.877758
0.879797
0.880075
0.879951
-0.199622
-0.183862
-0.131232
-0.0608068
0.0243167
0.116749
0.215377
0.319039
0.427872
0.541703
0.649431
0.734722
0.796256
0.838689
0.865222
0.878938
0.884161
0.884756
0.884662
0.884552
-0.218598
-0.202224
-0.1491
-0.0777628
0.00823952
0.101766
0.201706
0.306996
0.417884
0.534183
0.645098
0.73469
0.800482
0.846711
0.875607
0.888915
0.891923
0.889407
0.888815
0.889635
-0.23694
-0.220121
-0.166478
-0.0942823
-0.00749761
0.0869655
0.188034
0.294762
0.407438
0.525834
0.639523
0.733335
0.803833
0.854783
0.887621
0.901998
0.902749
0.896123
0.890896
0.889332
-0.254633
-0.237467
-0.183304
-0.110323
-0.0228429
0.0724201
0.174439
0.282357
0.396502
0.516727
0.632949
0.730462
0.805767
0.862627
0.901033
0.919104
0.92144
0.909191
0.907639
0.911914
-0.271674
-0.254175
-0.199513
-0.125832
-0.0377354
0.0581978
0.160976
0.269833
0.385174
0.506998
0.625298
0.725739
0.806005
0.869061
0.914825
0.939904
0.946726
0.918391
0.877119
0.840356
-0.288008
-0.270246
-0.215118
-0.140862
-0.0522743
0.0441623
0.147483
0.257019
0.373288
0.496421
0.616314
0.719118
0.803437
0.873027
0.927791
0.96341
0.98506
0.969882
0.986708
1.04375
-0.303588
-0.285717
-0.230213
-0.155554
-0.0666413
0.030087
0.133693
0.243617
0.360471
0.484445
0.605316
0.709614
0.796885
0.871617
0.931569
0.97137
0.98645
0.967866
0.928086
0.941839
-0.318391
-0.300573
-0.244749
-0.169849
-0.0807602
0.0160735
0.119756
0.229801
0.346839
0.47107
0.592444
0.697291
0.784778
0.86048
0.9206
0.959205
0.950336
0.898738
0.835755
0.823791
-0.332405
-0.314801
-0.25874
-0.183761
-0.0946281
0.00213851
0.105703
0.215597
0.332406
0.456389
0.577604
0.681456
0.766788
0.837602
0.891657
0.90297
0.869761
0.794632
0.720939
0.700123
-0.345672
-0.328407
-0.272196
-0.197303
-0.108265
-0.0117286
0.0915361
0.201018
0.317218
0.440396
0.560581
0.66231
0.741925
0.8008
0.830288
0.819143
0.763862
0.663344
0.576675
0.555413
-0.358648
-0.34179
-0.285522
-0.210855
-0.122027
-0.0258414
0.0769756
0.185828
0.30111
0.422971
0.541117
0.639035
0.711312
0.754512
0.75004
0.716387
0.607791
0.48645
0.379777
0.353448
-0.372233
-0.355759
-0.299412
-0.225037
-0.136495
-0.0406989
0.061593
0.169684
0.283821
0.403824
0.518995
0.611736
0.676668
0.695882
0.662587
0.576563
0.421792
0.270073
0.141649
0.114724
-0.386948
-0.370705
-0.314199
-0.240099
-0.151853
-0.0564352
0.045295
0.152532
0.265325
0.383019
0.494277
0.581145
0.635119
0.62683
0.574313
0.426146
0.227079
0.0151055
-0.164485
-0.212257
-0.402904
-0.386739
-0.329926
-0.256048
-0.168083
-0.073032
0.0281043
0.1344
0.245661
0.360593
0.466781
0.548112
0.587108
0.547787
0.460953
0.273645
0.0425726
-0.246032
-0.567478
-0.714427
-0.420176
-0.403928
-0.346732
-0.272993
-0.18524
-0.0905439
0.00996185
0.115221
0.224771
0.336648
0.437059
0.512231
0.533949
0.464043
0.328269
0.122657
-0.111791
-0.456137
-1.04419
-1.61685
-0.438845
-0.422398
-0.364663
-0.290969
-0.203344
-0.10897
-0.00910303
0.0950751
0.202836
0.311564
0.406121
0.473545
0.477589
0.390286
0.199766
-0.0345515
-0.238045
-0.473886
-1.03237
-2.55524
-0.458929
-0.442174
-0.383851
-0.310132
-0.222554
-0.128502
-0.0293222
0.0736846
0.179517
0.284906
0.373649
0.43149
0.416111
0.332319
0.106192
-0.132819
-0.281455
-0.319605
-0.31109
-0.700696
-0.48037
-0.463511
-0.404433
-0.330744
-0.243273
-0.149645
-0.051324
0.0502912
0.153897
0.255392
0.338757
0.386409
0.355242
0.283843
0.0565935
-0.147264
-0.258805
-0.267048
-0.214125
-0.254748
-0.502963
-0.486185
-0.426437
-0.352905
-0.265579
-0.172514
-0.0752455
0.024733
0.125762
0.222773
0.301443
0.339404
0.301498
0.23133
0.0243038
-0.13797
-0.22039
-0.227919
-0.275696
-0.280414
-0.526738
-0.510049
-0.449721
-0.376569
-0.289458
-0.197132
-0.101134
-0.00304778
0.0950813
0.187542
0.261648
0.290254
0.25476
0.171571
-0.00339643
-0.128331
-0.199047
-0.174242
-0.195339
-0.19693
-0.551454
-0.53459
-0.474241
-0.401685
-0.314759
-0.223412
-0.128889
-0.0329139
0.0620069
0.149999
0.219398
0.237791
0.214033
0.10407
-0.0382547
-0.123144
-0.164057
-0.209068
-0.184687
-0.192945
-0.576861
-0.559578
-0.499804
-0.428005
-0.341253
-0.251193
-0.158333
-0.0646608
0.0266804
0.110431
0.175795
0.184091
0.171585
0.0431742
-0.0751602
-0.140471
-0.121
-0.180292
-0.160262
-0.165058
-0.602059
-0.584541
-0.526283
-0.455194
-0.368608
-0.280222
-0.18916
-0.0979264
-0.0106403
0.0692376
0.131892
0.132958
0.121024
-0.0088698
-0.10322
-0.156231
-0.142195
-0.159951
-0.164553
-0.163235
-0.626633
-0.609263
-0.552833
-0.482483
-0.396493
-0.310112
-0.220946
-0.132318
-0.0494303
0.0267669
0.0877979
0.0848761
0.0645626
-0.0528519
-0.118696
-0.151128
-0.185353
-0.160261
-0.167048
-0.162108
-0.649598
-0.632944
-0.578422
-0.509056
-0.424524
-0.34031
-0.253158
-0.167226
-0.0887649
-0.0166325
0.0437807
0.0402122
0.00996799
-0.0895999
-0.135449
-0.126904
-0.194404
-0.147171
-0.160663
-0.15363
-0.670266
-0.654718
-0.602061
-0.533974
-0.452232
-0.369975
-0.285055
-0.202024
-0.127657
-0.0604493
-0.00100868
-0.00236892
-0.038557
-0.109057
-0.148782
-0.113526
-0.160656
-0.136578
-0.14148
-0.139113
-0.687109
-0.673167
-0.623017
-0.556738
-0.478416
-0.398153
-0.315842
-0.235853
-0.165023
-0.103767
-0.0455858
-0.0453614
-0.0779644
-0.112308
-0.141561
-0.126851
-0.136225
-0.136518
-0.134213
-0.133557
-0.699247
-0.687357
-0.640243
-0.576431
-0.501687
-0.423822
-0.344428
-0.267673
-0.199916
-0.145204
-0.0884954
-0.0870861
-0.11969
-0.112579
-0.113535
-0.128907
-0.121545
-0.141082
-0.137471
-0.139406
-0.705332
-0.69581
-0.652714
-0.591849
-0.520509
-0.445841
-0.369738
-0.296331
-0.23133
-0.182724
-0.127775
-0.127008
-0.17362
-0.141733
-0.0598058
-0.0814887
-0.0892779
-0.126222
-0.140962
-0.146007
-0.705152
-0.697732
-0.658742
-0.60147
-0.533939
-0.462851
-0.390317
-0.320266
-0.258288
-0.213639
-0.161918
-0.163438
-0.233716
-0.247917
-0.174151
-0.209595
-0.227198
-0.235706
-0.236382
-0.235081
-0.697792
-0.690536
-0.65666
-0.604047
-0.540763
-0.473718
-0.404882
-0.337815
-0.278086
-0.235403
-0.189432
-0.198024
-0.311168
-0.490797
-0.695994
-0.807703
-0.825934
-0.767718
-0.706285
-0.660292
-0.678674
-0.670653
-0.643996
-0.598117
-0.540217
-0.477502
-0.412301
-0.34737
-0.287934
-0.244686
-0.203524
-0.204333
-0.354569
-0.641611
-1.01768
-1.18261
-1.19205
-1.13406
-1.05874
-0.996098
-0.639739
-0.632264
-0.61958
-0.583974
-0.532207
-0.473893
-0.412179
-0.347839
-0.285288
-0.23632
-0.193904
-0.160209
-0.220457
-0.341861
-0.517413
-0.557052
-0.485311
-0.414806
-0.315612
-0.262343
-0.595443
-0.59197
-0.589718
-0.5623
-0.518282
-0.464429
-0.404521
-0.339191
-0.270031
-0.20595
-0.148004
-0.0456448
0.0892118
0.318007
0.516541
0.707323
0.864988
0.962302
1.00909
1.0515
-0.569164
-0.569964
-0.562344
-0.542191
-0.503771
-0.451997
-0.391328
-0.323645
-0.245225
-0.157402
-0.0660597
0.0902368
0.339029
0.726013
1.10573
1.41276
1.619
1.73818
1.79359
1.81074
-0.537263
-0.538384
-0.532477
-0.523862
-0.490456
-0.44004
-0.376786
-0.305144
-0.219841
-0.116618
-0.00470892
0.140312
0.40887
0.760357
1.10719
1.40029
1.61181
1.73669
1.79361
1.81086
-0.509357
-0.508285
-0.508051
-0.504247
-0.478218
-0.430465
-0.365277
-0.288847
-0.200466
-0.0930734
0.0219903
0.129003
0.366067
0.668347
0.957989
1.20704
1.40272
1.52144
1.57504
1.59024
-0.494124
-0.491565
-0.492793
-0.487368
-0.469182
-0.423132
-0.356129
-0.277172
-0.189531
-0.087927
0.0208403
0.0941231
0.281426
0.5343
0.767049
0.96468
1.12545
1.22446
1.26831
1.27961
-0.490253
-0.488129
-0.489268
-0.488261
-0.471983
-0.419041
-0.348773
-0.269238
-0.18529
-0.0958006
0.00600111
0.0609274
0.197174
0.401347
0.585135
0.736145
0.858285
0.935733
0.969919
0.978812
-0.493666
-0.493987
-0.497341
-0.501875
-0.481047
-0.416124
-0.341725
-0.262177
-0.182338
-0.106562
-0.011498
0.0354314
0.12658
0.286768
0.431178
0.544462
0.633217
0.690934
0.715748
0.720975
-0.474121
-0.476081
-0.482241
-0.48626
-0.460917
-0.396116
-0.325318
-0.249709
-0.175497
-0.112636
-0.0261885
0.0180889
0.0756127
0.196795
0.307119
0.390225
0.453843
0.495534
0.512701
0.518546
-0.403781
-0.406717
-0.413859
-0.41498
-0.393174
-0.344911
-0.288772
-0.225689
-0.1606
-0.109739
-0.0358197
0.00528982
0.0424105
0.133809
0.214133
0.273215
0.319234
0.351941
0.363622
0.366859
-0.291944
-0.295225
-0.298494
-0.299548
-0.287097
-0.260858
-0.227172
-0.185476
-0.136074
-0.0975734
-0.0397435
-0.00410627
0.0209437
0.0908606
0.148427
0.189236
0.222644
0.244435
0.254369
0.257287
-0.176327
-0.178096
-0.180221
-0.182487
-0.179262
-0.170526
-0.156629
-0.135358
-0.105556
-0.0787769
-0.0386433
-0.01037
0.00773851
0.0615596
0.101819
0.129241
0.150659
0.163521
0.169401
0.170757
-0.0821713
-0.0831996
-0.085151
-0.0890437
-0.092717
-0.0951777
-0.0942501
-0.0875227
-0.0737584
-0.0583314
-0.0339939
-0.0138508
-0.000704886
0.0401854
0.0669461
0.0846507
0.0969269
0.102839
0.104171
0.103834
-0.0176015
-0.0184029
-0.0201485
-0.0252112
-0.0333075
-0.0417837
-0.0476558
-0.0493953
-0.0459314
-0.0400183
-0.0269775
-0.0138327
-0.0040428
0.0216581
0.0386971
0.0495529
0.0557061
0.0570258
0.056134
0.0549569
0.0191478
0.0185548
0.016988
0.0116619
0.00220605
-0.00843138
-0.0174913
-0.0234918
-0.0254113
-0.0258121
-0.0193537
-0.0122368
-0.00528426
0.00798496
0.016772
0.0220339
0.0244388
0.023698
0.021973
0.0205806
0.0366171
0.0361204
0.0347223
0.0298339
0.0208935
0.0102718
0.00027089
-0.00769473
-0.0122299
-0.0156079
-0.012728
-0.00967636
-0.00655296
-0.000798913
0.00261159
0.00419393
0.00403
0.00246425
0.000487035
-0.0010012
0.0422594
0.0418952
0.0407908
0.0368269
0.029364
0.0200014
0.0104396
0.00177666
-0.00383755
-0.00844351
-0.00765381
-0.00745347
-0.00778198
-0.00545291
-0.00488026
-0.00518883
-0.00667128
-0.00896978
-0.0109817
-0.0123854
0.0412249
0.0409649
0.040119
0.0371575
0.0315303
0.0241911
0.0161691
0.0080456
0.00228273
-0.00326942
-0.00384759
-0.0053435
-0.00783839
-0.00705887
-0.00739217
-0.00861708
-0.0109346
-0.0134028
-0.0152474
-0.0165314
0.0371703
0.0369811
0.0363574
0.0342578
0.0302024
0.0248522
0.0186244
0.0118066
0.00664563
0.000517639
-0.00132386
-0.00303046
-0.00537262
-0.00521081
-0.00647127
-0.00855695
-0.0106565
-0.0124516
-0.013833
-0.0150208
0.0321157
0.0319749
0.0315069
0.0300471
0.0272154
0.0233655
0.0186956
0.0133081
0.00905874
0.00314575
0.0009135
-0.000826702
-0.00280295
-0.00231746
-0.00366031
-0.00564594
-0.00765025
-0.00941098
-0.0103535
-0.0112608
0.0272137
0.0270958
0.0267663
0.0257158
0.0236837
0.0208689
0.0173118
0.0131049
0.00997745
0.00512298
0.00306433
0.00177663
0.000316306
0.000237126
-0.000937255
-0.0023659
-0.003696
-0.00454712
-0.00486626
-0.00569578
0.0229021
0.0228193
0.0225819
0.0218696
0.0204594
0.0183572
0.015704
0.012369
0.0100468
0.00620124
0.00477137
0.00334879
0.00256287
0.00290076
0.0023663
0.0017088
0.00137244
0.00132919
0.00134803
0.000550429
0.0190293
0.0189732
0.0188111
0.0183467
0.0173719
0.0158435
0.0139538
0.011475
0.00974413
0.00663815
0.00596048
0.00484489
0.00365131
0.00415664
0.00496026
0.00533051
0.00560321
0.00579575
0.00599292
0.00529766
0.0155041
0.0154618
0.015351
0.0150729
0.0143921
0.0133469
0.0119848
0.0100946
0.00891162
0.0066461
0.00610164
0.0057744
0.00510381
0.00533516
0.00632804
0.00742099
0.00807463
0.00833556
0.00864396
0.00804858
0.0120568
0.0120173
0.0119333
0.0118014
0.0114037
0.010758
0.00988824
0.00853992
0.00771753
0.0060107
0.0060456
0.00528429
0.00497491
0.0061205
0.00700707
0.00861805
0.00996592
0.0106452
0.0109509
0.0102311
0.00891281
0.00884312
0.0087579
0.00868263
0.00841822
0.00809868
0.00751276
0.0065496
0.00623893
0.00498062
0.00516697
0.0041457
0.00399541
0.00557379
0.00717158
0.00925306
0.0112129
0.0121902
0.012514
0.011779
0.00613145
0.00607114
0.00599977
0.00595949
0.00584953
0.00568105
0.00527454
0.00464419
0.00461142
0.00359243
0.00363637
0.0024018
0.00208119
0.00384049
0.00601069
0.00832283
0.0107549
0.011909
0.0120894
0.0113043
0.00370638
0.00364087
0.00359906
0.00353537
0.00339771
0.00327594
0.00317052
0.00281992
0.00294626
0.00208383
0.00281551
0.00124244
0.000105232
0.00148842
0.00329
0.00519083
0.00714595
0.00844723
0.00894588
0.00823317
0.00167832
0.00163678
0.00161204
0.00149761
0.00125091
0.00118388
0.00134862
0.00110761
0.00138806
0.000675032
0.00189098
0.00158898
0.000783238
0.00080734
0.000533609
-0.000390102
-0.0010589
-0.00139403
-0.000785679
-0.000908546
-1.07692
-0.233738
0.0363318
0.313652
0.496706
0.654239
0.78272
0.91354
1.05641
1.13743
-0.0936042
0.314595
0.332308
0.521384
0.646791
0.759262
0.856225
0.942423
0.970121
0.927752
0.28572
0.500517
0.536816
0.673749
0.760658
0.841322
0.907787
0.957617
0.959891
0.973757
0.51675
0.660711
0.696176
0.798917
0.855966
0.914421
0.95951
0.992015
1.00118
1.0248
0.695925
0.798127
0.827906
0.896345
0.940778
0.982295
1.01461
1.03898
1.04885
1.08038
0.840031
0.909295
0.939694
0.983008
1.01925
1.0496
1.07405
1.09483
1.10905
1.13728
0.959712
1.01053
1.03619
1.06437
1.09222
1.11612
1.13618
1.15546
1.17039
1.19684
1.06382
1.10097
1.12215
1.14293
1.16385
1.18333
1.20077
1.21888
1.23376
1.2574
1.15806
1.18726
1.20368
1.21902
1.2352
1.2513
1.26685
1.28376
1.29736
1.31967
1.24653
1.26703
1.28192
1.29513
1.30871
1.32248
1.33596
1.35054
1.36209
1.38173
1.33209
1.3479
1.36173
1.37353
1.38542
1.39704
1.40817
1.41986
1.42752
1.44433
1.41736
1.42991
1.44361
1.45532
1.46594
1.47572
1.48453
1.4928
1.49636
1.50762
1.50607
1.51687
1.53033
1.53986
1.54742
1.5547
1.56189
1.5684
1.56947
1.57686
1.60443
1.60901
1.61721
1.62198
1.62538
1.62987
1.63587
1.64356
1.64743
1.65731
1.71771
1.70461
1.69733
1.6916
1.68888
1.69023
1.69661
1.70898
1.72378
1.75344
1.83971
1.78369
1.75266
1.73547
1.72726
1.72721
1.73601
1.7556
1.78747
1.8567
)
;

boundaryField
{
    wall-4
    {
        type            zeroGradient;
    }
    pressure-outlet-7
    {
        type            fixedValue;
        value           uniform 0;
    }
    velocity-inlet-6
    {
        type            zeroGradient;
    }
    velocity-inlet-5
    {
        type            zeroGradient;
    }
    frontAndBackPlanes
    {
        type            empty;
    }
}


// ************************************************************************* //
