/*--------------------------------*- C++ -*----------------------------------*\
  =========                 |
  \\      /  F ield         | OpenFOAM: The Open Source CFD Toolbox
   \\    /   O peration     | Website:  https://openfoam.org
    \\  /    A nd           | Version:  9
     \\/     M anipulation  |
\*---------------------------------------------------------------------------*/
FoamFile
{
    format      ascii;
    class       surfaceScalarField;
    location    "46";
    object      phi;
}
// * * * * * * * * * * * * * * * * * * * * * * * * * * * * * * * * * * * * * //

dimensions      [0 3 -1 0 0 0 0];

internalField   nonuniform List<scalar> 
4262
(
0.107139
0.47085
0.0955767
0.705148
0.0693947
0.858485
0.0473785
1.02078
0.0309998
1.2149
0.0198062
1.44941
0.0124373
1.73323
0.00728197
2.07619
0.00338092
2.48914
-0.00019181
2.98586
-0.00376411
2.98586
-0.00765601
2.48914
-0.0127787
2.07616
-0.0200771
1.73316
-0.0311036
1.44925
-0.0472232
1.21464
-0.0690188
1.02056
-0.0952657
0.85855
-0.107083
0.705403
0.470905
0.112888
0.357962
0.135303
0.682733
0.120408
0.87338
0.0978738
1.04331
0.0746545
1.23811
0.0529328
1.47113
0.0344815
1.75168
0.020202
2.09047
0.00884626
2.5005
-0.00134651
2.99606
-0.0114987
2.99602
-0.0226211
2.50026
-0.0366471
2.09019
-0.0547241
1.75124
-0.0763697
1.47089
-0.0999839
1.23825
-0.123031
1.04361
-0.136795
0.872314
-0.113494
0.682102
0.357412
0.0920908
0.265871
0.125063
0.649761
0.121229
0.877214
0.10497
1.05957
0.0863348
1.25675
0.0672573
1.49021
0.0483813
1.77056
0.0303823
2.10847
0.0139195
2.51696
-0.00194586
3.01192
-0.0176801
3.01175
-0.0338887
2.51647
-0.0514563
2.10775
-0.0700017
1.76978
-0.088486
1.48938
-0.105879
1.25564
-0.120244
1.05797
-0.125335
0.877405
-0.0923694
0.649137
0.265042
0.064012
0.201859
0.104876
0.608897
0.106679
0.875412
0.0953035
1.07095
0.0813706
1.27068
0.0666212
1.50496
0.0505459
1.78664
0.03344
2.12558
0.015707
2.5347
-0.00305306
3.03068
-0.0215021
3.0302
-0.0386216
2.53359
-0.0550261
2.12416
-0.0703195
1.78508
-0.0841982
1.50325
-0.0978757
1.26932
-0.109614
1.06971
-0.10675
0.874541
-0.064778
0.607164
0.200264
0.0375236
0.164335
0.0808569
0.565563
0.091238
0.865031
0.0841244
1.07806
0.0715367
1.28327
0.0596521
1.51685
0.0466634
1.79962
0.0318074
2.14043
0.0150524
2.55145
-0.00393456
3.04967
-0.0226775
3.04894
-0.038746
2.54965
-0.0527346
2.13815
-0.064977
1.79732
-0.0764275
1.51471
-0.088454
1.28135
-0.0948134
1.07607
-0.0830585
0.862786
-0.0383241
0.56243
0.16194
0.0195183
0.144817
0.0573503
0.527731
0.0727622
0.849619
0.070694
1.08013
0.0620198
1.29194
0.0512619
1.5276
0.0400545
1.81083
0.027422
2.15306
0.0123184
2.56655
-0.00535296
3.06734
-0.0225593
3.06615
-0.0367301
2.56383
-0.0483701
2.14979
-0.0585288
1.80748
-0.0682837
1.52446
-0.075915
1.28898
-0.0768028
1.07696
-0.0598206
0.845804
-0.0203302
0.522939
0.14161
0.0106737
0.134143
0.0425323
0.495873
0.0588307
0.83332
0.0592404
1.07972
0.0531515
1.29803
0.0438704
1.53689
0.0335662
1.82114
0.0222385
2.16439
0.0091735
2.57962
-0.00662508
3.08314
-0.0220784
3.0816
-0.0341903
2.57594
-0.0441172
2.15971
-0.0529803
1.81634
-0.0609887
1.53247
-0.0656721
1.29366
-0.0638084
1.07509
-0.0455907
0.827586
-0.0116129
0.488962
0.129997
0.00662471
0.127518
0.0330823
0.469415
0.0494013
0.817001
0.0509959
1.07812
0.0460346
1.30299
0.0377863
1.54513
0.0282585
1.83066
0.017447
2.1752
0.00538328
2.59168
-0.00849693
3.09702
-0.0218153
3.09492
-0.0325233
2.58664
-0.0417967
2.16899
-0.0495289
1.82407
-0.0560594
1.539
-0.0592983
1.2969
-0.0558242
1.07162
-0.0369255
0.808688
-0.00779154
0.459828
0.122206
0.00474964
0.122769
0.0267388
0.447426
0.0426752
0.801065
0.0448464
1.07595
0.0402806
1.30756
0.0327611
1.55265
0.0238909
1.83953
0.0136316
2.18546
0.0021409
2.60317
-0.0105787
3.10974
-0.0224832
3.10683
-0.0323726
2.59653
-0.0405794
2.17719
-0.0474674
1.83096
-0.0530903
1.54462
-0.0556483
1.29946
-0.0508807
1.06685
-0.0315241
0.789331
-0.00622611
0.43453
0.115979
0.00385376
0.118915
0.0220363
0.429243
0.0374862
0.785615
0.0404189
1.07302
0.0360959
1.31188
0.0287237
1.56003
0.0200285
1.84823
0.0101648
2.19533
-0.000844168
2.61418
-0.0129369
3.12183
-0.0242992
3.11819
-0.0334091
2.60564
-0.0408625
2.18465
-0.0469548
1.83705
-0.0518068
1.54947
-0.0532757
1.30093
-0.0471524
1.06073
-0.0276518
0.769831
-0.00558105
0.412459
0.110398
0.00310588
0.115809
0.0176671
0.414682
0.0317391
0.771543
0.0349654
1.06979
0.031182
1.31567
0.0243959
1.56681
0.0161583
1.85647
0.00646149
2.20502
-0.00465364
2.6253
-0.0166332
3.13381
-0.0272841
3.12884
-0.0355736
2.61393
-0.0422418
2.19131
-0.0475958
1.84241
-0.0514092
1.55329
-0.051752
1.30127
-0.0442983
1.05327
-0.0247469
0.750279
-0.00526526
0.392977
0.105133
0.00240896
0.1134
0.0140469
0.403044
0.0269087
0.758681
0.0302892
1.06641
0.0265785
1.31938
0.0198886
1.5735
0.0117567
1.8646
0.0023799
2.2144
-0.00809043
2.63577
-0.0196085
3.14533
-0.0301683
3.1394
-0.0382023
2.62197
-0.0439244
2.19704
-0.0482322
1.84672
-0.0510546
1.55611
-0.0505293
1.30074
-0.0418213
1.04457
-0.0224703
0.730928
-0.00504244
0.375549
0.100091
0.00172127
0.111679
0.0105764
0.394189
0.0215598
0.747698
0.0245325
1.06344
0.0208949
1.32302
0.0143053
1.58009
0.00618691
1.87272
-0.0031167
2.2237
-0.0138061
2.64646
-0.0252956
3.15682
-0.0348278
3.14893
-0.0413599
2.6285
-0.0461078
2.20178
-0.0496062
1.85021
-0.0512971
1.5578
-0.049909
1.29936
-0.040189
1.03485
-0.0209008
0.71164
-0.00488461
0.359533
0.095206
0.0009338
0.110745
0.0072989
0.387824
0.0166085
0.738388
0.0189606
1.06109
0.0147568
1.32722
0.00778476
1.58706
-0.000410941
1.88091
-0.00968245
2.23298
-0.0195385
2.65631
-0.0297294
3.16701
-0.0383636
3.15756
-0.0442471
2.63438
-0.0480269
2.20556
-0.0508848
1.85307
-0.0520649
1.55898
-0.049964
1.29726
-0.0391328
1.02402
-0.0198159
0.692323
-0.00480342
0.344521
0.0904026
0.000158755
0.110586
0.00412469
0.383858
0.010949
0.731564
0.012316
1.05972
0.00784672
1.33169
0.000557646
1.59435
-0.00805625
1.88953
-0.0172912
2.24221
-0.0273588
2.66638
-0.0379084
3.17756
-0.0456444
3.1653
-0.0497538
2.63849
-0.0523345
2.20814
-0.0541726
1.85491
-0.0542355
1.55904
-0.05071
1.29373
-0.0387097
1.01201
-0.0192025
0.672816
-0.00478631
0.330105
0.0856163
-0.000790767
0.111377
0.000528899
0.382538
0.00549532
0.726597
0.00610393
1.05911
0.000961038
1.33683
-0.00708777
1.6024
-0.0163157
1.89875
-0.0261749
2.25207
-0.0360667
2.67627
-0.045228
3.18672
-0.0519267
3.172
-0.0554958
2.64206
-0.0572021
2.20985
-0.0582397
1.85595
-0.0574641
1.55827
-0.052545
1.28881
-0.0388496
0.998319
-0.0189414
0.652908
-0.00481481
0.315978
0.0808015
-0.00163702
0.113014
-0.00260143
0.383503
-0.000799924
0.724796
-0.00202846
1.06034
-0.00773807
1.34254
-0.0160848
1.61075
-0.0258851
1.90855
-0.036356
2.26254
-0.046997
2.68691
-0.0566123
3.19634
-0.0625875
3.17797
-0.064823
2.6443
-0.0652944
2.21032
-0.0643924
1.85505
-0.0617813
1.55566
-0.0551943
1.28222
-0.0399833
0.983108
-0.019437
0.632361
-0.00508245
0.301623
0.075719
-0.00296464
0.115979
-0.00630629
0.386844
-0.00793323
0.726423
-0.010565
1.06297
-0.0172347
1.34921
-0.0266434
1.62016
-0.0372393
1.91915
-0.0485372
2.27384
-0.0594275
2.6978
-0.0679897
3.2049
-0.0722317
3.18222
-0.0732897
2.64536
-0.0722865
2.20932
-0.0708414
1.8536
-0.0673101
1.55213
-0.0586616
1.27358
-0.0416021
0.966049
-0.0201729
0.610932
-0.00536317
0.286814
0.0703559
-0.00436135
0.12034
-0.010746
0.393229
-0.0158934
0.73157
-0.0218604
1.06894
-0.0296895
1.35704
-0.0397102
1.63018
-0.0511617
1.9306
-0.0633224
2.286
-0.0750465
2.70953
-0.0843695
3.21422
-0.0886408
3.18649
-0.0886278
2.64534
-0.0856952
2.20639
-0.0810263
1.84893
-0.0746006
1.5457
-0.0637164
1.26269
-0.0444736
0.946806
-0.0215924
0.588051
-0.0058421
0.271063
0.0645138
-0.0057588
0.126099
-0.0156565
0.403127
-0.0247396
0.740653
-0.0330126
1.07721
-0.0430033
1.36703
-0.0554357
1.64261
-0.0686365
1.9438
-0.0819558
2.29932
-0.0938642
2.72144
-0.101754
3.22211
-0.102782
3.18752
-0.0996121
2.64217
-0.0948865
2.20166
-0.0899867
1.84403
-0.0829021
1.53862
-0.0695782
1.24937
-0.0476641
0.924892
-0.0231049
0.563492
-0.00629601
0.254254
0.0582177
-0.00818002
0.134279
-0.0230608
0.418007
-0.0380166
0.755609
-0.0501196
1.08932
-0.0617574
1.37867
-0.0756268
1.65648
-0.090686
1.95886
-0.105547
2.31418
-0.117923
2.73381
-0.125091
3.22928
-0.125049
3.18747
-0.120685
2.63781
-0.114098
2.19507
-0.105098
1.83503
-0.0937707
1.52729
-0.0770515
1.23265
-0.0520124
0.899853
-0.0252669
0.536746
-0.00689052
0.235878
0.0513272
-0.0107258
0.145005
-0.0306057
0.437887
-0.0513739
0.776377
-0.0680378
1.10598
-0.0832356
1.39387
-0.100409
1.67365
-0.117586
1.97604
-0.133419
2.33001
-0.145479
2.74587
-0.150828
3.23463
-0.147329
3.18397
-0.138525
2.629
-0.128034
2.18458
-0.118117
1.82512
-0.10584
1.51501
-0.0859109
1.21272
-0.0572564
0.871198
-0.027834
0.507324
-0.0074859
0.21553
0.0438413
-0.0154205
0.160425
-0.0426951
0.465162
-0.070094
0.803776
-0.091892
1.12778
-0.110637
1.41261
-0.130757
1.69377
-0.150488
1.99577
-0.168086
2.34761
-0.180665
2.75845
-0.184595
3.23856
-0.17825
3.17763
-0.167085
2.61784
-0.1547
2.1722
-0.140017
1.81043
-0.122166
1.49716
-0.097522
1.18808
-0.0643737
0.83805
-0.0311831
0.474133
-0.00815596
0.192503
0.0356854
-0.0195993
0.180024
-0.0556692
0.501232
-0.0924989
0.840606
-0.121263
1.15654
-0.145476
1.43682
-0.170209
1.71851
-0.192336
2.0179
-0.210067
2.36534
-0.220661
2.76904
-0.221087
3.23899
-0.210969
3.16751
-0.195447
2.60232
-0.178072
2.15482
-0.161131
1.79349
-0.141203
1.47723
-0.111725
1.1586
-0.072834
0.799158
-0.0347512
0.43605
-0.00874563
0.166497
0.0269397
-0.0326557
0.21268
-0.0817382
0.550314
-0.128369
0.887237
-0.163895
1.19207
-0.194
1.46693
-0.222183
1.74669
-0.24536
2.04107
-0.262677
2.38266
-0.271436
2.7778
-0.267517
3.23507
-0.251205
3.1512
-0.231221
2.58233
-0.211612
2.13522
-0.190328
1.77221
-0.163593
1.4505
-0.127434
1.12244
-0.0821462
0.75387
-0.0384795
0.392384
-0.00915572
0.137173
0.017784
-0.0473086
0.259989
-0.120847
0.623853
-0.183144
0.949534
-0.226624
1.23555
-0.262005
1.50231
-0.291113
1.7758
-0.312348
2.06231
-0.325546
2.39586
-0.327478
2.77974
-0.315679
3.22327
-0.294002
3.12952
-0.269457
2.55779
-0.24367
2.10943
-0.21795
1.74649
-0.187396
1.41994
-0.144158
1.0792
-0.0904997
0.700212
-0.0402189
0.342103
-0.00902456
0.105979
0.00875945
-0.0339548
0.293944
-0.0967327
0.686631
-0.153798
1.0066
-0.200245
1.282
-0.242517
1.54458
-0.279391
1.81267
-0.313345
2.09626
-0.343061
2.42557
-0.36451
2.80118
-0.372789
3.23155
-0.361184
3.11792
-0.338663
2.53527
-0.312418
2.08318
-0.27842
1.71249
-0.232247
1.37377
-0.170728
1.01768
-0.0990351
0.628519
-0.0391928
0.282261
-0.00865242
0.0754387
0.000107032
-0.0126279
0.306572
-0.0473162
0.721319
-0.0886129
1.0479
-0.127268
1.32065
-0.165066
1.58238
-0.198254
1.84586
-0.228839
2.12685
-0.254096
2.45083
-0.269767
2.81685
-0.268547
3.23033
-0.251197
3.10057
-0.225494
2.50956
-0.193209
2.0509
-0.158893
1.67817
-0.121511
1.33639
-0.0779382
0.974109
-0.0360122
0.586593
-0.0110304
0.257279
-0.00227269
0.066681
-0.00216566
0.000396898
0.306175
-0.0239125
0.745628
-0.0531641
1.07715
-0.0830216
1.35051
-0.113789
1.61315
-0.143824
1.87589
-0.171157
2.15418
-0.19323
2.4729
-0.206251
2.82988
-0.205016
3.22909
-0.185926
3.08148
-0.155674
2.47931
-0.123933
2.01916
-0.0906755
1.64492
-0.05342
1.29913
-0.0175961
0.938286
0.00440715
0.56459
0.00696246
0.254724
0.00222378
0.0714197
5.81247e-05
0.000951214
0.305223
-0.0124197
0.758999
-0.0339877
1.09872
-0.0586099
1.37513
-0.0841886
1.63872
-0.109266
1.90097
-0.132604
2.17752
-0.151143
2.49144
-0.16019
2.83892
-0.15486
3.22376
-0.134188
3.0608
-0.107714
2.45284
-0.0769256
1.98837
-0.0421406
1.61013
-0.012879
1.26987
0.00867084
0.916736
0.0180773
0.555184
0.0133365
0.259464
0.0041937
0.0805625
0.00425182
0.00398776
0.301236
-0.00536883
0.768356
-0.0236743
1.11702
-0.0444668
1.39592
-0.0661312
1.66039
-0.087682
1.92252
-0.107897
2.19773
-0.124017
2.50756
-0.132793
2.8477
-0.129027
3.22
-0.109607
3.04138
-0.0816663
2.4249
-0.0521208
1.95882
-0.0247098
1.58272
0.003631
1.24153
0.0230136
0.897353
0.025854
0.552343
0.0164068
0.268912
0.00503329
0.091936
0.00928511
0.00520297
0.296033
-0.000874642
0.774433
-0.0172108
1.13336
-0.0360901
1.4148
-0.0555369
1.67984
-0.0745664
1.94155
-0.0925109
2.21568
-0.107179
2.52223
-0.1149
2.85542
-0.10962
3.21472
-0.0924588
3.02422
-0.0719462
2.40439
-0.0447078
1.93159
-0.0145707
1.55258
0.00828144
1.21868
0.0232667
0.882368
0.0249686
0.550641
0.0153184
0.278562
0.00475598
0.102498
0.0140411
0.00377571
0.292257
-0.000831934
0.779041
-0.0144352
1.14696
-0.0314783
1.43185
-0.0491315
1.69749
-0.0667873
1.95921
-0.0836689
2.23256
-0.0976449
2.53621
-0.105469
2.86325
-0.103581
3.21283
-0.0903395
3.01098
-0.0669734
2.38102
-0.0416618
1.90627
-0.0181884
1.52911
0.00540873
1.19508
0.0198574
0.867919
0.020367
0.550132
0.0124988
0.28643
0.00384032
0.111157
0.0178814
0.00258224
0.289675
-0.00116188
0.782785
-0.0136793
1.15948
-0.0292839
1.44745
-0.0460311
1.71424
-0.0626045
1.97578
-0.0784596
2.24841
-0.0918499
2.5496
-0.0999678
2.87136
-0.0993478
3.21221
-0.0855438
2.99718
-0.0659142
2.36139
-0.0441287
1.88449
-0.0195045
1.50448
0.000534926
1.17504
0.0118661
0.856588
0.014332
0.547666
0.00839341
0.292368
0.0025801
0.11697
0.0204615
0.00014171
0.289533
-0.00363585
0.786563
-0.0146204
1.17046
-0.0286363
1.46147
-0.0443133
1.72991
-0.0602223
1.99169
-0.0758637
2.26406
-0.0899651
2.5637
-0.099983
2.88138
-0.100879
3.2131
-0.0895771
2.98588
-0.0710276
2.34284
-0.0489285
1.86239
-0.0284628
1.48402
-0.00896053
1.15554
0.00385351
0.843774
0.00574295
0.545776
0.00399635
0.294115
0.00146042
0.119506
0.0219219
-0.000546354
0.290079
-0.00533647
0.791353
-0.0156336
1.18076
-0.0288501
1.47468
-0.043908
1.74497
-0.0593314
2.00711
-0.0748558
2.27958
-0.0891012
2.57794
-0.0990291
2.89131
-0.100534
3.21461
-0.0921283
2.97747
-0.0754305
2.32614
-0.0563574
1.84332
-0.0345047
1.46217
-0.0181186
1.13915
-0.00728679
0.832942
-0.00139149
0.539881
-0.0010499
0.293773
-0.00014902
0.118605
0.0217729
-0.00204515
0.292125
-0.00746062
0.796768
-0.0171683
1.19047
-0.0295246
1.48704
-0.0437992
1.75925
-0.0588975
2.02221
-0.0744987
2.29518
-0.0893951
2.59284
-0.101676
2.90359
-0.10724
3.22017
-0.0993052
2.96954
-0.0834576
2.31029
-0.0622786
1.82214
-0.044246
1.44413
-0.0265253
1.12143
-0.013772
0.820189
-0.00766352
0.533773
-0.00341263
0.289523
-0.000842977
0.116036
0.0209299
-0.00346065
0.295585
-0.00890869
0.802216
-0.0182813
1.19984
-0.0302455
1.499
-0.0440956
1.7731
-0.0588478
2.03696
-0.0744687
2.3108
-0.0900106
2.60838
-0.102961
2.91654
-0.108804
3.22602
-0.103124
2.96385
-0.0888045
2.29597
-0.07161
1.80494
-0.0508198
1.42334
-0.0343153
1.10493
-0.0216631
0.807537
-0.0120739
0.524183
-0.00611062
0.283559
-0.00159967
0.111525
0.0193302
-0.00416776
0.299753
-0.0102678
0.808316
-0.0195015
1.20907
-0.0309288
1.51043
-0.0441528
1.78632
-0.0586164
2.05143
-0.0744221
2.32661
-0.0906663
2.62463
-0.105502
2.93138
-0.115657
3.23617
-0.11284
2.96104
-0.0981548
2.28129
-0.0768635
1.78365
-0.0583654
1.40485
-0.0401701
1.08673
-0.0258291
0.793196
-0.0161792
0.514533
-0.00709796
0.274478
-0.00185636
0.106283
0.0174739
-0.00433555
0.304089
-0.0109119
0.814893
-0.0200874
1.21825
-0.0312683
1.52161
-0.0442269
1.79928
-0.0584497
2.06565
-0.0742801
2.34244
-0.0910522
2.6414
-0.106978
2.9473
-0.118145
3.24734
-0.116945
2.95984
-0.104467
2.26881
-0.087048
1.76623
-0.0638922
1.38169
-0.0455191
1.06836
-0.0305383
0.778215
-0.0173257
0.501321
-0.00791729
0.26507
-0.00186309
0.100229
0.0156108
-0.00440175
0.30849
-0.0114878
0.821979
-0.0206275
1.22739
-0.0314326
1.53242
-0.043926
1.81177
-0.057896
2.07962
-0.0738117
2.35835
-0.0911413
2.65873
-0.108679
2.96484
-0.123103
3.26176
-0.125694
2.96243
-0.114636
2.25775
-0.0923487
1.74395
-0.0705365
1.35988
-0.048228
1.04605
-0.0308557
0.760843
-0.0182629
0.488728
-0.00723945
0.254046
-0.00152143
0.0945108
0.0140894
-0.00445059
0.312941
-0.0116501
0.829178
-0.0205912
1.23633
-0.0311774
1.543
-0.0434667
1.82406
-0.0572212
2.09337
-0.0730863
2.37422
-0.0908125
2.67645
-0.109279
2.98331
-0.125028
3.27751
-0.130155
2.96756
-0.120729
2.24833
-0.103288
1.7265
-0.0761694
1.33276
-0.0509643
1.02084
-0.0298463
0.739725
-0.0135182
0.4724
-0.00472417
0.245252
-0.000447637
0.0902343
0.0136417
-0.0045186
0.317459
-0.0118093
0.836469
-0.0205585
1.24508
-0.0307814
1.55323
-0.0426308
1.83591
-0.0561094
2.10685
-0.0719673
2.39008
-0.0900827
2.69457
-0.109726
3.00295
-0.128011
3.2958
-0.136986
2.97653
-0.130556
2.2419
-0.109307
1.70525
-0.0831931
1.30665
-0.0511902
0.988842
-0.0241906
0.712725
-0.00640882
0.454618
0.000767784
0.238076
-0.00177835
0.0927804
0.0118634
-0.00451499
0.321974
-0.0116708
0.843625
-0.0200951
1.2535
-0.0300215
1.56315
-0.041616
1.84751
-0.0548655
2.1201
-0.0706102
2.40582
-0.0889181
2.71288
-0.109164
3.0232
-0.128778
3.31541
-0.140119
2.98787
-0.13674
2.23852
-0.121823
1.69034
-0.0909033
1.27573
-0.0536571
0.951595
-0.0142523
0.67332
0.0198148
0.420551
0.0339906
0.2239
0.0246286
0.102142
0.036492
-0.00442923
0.326404
-0.0115044
0.8507
-0.0196862
1.26169
-0.0292102
1.57268
-0.0403333
1.85863
-0.0532607
2.13303
-0.0688675
2.42143
-0.0872888
2.7313
-0.108284
3.04419
-0.129978
3.3371
-0.143977
3.00187
-0.145807
2.24035
-0.128983
1.67351
-0.100578
1.24732
-0.0550949
0.906112
-0.0070644
0.62529
0.0386174
0.374869
0.0446848
0.217833
0.0195668
0.12726
0.0560588
-0.00425603
0.33066
-0.0111206
0.857565
-0.0189436
1.26951
-0.0281048
1.58184
-0.0389516
1.86948
-0.0515976
2.14568
-0.0669743
2.43681
-0.0853893
2.74971
-0.106774
3.06557
-0.129637
3.35997
-0.146157
3.01839
-0.151179
2.24537
-0.143453
1.66579
-0.114054
1.21792
-0.0674963
0.859554
0.00591177
0.551882
0.106557
0.274224
0.187747
0.136643
0.180557
0.13445
0.236616
-0.00412208
0.334782
-0.0109334
0.864376
-0.0187304
1.27731
-0.027838
1.59094
-0.0387536
1.88039
-0.0517916
2.15871
-0.0680513
2.45307
-0.088025
2.76969
-0.112105
3.08966
-0.13942
3.38728
-0.161559
3.04053
-0.173074
2.25689
-0.166514
1.65923
-0.142526
1.19393
-0.0907076
0.807735
-0.0363987
0.497573
-0.0792382
0.317063
-0.359146
0.416551
-0.939265
0.714568
0.899093
-1.60174
-0.00393839
0.33872
-0.0105421
0.87098
-0.0180752
1.28484
-0.0270164
1.59989
-0.0378799
1.89125
-0.0510427
2.17188
-0.0676875
2.46971
-0.0885626
2.79056
-0.114365
3.11546
-0.145028
3.41795
-0.172898
3.0684
-0.189481
2.27347
-0.200355
1.6701
-0.188329
1.18191
-0.166863
0.78627
-0.254714
0.585424
-0.692938
0.755287
-1.43645
1.16006
-2.04549
1.32361
1.21745
-2.36385
-0.00373306
0.342453
-0.010113
0.87736
-0.01746
1.29219
-0.02618
1.60861
-0.0368258
1.9019
-0.0500087
2.18506
-0.0670123
2.48671
-0.0887295
2.81228
-0.116335
3.14306
-0.150611
3.45222
-0.183802
3.10159
-0.211042
2.30071
-0.224306
1.68337
-0.220169
1.17777
-0.307121
0.873221
-0.753407
1.03171
-1.5374
1.53928
-2.1066
1.72926
-2.34676
1.56377
1.33208
-2.46138
-0.00354768
0.346001
-0.00957738
0.883389
-0.0165784
1.29919
-0.0250677
1.6171
-0.0355937
1.91243
-0.0488362
2.1983
-0.0661189
2.504
-0.0885998
2.83476
-0.117877
3.17234
-0.155911
3.49026
-0.196173
3.14185
-0.228195
2.33273
-0.259678
1.71485
-0.343898
1.26199
-0.690361
1.21968
-1.43283
1.77418
-2.0243
2.13074
-2.26468
1.96965
-2.37829
1.67738
1.39679
-2.443
-0.00328234
0.349283
-0.00896418
0.889071
-0.0156962
1.30592
-0.0239049
1.6253
-0.0342246
1.92275
-0.0474066
2.21148
-0.0649018
2.52149
-0.0880549
2.85791
-0.118992
3.20328
-0.160407
3.53167
-0.206813
3.18826
-0.253485
2.3794
-0.299969
1.76133
-0.480753
1.44278
-1.09143
1.83036
-1.78389
2.46664
-2.10675
2.4536
-2.25566
2.11856
-2.33794
1.75966
1.46255
-2.40371
-0.00321769
0.352501
-0.00878533
0.894639
-0.0154185
1.31255
-0.0236588
1.63354
-0.0342639
1.93335
-0.0477763
2.225
-0.0657798
2.5395
-0.0898697
2.882
-0.122542
3.23595
-0.167839
3.57697
-0.221815
3.24223
-0.269928
2.42752
-0.361649
1.85305
-0.750357
1.83148
-1.48708
2.56709
-1.96243
2.94199
-2.16263
2.6538
-2.26907
2.22499
-2.3461
1.8367
1.52627
-2.40982
-0.00330722
0.355808
-0.00914015
0.900472
-0.0162001
1.31961
-0.0248617
1.64221
-0.035899
1.94439
-0.0500036
2.2391
-0.068864
2.55836
-0.0941824
2.90732
-0.128827
3.27059
-0.177566
3.62571
-0.235056
3.29972
-0.301314
2.49378
-0.491502
2.04324
-1.04534
2.38532
-1.67554
3.19729
-1.95307
3.21953
-2.10035
2.80108
-2.21434
2.33898
-2.30789
1.93024
1.58809
-2.36971
-0.00336334
0.359172
-0.00948886
0.906597
-0.0168599
1.32698
-0.0259871
1.65133
-0.0376091
1.95601
-0.0524363
2.25393
-0.0722061
2.57813
-0.0988198
2.93394
-0.13536
3.30713
-0.187997
3.67834
-0.252233
3.36396
-0.33985
2.58139
-0.621165
2.32456
-1.26188
3.02603
-1.75219
3.6876
-1.9596
3.42694
-2.10008
2.94156
-2.22401
2.46292
-2.33484
2.04107
1.64676
-2.39352
-0.00334434
0.362516
-0.00974898
0.913002
-0.0176921
1.33493
-0.0273479
1.66099
-0.0394366
1.9681
-0.0548954
2.26939
-0.0755737
2.5988
-0.103445
2.96181
-0.141922
3.34561
-0.196948
3.73337
-0.2649
3.43191
-0.391206
2.7077
-0.776014
2.70936
-1.40773
3.65775
-1.76279
4.04265
-1.93625
3.6004
-2.03858
3.04389
-2.12752
2.55186
-2.19528
2.10883
1.63973
-2.18825
-0.00327836
0.365794
-0.0099663
0.91969
-0.018224
1.34318
-0.0284001
1.67116
-0.0411869
1.98089
-0.0574484
2.28565
-0.079088
2.62044
-0.108259
2.99098
-0.148476
3.38583
-0.206026
3.79092
-0.286042
3.51193
-0.456156
2.87781
-0.905903
3.15911
-1.4613
4.21315
-1.72406
4.30541
-1.8767
3.75304
-1.97031
3.1375
-1.97239
2.55395
-1.90434
2.04078
1.60614
-1.87075
-0.00307912
0.368873
-0.00996249
0.926573
-0.0188352
1.35206
-0.0295069
1.68184
-0.0426341
1.99401
-0.0592619
2.30228
-0.0813018
2.64248
-0.110835
3.02051
-0.151531
3.42652
-0.207859
3.84725
-0.293317
3.59739
-0.498636
3.08313
-0.985825
3.6463
-1.42792
4.65525
-1.59466
4.47215
-1.66251
3.82088
-1.66742
3.14241
-1.52031
2.40684
-1.02046
1.54093
0.585675
-0.00262645
0.3715
-0.0098464
0.933793
-0.0189919
1.3612
-0.0303155
1.69316
-0.0445543
2.00825
-0.0625946
2.32032
-0.0865403
2.66643
-0.118786
3.05276
-0.163283
3.47102
-0.22672
3.91069
-0.33129
3.70196
-0.585227
3.33707
-1.12117
4.18224
-1.48131
5.01539
-1.58137
4.57221
-1.57948
3.81899
-1.47674
3.03967
-1.23749
2.16759
-0.635059
0.938503
-0.0493839
-0.00211311
0.373613
-0.00923675
0.940917
-0.0190711
1.37104
-0.0311739
1.70526
-0.0462009
2.02328
-0.0654394
2.33955
-0.0911898
2.69218
-0.126061
3.08763
-0.174965
3.51992
-0.244178
3.9799
-0.366072
3.82385
-0.679513
3.65051
-1.2379
4.74063
-1.50122
5.27871
-1.56064
4.63162
-1.53957
3.79792
-1.33744
2.83753
-0.786771
1.61692
-0.110555
0.262287
-0.159939
-0.00162637
0.375239
-0.0085178
0.947808
-0.0182948
1.38081
-0.0309547
1.71792
-0.047037
2.03936
-0.0676628
2.36018
-0.0953515
2.71987
-0.133059
3.12534
-0.185414
3.57228
-0.2632
4.05769
-0.412681
3.97333
-0.782836
4.02066
-1.31721
5.27501
-1.49544
5.45693
-1.5268
4.66298
-1.43906
3.71018
-1.1055
2.50397
-0.316731
0.82815
0.0259589
-0.0804022
-0.13398
-0.00059471
0.375834
-0.00667226
0.953886
-0.0170504
1.39119
-0.0304903
1.73136
-0.0471827
2.05605
-0.0689031
2.3819
-0.0982661
2.74923
-0.138254
3.16532
-0.19362
3.62765
-0.279747
4.14381
-0.453231
4.14681
-0.887296
4.45473
-1.36045
5.74817
-1.47852
5.575
-1.48175
4.66622
-1.26139
3.48982
-0.693056
1.93564
-0.0634036
0.198497
0.0312409
-0.175047
-0.102739
0.000588387
0.375246
-0.00439583
0.95887
-0.0144147
1.40121
-0.028246
1.74519
-0.0456905
2.0735
-0.0686295
2.40484
-0.0996685
2.78027
-0.141985
3.20764
-0.200169
3.68583
-0.295425
4.23907
-0.497622
4.34901
-0.980657
4.93776
-1.35748
6.125
-1.42247
5.63998
-1.37899
4.62275
-1.08965
3.20047
-0.328628
1.17462
0.00326005
-0.13339
0.0145879
-0.186375
-0.0881515
0.0031271
0.372119
0.000243218
0.961754
-0.0106016
1.41206
-0.0250864
1.75968
-0.042677
2.09109
-0.0665098
2.42867
-0.0987297
2.81249
-0.142567
3.25148
-0.203515
3.74678
-0.306858
4.34241
-0.53154
4.57369
-1.03942
5.44564
-1.3177
6.40328
-1.35933
5.68161
-1.22394
4.48735
-0.781938
2.75847
-0.0760781
0.46876
0.0459472
-0.255415
0.0256372
-0.166065
-0.0625143
0.00500123
0.367117
0.00356029
0.963195
-0.00542037
1.42104
-0.0190358
1.77329
-0.0368981
2.10895
-0.0614583
2.45323
-0.0946052
2.84564
-0.139946
3.29682
-0.20298
3.80981
-0.31355
4.45298
-0.569194
4.82934
-1.06092
5.93737
-1.25397
6.59633
-1.26577
5.69341
-1.05069
4.27228
-0.466774
2.17455
-0.0111829
0.0131687
0.000428894
-0.267027
0.00954993
-0.175186
-0.0529644
0.00839564
0.358722
0.00971421
0.961876
0.00249457
1.42826
-0.0105907
1.78638
-0.0284171
2.12678
-0.0531679
2.47798
-0.0864593
2.87893
-0.131674
3.34203
-0.196069
3.87421
-0.312881
4.56979
-0.586138
5.1026
-1.03583
6.38706
-1.15878
6.71928
-1.1466
5.68123
-0.892871
4.01855
-0.270259
1.55194
-0.0659136
-0.191177
-0.0356579
-0.297283
-0.0116842
-0.199159
-0.0646486
0.0119089
0.346813
0.0172561
0.956529
0.0130084
1.4325
0.00243863
1.79695
-0.0158609
2.14508
-0.0397388
2.50186
-0.0723229
2.91151
-0.117469
3.38718
-0.182022
3.93876
-0.301471
4.68924
-0.583205
5.38433
-0.9689
6.77275
-1.04004
6.79042
-0.973371
5.61455
-0.692656
3.73784
-0.0990298
0.958316
-0.0223729
-0.267834
-0.0230013
-0.296654
-0.0089562
-0.213204
-0.0736048
0.0180117
0.328801
0.0292615
0.945279
0.0278117
1.43395
0.0178471
1.80691
0.00138886
2.16154
-0.0205013
2.52375
-0.051483
2.94249
-0.0942716
3.42997
-0.156265
4.00075
-0.275052
4.80803
-0.541108
5.65039
-0.853268
7.08491
-0.887657
6.82481
-0.7919
5.5188
-0.460728
3.40667
0.0339134
0.463675
0.0494039
-0.283324
0.0316364
-0.278887
0.0106603
-0.192228
-0.0629445
0.0243793
0.304422
0.0429953
0.926663
0.0469393
1.43001
0.0402687
1.81358
0.0276424
2.17416
0.00745545
2.54394
-0.0209436
2.97089
-0.0605806
3.46961
-0.119017
4.05919
-0.22992
4.91893
-0.461911
5.88238
-0.689431
7.31243
-0.730732
6.86611
-0.617686
5.40575
-0.288183
3.07716
0.013252
0.16224
0.0261385
-0.296211
0.0327724
-0.285521
0.0178033
-0.177259
-0.0451412
0.0340224
0.270399
0.0631329
0.897553
0.073583
1.41956
0.0712329
1.81593
0.0621924
2.1832
0.0449446
2.56119
0.0202797
2.99556
-0.0145797
3.50446
-0.0648455
4.10945
-0.158055
5.01214
-0.337457
6.06178
-0.488804
7.46378
-0.536416
6.91372
-0.453978
5.32331
-0.139847
2.76303
-0.0229351
0.045328
-0.0105421
-0.308604
0.0244192
-0.320482
0.0379894
-0.190829
-0.00715183
0.0435974
0.226802
0.0857826
0.855367
0.106261
1.39908
0.110768
1.81143
0.106637
2.18733
0.0942425
2.57358
0.0763018
3.0135
0.0493406
3.53143
0.0040149
4.15478
-0.0572049
5.07336
-0.178544
6.18312
-0.25908
7.54432
-0.282827
6.93747
-0.281247
5.32173
-0.137664
2.61945
-0.226711
0.134376
-0.192267
-0.343048
-0.085976
-0.426773
0.0177772
-0.294583
0.0106253
0.0554257
0.171376
0.115709
0.795084
0.150416
1.36437
0.163017
1.79883
0.165193
2.18516
0.158265
2.58051
0.147497
3.02427
0.131202
3.54772
0.108028
4.17795
0.0742502
5.10714
0.0540587
6.20331
0.0285545
7.56982
-0.0367223
7.00275
-0.196761
5.48177
-0.388638
2.81133
-0.654774
0.400512
-0.638272
-0.35955
-0.453911
-0.611134
-0.205912
-0.542582
-0.195286
0.0588791
0.112497
0.145516
0.708447
0.200265
1.30962
0.226495
1.7726
0.237789
2.17386
0.238589
2.57971
0.237017
3.02584
0.233047
3.55169
0.229746
4.18125
0.231065
5.10582
0.321242
6.11313
0.416014
7.47505
0.383818
7.03494
0.249443
5.61615
-0.165184
3.22595
-0.662176
0.897503
-0.820244
-0.201482
-0.643683
-0.787694
-0.351503
-0.834762
-0.54679
0.051032
0.0614653
0.17568
0.583799
0.264183
1.22112
0.306867
1.72991
0.328628
2.1521
0.339984
2.56835
0.34724
3.01858
0.359447
3.53948
0.383607
4.1571
0.43259
5.05684
0.6547
5.89102
0.960574
7.16917
1.2033
6.79221
1.36445
5.455
0.98062
3.60978
0.316201
1.56192
-0.162757
0.277477
-0.373394
-0.577058
-0.263636
-0.94452
-0.810425
0.0363143
0.025151
0.207712
0.412402
0.327734
1.1011
0.400524
1.65712
0.438493
2.11413
0.461899
2.54495
0.477497
3.00298
0.503543
3.51344
0.553885
4.10675
0.666553
4.94417
1.02059
5.53699
1.63778
6.55198
2.04129
6.38871
2.31923
5.17705
2.1755
3.75351
1.58333
2.15409
1.03469
0.826119
0.435328
0.0223041
0.128213
-0.637405
-0.682213
0.0314168
-0.00626575
0.228896
0.214923
0.414983
0.915012
0.515971
1.55613
0.568637
2.06147
0.606436
2.50715
0.633736
2.97568
0.671229
3.47595
0.748186
4.0298
0.904132
4.78822
1.3277
5.11342
2.09642
5.78326
2.4989
5.98623
2.70006
4.9759
2.61914
3.83443
2.13119
2.64204
1.53247
1.42484
1.01477
0.540001
0.428235
-0.0508644
-0.253978
0.0283648
-0.0346306
0.179302
0.0639858
0.46647
0.627844
0.640281
1.38232
0.722686
1.97906
0.769955
2.45988
0.809267
2.93637
0.848615
3.4366
0.923384
3.95503
1.06921
4.6424
1.38579
4.79685
2.11323
5.05582
2.469
5.63046
2.61387
4.83103
2.5385
3.90979
2.18924
2.99131
1.60366
2.01042
1.0008
1.14287
0.414461
0.53547
0.160483
0.0106585
-0.0452891
0.0941471
-0.0195028
0.404241
0.31775
0.640565
1.146
0.755032
1.8646
0.788769
2.42614
0.798893
2.92625
0.788475
3.44702
0.782897
3.9606
0.820385
4.60491
0.909032
4.7082
1.24243
4.72242
1.45632
5.41656
1.45832
4.82903
1.3822
3.98591
1.20511
3.16839
0.893722
2.32181
0.55494
1.48165
0.233889
0.856521
0.394372
-0.00344484
-0.0418443
0.0355254
-0.058473
0.237546
0.11573
0.479424
0.90412
0.60091
1.74311
0.644381
2.38267
0.661722
2.90891
0.657956
3.45078
0.644157
3.9744
0.646531
4.60253
0.686533
4.6682
0.883723
4.52523
1.09717
5.20312
1.09333
4.83287
1.02367
4.05556
0.892083
3.29998
0.675189
2.5387
0.413106
1.74373
0.164921
1.10471
0.559293
0.00815286
-0.0499971
0.0431739
-0.0934941
0.140729
0.0181747
0.346052
0.698797
0.458614
1.63055
0.501205
2.34008
0.515324
2.89479
0.518935
3.44717
0.511068
3.98227
0.503366
4.61024
0.515062
4.6565
0.63679
4.40351
0.791538
5.04837
0.792239
4.83217
0.724125
4.12368
0.617181
3.40693
0.464126
2.69176
0.274662
1.9332
0.0997511
1.27962
0.659044
0.0294347
-0.0794319
0.0780429
-0.142102
0.121803
-0.0255857
0.235381
0.585219
0.319867
1.54606
0.360303
2.29964
0.375298
2.8798
0.385068
3.4374
0.385562
3.98178
0.381164
4.61463
0.377566
4.6601
0.444476
4.3366
0.553663
4.93918
0.551167
4.83467
0.489249
4.1856
0.408301
3.48788
0.302094
2.79797
0.171763
2.06353
0.0510208
1.40036
0.710064
0.0429343
-0.122366
0.0872977
-0.186466
0.081312
-0.0196
0.0964298
0.570101
0.153848
1.48864
0.198833
2.25466
0.227331
2.8513
0.250356
3.41437
0.268083
3.96405
0.275864
4.60685
0.268724
4.66724
0.298629
4.30669
0.368836
4.86897
0.364227
4.83927
0.31349
4.23633
0.247986
3.55338
0.168322
2.87763
0.076929
2.15492
0.00288306
1.47441
0.712947
0.0359589
-0.158325
0.049921
-0.200428