/*--------------------------------*- C++ -*----------------------------------*\
  =========                 |
  \\      /  F ield         | OpenFOAM: The Open Source CFD Toolbox
   \\    /   O peration     | Website:  https://openfoam.org
    \\  /    A nd           | Version:  9
     \\/     M anipulation  |
\*---------------------------------------------------------------------------*/
FoamFile
{
    format      ascii;
    class       volScalarField;
    location    "32";
    object      p;
}
// * * * * * * * * * * * * * * * * * * * * * * * * * * * * * * * * * * * * * //

dimensions      [0 2 -2 0 0 0 0];

internalField   nonuniform List<scalar> 
2200
(
1.18947
1.16797
1.15206
1.13639
1.12176
1.10924
1.09886
1.09073
1.08497
1.08195
1.08232
1.08602
1.09227
1.10075
1.11137
1.1241
1.13885
1.15469
1.17068
1.19219
1.1219
1.11864
1.11571
1.11159
1.10612
1.09963
1.093
1.08703
1.08248
1.08001
1.08039
1.08357
1.08863
1.095
1.10191
1.10861
1.11422
1.11835
1.12126
1.12458
1.08199
1.08221
1.08427
1.08561
1.086
1.08514
1.08314
1.08042
1.07783
1.07626
1.0767
1.07902
1.08218
1.08533
1.0876
1.0886
1.08831
1.08721
1.08542
1.08518
1.05959
1.06104
1.06363
1.06608
1.06849
1.07049
1.07161
1.07179
1.07133
1.07092
1.07141
1.07267
1.07377
1.07408
1.07333
1.07161
1.06942
1.06716
1.06457
1.06315
1.04529
1.04727
1.05007
1.05289
1.05573
1.05853
1.06095
1.06279
1.06395
1.06463
1.0652
1.06553
1.06513
1.06388
1.06193
1.05946
1.05684
1.0541
1.05132
1.04938
1.03795
1.03954
1.04174
1.04429
1.04696
1.04961
1.05216
1.05453
1.05648
1.05787
1.05855
1.05836
1.05735
1.05568
1.05365
1.0514
1.049
1.04661
1.04449
1.04292
1.03473
1.03575
1.03702
1.03887
1.04099
1.04311
1.04523
1.04741
1.04949
1.05117
1.05198
1.05176
1.05081
1.04947
1.04796
1.04631
1.04452
1.04289
1.04174
1.04073
1.03226
1.03293
1.03356
1.03487
1.03647
1.03813
1.03982
1.04162
1.04349
1.04522
1.04621
1.04628
1.04575
1.04496
1.04402
1.04291
1.04173
1.04071
1.04022
1.03954
1.02911
1.02955
1.02996
1.03101
1.03231
1.03372
1.03521
1.03681
1.03851
1.04022
1.04143
1.0419
1.04187
1.04154
1.04099
1.04027
1.03948
1.03878
1.03851
1.03806
1.02537
1.02564
1.02604
1.02699
1.02818
1.0295
1.03095
1.0325
1.03415
1.03588
1.03737
1.03828
1.03867
1.03868
1.0384
1.03793
1.03735
1.03682
1.0366
1.03631
1.02116
1.02134
1.02174
1.02265
1.02384
1.02524
1.02681
1.02848
1.03025
1.03216
1.034
1.03538
1.03612
1.03636
1.03621
1.03584
1.03539
1.03497
1.03476
1.03456
1.01645
1.01657
1.01696
1.01784
1.01909
1.02064
1.02247
1.02452
1.02674
1.02911
1.0314
1.03308
1.034
1.03427
1.03418
1.03391
1.03357
1.03325
1.03308
1.03294
1.01135
1.01141
1.01179
1.0127
1.01399
1.01565
1.01768
1.02008
1.02286
1.02589
1.02869
1.03058
1.03163
1.03212
1.03227
1.0322
1.032
1.03179
1.03167
1.03158
1.00607
1.00607
1.00646
1.00735
1.00871
1.01043
1.0125
1.01501
1.01812
1.02171
1.02516
1.02772
1.02934
1.03039
1.03101
1.03115
1.03113
1.03105
1.03098
1.03093
1.00079
1.00066
1.00109
1.00194
1.00338
1.00521
1.00739
1.01008
1.01343
1.01753
1.02183
1.02539
1.02792
1.02962
1.0306
1.03111
1.03135
1.03142
1.0314
1.03136
0.995166
0.995135
0.995461
0.996367
0.998002
1.00004
1.0026
1.00581
1.00979
1.01468
1.01995
1.02441
1.02761
1.02978
1.03116
1.03207
1.03256
1.03278
1.03283
1.0328
0.988936
0.988925
0.989263
0.990254
0.992052
0.994398
0.99748
1.00145
1.00643
1.01253
1.01901
1.02438
1.02822
1.03089
1.03279
1.03403
1.03475
1.03514
1.03526
1.03523
0.981641
0.981569
0.982021
0.983182
0.985104
0.987724
0.991278
0.995964
1.00202
1.00958
1.01764
1.02435
1.02923
1.03274
1.03525
1.03691
1.03795
1.03854
1.03875
1.0387
0.972969
0.97288
0.973349
0.974591
0.976736
0.979755
0.983877
0.989407
0.996673
1.00589
1.01589
1.02434
1.03061
1.0352
1.03849
1.04078
1.0423
1.04313
1.04341
1.04333
0.962221
0.962144
0.962693
0.964176
0.966753
0.970447
0.975551
0.982394
0.991333
1.00263
1.01486
1.02518
1.0329
1.03862
1.0428
1.04576
1.04774
1.04879
1.04914
1.04903
0.949143
0.94904
0.949741
0.951597
0.95484
0.959561
0.966073
0.974768
0.986057
1.00002
1.01485
1.02725
1.03653
1.0434
1.04842
1.05202
1.05444
1.05571
1.05612
1.05598
0.932601
0.932535
0.933538
0.935978
0.940211
0.946344
0.95473
0.965899
0.980127
0.997355
1.01529
1.03015
1.0412
1.04944
1.05544
1.05971
1.06258
1.06404
1.06451
1.06434
0.911626
0.911492
0.912834
0.916169
0.92184
0.930055
0.941169
0.955541
0.9734
0.994535
1.0161
1.03383
1.04694
1.05672
1.06387
1.06902
1.07242
1.07413
1.07467
1.07444
0.883974
0.884057
0.886267
0.891039
0.899064
0.910472
0.925318
0.94393
0.966248
0.991921
1.01758
1.03848
1.05392
1.0654
1.07389
1.08
1.08398
1.08595
1.08653
1.08625
0.847063
0.847396
0.851143
0.858991
0.870996
0.887195
0.907357
0.931404
0.959133
0.990081
1.0203
1.04455
1.06238
1.07568
1.08554
1.09269
1.09731
1.09957
1.10021
1.09983
0.797962
0.798454
0.805669
0.818592
0.837039
0.860448
0.887556
0.918277
0.952326
0.98915
1.02418
1.05193
1.07232
1.08753
1.09889
1.10713
1.11242
1.11485
1.1154
1.11496
0.732461
0.735443
0.750984
0.772605
0.79982
0.831541
0.866607
0.904841
0.945971
0.989375
1.02996
1.06198
1.08565
1.10344
1.11684
1.12681
1.13336
1.13615
1.13656
1.1363
0.657356
0.667347
0.693437
0.724957
0.76202
0.802625
0.845672
0.891679
0.940261
0.990758
1.03759
1.07465
1.10228
1.12341
1.13967
1.15175
1.16008
1.16348
1.16399
1.16423
0.591006
0.606462
0.63913
0.678918
0.725152
0.774426
0.825566
0.879388
0.935256
0.992587
1.04533
1.08698
1.11813
1.14191
1.16012
1.17392
1.18321
1.18798
1.18929
1.18925
0.541008
0.554753
0.592699
0.638313
0.691603
0.748039
0.80655
0.867638
0.930371
0.994292
1.05282
1.09867
1.13264
1.15844
1.17848
1.19383
1.20372
1.20863
1.20986
1.20996
0.500018
0.512838
0.55409
0.603515
0.662039
0.724129
0.78892
0.856419
0.925503
0.99566
1.05931
1.1087
1.14505
1.1726
1.19346
1.2093
1.21978
1.22487
1.22633
1.22645
0.464552
0.477638
0.521318
0.573556
0.636122
0.702736
0.772761
0.845795
0.920541
0.996263
1.06453
1.11715
1.1554
1.18381
1.20522
1.22137
1.23215
1.23763
1.23929
1.23943
0.433573
0.446787
0.492417
0.547078
0.612999
0.683397
0.757857
0.835642
0.915353
0.996056
1.06855
1.12381
1.16355
1.19291
1.21479
1.23116
1.24245
1.24821
1.25006
1.25018
0.405671
0.418999
0.466259
0.523106
0.591941
0.665568
0.743788
0.825627
0.909702
0.994825
1.0712
1.12912
1.17029
1.20046
1.22302
1.23961
1.25108
1.25704
1.25889
1.25883
0.380117
0.393407
0.441935
0.500912
0.572397
0.648776
0.730188
0.815566
0.903598
0.993022
1.07338
1.13376
1.17638
1.20743
1.23027
1.24709
1.25841
1.26432
1.2662
1.26603
0.356066
0.369658
0.419048
0.480071
0.553837
0.632622
0.716856
0.805425
0.897149
0.990636
1.07442
1.13749
1.18197
1.21379
1.23706
1.25392
1.2651
1.27099
1.27284
1.27276
0.333431
0.347149
0.397358
0.460191
0.535952
0.616916
0.703662
0.79508
0.889995
0.986814
1.0744
1.14092
1.1872
1.22006
1.2437
1.26055
1.2718
1.27746
1.27941
1.27933
0.312002
0.325723
0.376622
0.441008
0.518508
0.60146
0.690455
0.784371
0.882136
0.982655
1.07479
1.14429
1.19255
1.22656
1.2505
1.26741
1.27853
1.28413
1.28587
1.28584
0.291328
0.30527
0.356649
0.422332
0.501321
0.586098
0.677152
0.773352
0.874004
0.978143
1.07361
1.1464
1.19759
1.23304
1.25757
1.27451
1.2855
1.29078
1.29251
1.2924
0.270984
0.285546
0.337295
0.404082
0.484324
0.570737
0.663699
0.762063
0.865233
0.972265
1.07159
1.14858
1.20234
1.23959
1.26514
1.28205
1.29259
1.29766
1.29905
1.29888
0.250967
0.266336
0.318443
0.386219
0.467516
0.555363
0.650057
0.750392
0.855793
0.965817
1.0691
1.14942
1.20669
1.24675
1.27345
1.29034
1.30007
1.30432
1.30538
1.30515
0.231401
0.24752
0.300047
0.368747
0.450947
0.540032
0.636233
0.738337
0.845878
0.958488
1.06473
1.14924
1.21077
1.25394
1.28272
1.2998
1.30814
1.31101
1.31129
1.3111
0.21243
0.229094
0.282111
0.351706
0.434708
0.524824
0.622286
0.725928
0.83535
0.950074
1.05933
1.14823
1.21388
1.26134
1.29311
1.31129
1.31809
1.31711
1.31633
1.31696
0.194086
0.211158
0.2647
0.335141
0.418856
0.509821
0.60832
0.713235
0.824177
0.940842
1.0528
1.14541
1.21594
1.26834
1.30458
1.32524
1.33155
1.32628
1.3208
1.31869
0.176401
0.193803
0.247871
0.319095
0.403462
0.495128
0.594439
0.700345
0.812495
0.930882
1.04522
1.1411
1.21626
1.27452
1.3168
1.34237
1.35252
1.34125
1.33747
1.34206
0.159375
0.177113
0.231691
0.303612
0.38856
0.480801
0.580724
0.68737
0.80059
0.92041
1.0365
1.13499
1.21456
1.27871
1.32842
1.36193
1.38002
1.35679
1.31273
1.27137
0.143071
0.161066
0.216113
0.288612
0.374036
0.466709
0.567061
0.674242
0.788249
0.909108
1.02652
1.12709
1.20974
1.27977
1.33795
1.38272
1.41615
1.41547
1.43319
1.48563
0.127533
0.145622
0.201047
0.273949
0.359687
0.452616
0.553202
0.660652
0.775004
0.896437
1.01468
1.11588
1.20074
1.27489
1.33734
1.38511
1.41163
1.40563
1.37248
1.38259
0.112787
0.130797
0.186527
0.259673
0.345594
0.438624
0.539263
0.646716
0.761019
0.88246
1.00092
1.10219
1.18656
1.26008
1.32149
1.3662
1.36617
1.32196
1.26297
1.2526
0.0988273
0.116604
0.172562
0.245788
0.331755
0.42472
0.525225
0.632428
0.746345
0.867309
0.985095
1.085
1.1663
1.2342
1.28865
1.30614
1.27644
1.20575
1.13415
1.11842
0.0856133
0.103045
0.159133
0.232275
0.318154
0.410887
0.511077
0.617792
0.730975
0.850787
0.966946
1.06475
1.13996
1.19546
1.22521
1.21704
1.16777
1.06873
0.982916
0.964358
0.0726875
0.0897105
0.145853
0.218775
0.30444
0.39681
0.496537
0.60257
0.714677
0.832818
0.946913
1.04088
1.10835
1.14828
1.14392
1.11139
1.00685
0.886483
0.780428
0.756241
0.0591531
0.0758073
0.132013
0.204656
0.290042
0.382015
0.481199
0.586397
0.697191
0.813247
0.924016
1.01247
1.07365
1.09014
1.05481
0.97028
0.815386
0.663906
0.536464
0.511029
0.0444959
0.0609229
0.117306
0.189694
0.274784
0.366373
0.464965
0.569221
0.678519
0.792075
0.898881
0.981921
1.03205
1.02078
0.964577
0.816537
0.614699
0.400408
0.219638
0.173198
0.0286234
0.0449755
0.101658
0.173857
0.258692
0.349924
0.447889
0.5511
0.65877
0.769534
0.871329
0.948464
0.983777
0.94131
0.851296
0.659679
0.422537
0.127883
-0.199033
-0.343272
0.0114662
0.0278683
0.0849839
0.157078
0.24172
0.332611
0.429916
0.532016
0.637901
0.745474
0.841388
0.912209
0.929748
0.855559
0.716146
0.503349
0.25991
-0.0946073
-0.694772
-1.27368
-0.00702609
0.00952384
0.0671988
0.13929
0.223852
0.314451
0.411117
0.512077
0.61612
0.720506
0.81049
0.874099
0.873663
0.778891
0.584643
0.340325
0.125523
-0.123805
-0.704336
-2.27095
-0.0268133
-0.0101474
0.0482476
0.120392
0.204939
0.29526
0.39126
0.491017
0.593062
0.694025
0.778148
0.832744
0.813996
0.717444
0.484226
0.233213
0.0744463
0.0251938
0.0192444
-0.38071
-0.0478417
-0.0311907
0.0279422
0.100076
0.184605
0.27457
0.369761
0.468105
0.567858
0.664919
0.743587
0.787716
0.752482
0.669448
0.432181
0.213177
0.0911104
0.0774253
0.125879
0.0827295
-0.0700746
-0.0534546
0.00633481
0.0783232
0.162795
0.252284
0.346493
0.443191
0.540324
0.63288
0.706699
0.74136
0.697218
0.61813
0.396701
0.218406
0.129331
0.121229
0.0737101
0.0653668
-0.0934333
-0.0767168
-0.016556
0.0551166
0.139556
0.228405
0.321438
0.416275
0.510471
0.598298
0.667804
0.693249
0.647017
0.556285
0.368803
0.228359
0.146999
0.179387
0.155934
0.153773
-0.117713
-0.100618
-0.0405992
0.0306081
0.115038
0.203043
0.294742
0.387496
0.478457
0.561685
0.626893
0.642664
0.603449
0.485898
0.330003
0.231326
0.176533
0.139211
0.160695
0.153317
-0.142364
-0.124956
-0.0657182
0.00497464
0.0895161
0.176402
0.266621
0.357205
0.444575
0.523426
0.584235
0.589359
0.560669
0.419438
0.285033
0.214462
0.224268
0.161351
0.187069
0.180339
-0.166841
-0.149331
-0.091545
-0.0212782
0.0632786
0.148786
0.237463
0.325777
0.40922
0.484014
0.541684
0.537796
0.51272
0.366251
0.246515
0.184713
0.218513
0.18475
0.184619
0.183629
-0.190598
-0.173418
-0.117293
-0.0474583
0.036756
0.120656
0.207752
0.293789
0.373013
0.443701
0.499881
0.48839
0.45639
0.324223
0.229566
0.176453
0.161415
0.178419
0.175742
0.179812
-0.212977
-0.196529
-0.141905
-0.0727205
0.0102482
0.0926136
0.1781
0.261861
0.337099
0.403079
0.45921
0.440517
0.397794
0.293792
0.229401
0.189601
0.140588
0.184056
0.177506
0.18646
-0.232971
-0.217618
-0.164582
-0.0962638
-0.0155712
0.0655125
0.149384
0.230765
0.302471
0.362868
0.420329
0.394911
0.335923
0.260397
0.232643
0.24128
0.166246
0.215434
0.20129
0.207218
-0.249537
-0.235652
-0.184603
-0.117604
-0.0396299
0.0403404
0.12244
0.201663
0.270686
0.324283
0.383284
0.352335
0.270349
0.230963
0.255092
0.351648
0.285396
0.258191
0.235587
0.22952
-0.261401
-0.249386
-0.201081
-0.135892
-0.0603002
0.0182704
0.0984658
0.175527
0.242627
0.289448
0.346481
0.317071
0.200384
0.174425
0.244672
0.264266
0.248521
0.219109
0.201065
0.196256
-0.267754
-0.257862
-0.212949
-0.149841
-0.0763496
0.000315793
0.0785627
0.153913
0.219795
0.261766
0.312005
0.289931
0.112593
-0.0475784
-0.137588
-0.203936
-0.201635
-0.170339
-0.137827
-0.115623
-0.267622
-0.259659
-0.218619
-0.158
-0.0867196
-0.0120101
0.0642528
0.138237
0.204002
0.245652
0.283147
0.271358
0.0343216
-0.340116
-0.823782
-1.11015
-1.13975
-1.08281
-0.949471
-0.851354
-0.260269
-0.253106
-0.216686
-0.159159
-0.0904133
-0.0178209
0.0569304
0.130227
0.19745
0.244529
0.27544
0.277736
0.0560254
-0.330996
-0.818326
-1.02396
-1.00574
-0.884638
-0.780384
-0.726499
-0.242284
-0.234895
-0.204829
-0.152234
-0.0866571
-0.0161072
0.0575222
0.131729
0.203412
0.261099
0.301553
0.335501
0.307644
0.30136
0.255364
0.28901
0.388198
0.485538
0.584361
0.669625
-0.20844
-0.201633
-0.181873
-0.136949
-0.0753225
-0.00662349
0.0664381
0.142975
0.222494
0.298785
0.367136
0.482575
0.657748
0.968659
1.25395
1.50283
1.70786
1.83639
1.90287
1.92653
-0.162062
-0.157844
-0.150984
-0.114802
-0.0578699
0.00963842
0.0829313
0.162589
0.251529
0.350441
0.453496
0.606412
0.892109
1.31668
1.73438
2.08889
2.3378
2.48145
2.54431
2.5645
-0.124434
-0.123771
-0.119091
-0.0903906
-0.0379681
0.0288823
0.104265
0.186759
0.280555
0.392058
0.512081
0.636872
0.934123
1.31164
1.68381
2.00574
2.24404
2.38447
2.4467
2.46412
-0.094151
-0.095301
-0.0895985
-0.0681625
-0.0180432
0.0484226
0.124881
0.207752
0.298722
0.406306
0.520466
0.602882
0.833208
1.1301
1.41229
1.65601
1.84852
1.96678
2.02175
2.03876
-0.0624738
-0.0628047
-0.0627361
-0.0465388
0.00314409
0.0681588
0.143036
0.223241
0.307199
0.400542
0.50598
0.564756
0.725276
0.959906
1.18269
1.36556
1.51041
1.60645
1.6504
1.66277
-0.0256818
-0.0263954
-0.0297374
-0.0153395
0.0310045
0.0916615
0.161655
0.235942
0.311223
0.387462
0.482054
0.532417
0.631259
0.808422
0.984111
1.11984
1.22337
1.29635
1.32907
1.3358
0.0327578
0.0317121
0.0280592
0.038739
0.0753913
0.125245
0.185636
0.250123
0.314987
0.377098
0.458631
0.507081
0.562712
0.691205
0.827062
0.926731
1.0006
1.05247
1.07615
1.08417
0.112316
0.11054
0.108804
0.116376
0.1403
0.174886
0.219223
0.269666
0.322978
0.374236
0.441207
0.486273
0.520575
0.612936
0.712038
0.781518
0.835627
0.875427
0.892935
0.8986
0.200791
0.19936
0.19805
0.202027
0.214835
0.235199
0.262248
0.296735
0.338613
0.377657
0.429783
0.468793
0.49259
0.562108
0.632229
0.678192
0.719598
0.750639
0.763831
0.767429
0.281184
0.280076
0.279027
0.280073
0.28481
0.293975
0.307833
0.327809
0.357527
0.383535
0.420032
0.454598
0.466424
0.523976
0.575052
0.606954
0.634631
0.653597
0.66352
0.666532
0.343704
0.342864
0.3416
0.340127
0.339698
0.341503
0.346965
0.356055
0.373909
0.389646
0.412022
0.439565
0.444352
0.490647
0.526619
0.551525
0.570069
0.57977
0.583765
0.584368
0.384296
0.383755
0.382445
0.379531
0.375699
0.37324
0.373711
0.376611
0.385609
0.395117
0.408445
0.423121
0.43234
0.46032
0.486182
0.504688
0.516448
0.522104
0.522758
0.521444
0.406846
0.406389
0.405135
0.402011
0.396978
0.392624
0.390245
0.389784
0.393877
0.399321
0.40777
0.413955
0.421813
0.438081
0.455379
0.467417
0.473763
0.47572
0.475167
0.473373
0.417761
0.417369
0.416208
0.413512
0.408762
0.404259
0.400704
0.398606
0.399974
0.402724
0.407567
0.410599
0.413116
0.424143
0.434086
0.439499
0.442261
0.439669
0.436761
0.435478
0.421958
0.421653
0.420668
0.418544
0.414676
0.411009
0.407691
0.40509
0.405314
0.406224
0.407559
0.408008
0.406878
0.416634
0.422837
0.424633
0.424198
0.422062
0.419064
0.417707
0.422617
0.422411
0.42171
0.420085
0.41722
0.414458
0.411902
0.409453
0.409566
0.409043
0.408141
0.405458
0.401662
0.414241
0.421859
0.424237
0.426959
0.430138
0.430408
0.427223
0.420849
0.420721
0.420302
0.419168
0.417233
0.415215
0.413881
0.412104
0.412908
0.411815
0.411492
0.407576
0.404178
0.415916
0.427432
0.435024
0.439175
0.440097
0.440561
0.438425
0.417271
0.417251
0.41714
0.416467
0.415452
0.414193
0.413817
0.413875
0.416737
0.416728
0.42144
0.418553
0.418247
0.426582
0.435044
0.439713
0.438201
0.434313
0.433158
0.433286
0.410974
0.411155
0.411492
0.411795
0.411684
0.411782
0.411302
0.414645
0.419268
0.420706
0.434603
0.434508
0.434026
0.439065
0.442993
0.446023
0.447469
0.449234
0.44991
0.450434
0.399847
0.400122
0.400842
0.402219
0.402917
0.404718
0.405017
0.409306
0.416643
0.42738
0.441439
0.450175
0.447361
0.451846
0.459733
0.473618
0.493895
0.50815
0.512323
0.50843
0.383232
0.383926
0.384236
0.385104
0.386598
0.38994
0.393971
0.40085
0.409379
0.422322
0.440701
0.456763
0.459561
0.463644
0.477446
0.493996
0.515582
0.533013
0.53967
0.530515
0.359731
0.360683
0.361749
0.363272
0.365263
0.368626
0.373564
0.380836
0.390055
0.406752
0.430525
0.445812
0.458008
0.447449
0.455034
0.464621
0.468351
0.470678
0.47626
0.473085
0.325403
0.326364
0.327666
0.329885
0.332743
0.33672
0.341552
0.346987
0.354842
0.368204
0.389237
0.406405
0.407608
0.395181
0.40004
0.406913
0.405397
0.395409
0.396575
0.398006
0.280898
0.281895
0.283226
0.2853
0.288179
0.291428
0.293918
0.294469
0.294825
0.302588
0.328574
0.351705
0.331629
0.335338
0.353206
0.366008
0.387094
0.390757
0.377193
0.384271
0.224612
0.225482
0.226848
0.229137
0.231628
0.233253
0.231354
0.225208
0.214533
0.212732
0.246005
0.284101
0.269641
0.286973
0.324397
0.338616
0.364133
0.388254
0.365045
0.369896
0.162397
0.162794
0.163506
0.165006
0.165986
0.164125
0.155244
0.137458
0.106251
0.0957249
0.139432
0.206626
0.211359
0.221268
0.257197
0.279014
0.273824
0.288168
0.285355
0.283741
0.0993061
0.0988804
0.0993488
0.101097
0.101002
0.0945686
0.0757788
0.0409103
-0.00942249
-0.0178851
0.039777
0.110572
0.121631
0.142606
0.168168
0.203411
0.18979
0.172966
0.187793
0.184254
0.0500638
0.0494552
0.0503816
0.0494392
0.0433595
0.0291048
0.00379265
-0.0377081
-0.0916287
-0.108054
-0.0535905
0.0132816
0.0197841
0.088455
0.110411
0.120469
0.160672
0.120023
0.13204
0.127017
0.0229827
0.0220209
0.0209205
0.0194344
0.0161119
0.00623372
-0.0168574
-0.0598257
-0.110861
-0.121318
-0.0596598
0.0284819
0.0133307
0.0159211
0.00135143
-0.00594345
0.0427766
0.0444497
0.044629
0.0428003
-0.700153
0.163012
0.434882
0.718253
0.90764
1.07128
1.20729
1.34535
1.49372
1.57149
0.300298
0.718665
0.741446
0.934543
1.06567
1.18298
1.28468
1.37445
1.40377
1.36026
0.694104
0.914372
0.954155
1.0933
1.18405
1.2678
1.33686
1.38839
1.39172
1.40461
0.931212
1.08095
1.11683
1.22318
1.28107
1.34198
1.38834
1.42149
1.4311
1.45436
1.11818
1.22041
1.25088
1.32234
1.36674
1.40996
1.44294
1.46768
1.47788
1.50909
1.26237
1.33381
1.36427
1.40919
1.44596
1.47703
1.50195
1.52289
1.5374
1.56543
1.38365
1.43556
1.4616
1.49058
1.51906
1.54337
1.56374
1.58318
1.5983
1.62463
1.48859
1.52676
1.54811
1.56927
1.59069
1.61049
1.62813
1.64639
1.66134
1.68496
1.58375
1.61271
1.62991
1.64559
1.66213
1.67846
1.69416
1.71119
1.72479
1.7471
1.67261
1.69345
1.7086
1.72201
1.73581
1.74974
1.76328
1.7779
1.78943
1.80909
1.75886
1.77474
1.7887
1.80068
1.81271
1.82438
1.83551
1.84718
1.85484
1.87166
1.84438
1.85732
1.87111
1.88278
1.89335
1.90309
1.91186
1.92009
1.92365
1.93494
1.9337
1.9447
1.95817
1.96738
1.97481
1.982
1.98919
1.99573
1.99674
2.00417
2.03213
2.03687
2.04491
2.0494
2.05268
2.05714
2.06314
2.07089
2.07472
2.08461
2.14544
2.13174
2.1243
2.11869
2.11602
2.11743
2.1239
2.1363
2.15107
2.18072
2.26636
2.21062
2.17977
2.16269
2.15454
2.15452
2.16324
2.18278
2.21476
2.28395
)
;

boundaryField
{
    wall-4
    {
        type            zeroGradient;
    }
    pressure-outlet-7
    {
        type            fixedValue;
        value           uniform 0;
    }
    velocity-inlet-6
    {
        type            zeroGradient;
    }
    velocity-inlet-5
    {
        type            zeroGradient;
    }
    frontAndBackPlanes
    {
        type            empty;
    }
}


// ************************************************************************* //
