/*--------------------------------*- C++ -*----------------------------------*\
  =========                 |
  \\      /  F ield         | OpenFOAM: The Open Source CFD Toolbox
   \\    /   O peration     | Website:  https://openfoam.org
    \\  /    A nd           | Version:  9
     \\/     M anipulation  |
\*---------------------------------------------------------------------------*/
FoamFile
{
    format      ascii;
    class       surfaceScalarField;
    location    "32";
    object      phi;
}
// * * * * * * * * * * * * * * * * * * * * * * * * * * * * * * * * * * * * * //

dimensions      [0 3 -1 0 0 0 0];

internalField   nonuniform List<scalar> 
4262
(
0.107138
0.47085
0.0955683
0.705156
0.0693699
0.858501
0.0473241
1.02081
0.0309012
1.21494
0.0197213
1.4494
0.012378
1.73321
0.00720996
2.0762
0.00329105
2.48916
-0.000207746
2.98579
-0.00377133
2.98586
-0.00774337
2.48922
-0.0128877
2.07618
-0.020007
1.73298
-0.0309906
1.4492
-0.0472508
1.21478
-0.0691507
1.02066
-0.0953746
0.858527
-0.107115
0.705326
0.470873
0.112906
0.357944
0.135342
0.68272
0.120501
0.873342
0.0980123
1.0433
0.0747821
1.23817
0.0530745
1.47111
0.0347491
1.75153
0.020524
2.09043
0.00916712
2.50052
-0.0010463
2.996
-0.0111886
2.996
-0.0222133
2.50024
-0.0361252
2.09009
-0.0544713
1.75133
-0.0762717
1.471
-0.0996872
1.23819
-0.122434
1.04341
-0.136493
0.872586
-0.113397
0.68223
0.357476
0.0920885
0.265856
0.125066
0.649743
0.121263
0.877145
0.105098
1.05946
0.0866572
1.25661
0.0675349
1.49023
0.0483957
1.77067
0.0303359
2.10849
0.0140256
2.51683
-0.00162759
3.01166
-0.0170838
3.01145
-0.0331669
2.51632
-0.051032
2.10796
-0.0698192
1.77012
-0.0882948
1.48948
-0.105842
1.25574
-0.120792
1.05836
-0.12541
0.877205
-0.0923426
0.649162
0.265134
0.0639605
0.201895
0.104787
0.608916
0.106494
0.875438
0.095056
1.0709
0.081153
1.27051
0.066667
1.50472
0.0507096
1.78663
0.0336748
2.12552
0.016014
2.53449
-0.00261414
3.03029
-0.0211116
3.02995
-0.0384056
2.53362
-0.0547778
2.12433
-0.0698588
1.7852
-0.0837178
1.50334
-0.0974239
1.26945
-0.108946
1.06988
-0.106268
0.874527
-0.064539
0.607433
0.200595
0.0375278
0.164368
0.0809326
0.565511
0.0913927
0.864978
0.0841748
1.07812
0.0714066
1.28328
0.0594003
1.51672
0.0467041
1.79933
0.032222
2.14001
0.0157438
2.55097
-0.00323109
3.04926
-0.0219266
3.04865
-0.0378171
2.54951
-0.0515586
2.13807
-0.0638703
1.79751
-0.0754929
1.51496
-0.0876513
1.2816
-0.0941437
1.07637
-0.0826927
0.863076
-0.0381868
0.562928
0.162408
0.0195072
0.14486
0.0572177
0.5278
0.0726418
0.849554
0.0706543
1.08011
0.0619102
1.29203
0.0509743
1.52766
0.0397909
1.81051
0.027506
2.15229
0.0129037
2.56557
-0.00441479
3.06658
-0.0213591
3.06559
-0.0350505
2.5632
-0.0464498
2.14947
-0.0565676
1.80763
-0.0665949
1.52499
-0.0745688
1.28958
-0.0757347
1.07754
-0.0591261
0.846467
-0.0201251
0.523927
0.142283
0.01054
0.13432
0.0421496
0.496191
0.0582525
0.833451
0.0587754
1.07958
0.0529718
1.29783
0.0439519
1.53668
0.0338805
1.82058
0.0227298
2.16344
0.00996505
2.57834
-0.00547866
3.08202
-0.0206281
3.08074
-0.032663
2.57523
-0.0428394
2.15965
-0.0517404
1.81653
-0.0597941
1.53304
-0.0644151
1.2942
-0.0625931
1.07572
-0.0447834
0.828658
-0.0113624
0.490506
0.13092
0.00658583
0.127735
0.0330407
0.469736
0.0494393
0.817052
0.0512085
1.07781
0.0465714
1.30247
0.0386664
1.54458
0.0292045
1.83004
0.0183397
2.17431
0.00636379
2.59031
-0.00708624
3.09547
-0.0199434
3.0936
-0.0307506
2.58604
-0.0400002
2.1689
-0.0480816
1.82461
-0.0545507
1.53951
-0.0576932
1.29734
-0.0544061
1.07243
-0.036046
0.810298
-0.00752617
0.461986
0.123394
0.00472693
0.123008
0.0264024
0.448061
0.0422018
0.801253
0.0444821
1.07553
0.0402837
1.30666
0.0333488
1.55152
0.0248894
1.8385
0.0149071
2.18429
0.00360392
2.60161
-0.00853671
3.10761
-0.0201125
3.10517
-0.0300299
2.59596
-0.0385011
2.17737
-0.0451536
1.83126
-0.050413
1.54477
-0.053015
1.29994
-0.0486909
1.06811
-0.0301372
0.791744
-0.00586485
0.437713
0.117529
0.00349061
0.119517
0.0208553
0.430696
0.0358222
0.786286
0.038675
1.07268
0.0346262
1.31071
0.027816
1.55833
0.0197896
1.84653
0.0105086
2.19357
0.000151003
2.61197
-0.0110688
3.11883
-0.0215742
3.11568
-0.0301005
2.60448
-0.0371967
2.18446
-0.0428474
1.83691
-0.0473544
1.54928
-0.0490699
1.30166
-0.0435996
1.06264
-0.0253959
0.77354
-0.0049505
0.417268
0.112579
0.00260659
0.116911
0.0160962
0.417206
0.0294218
0.77296
0.0325465
1.06956
0.0289603
1.3143
0.022682
1.56461
0.0153712
1.85384
0.00700242
2.20194
-0.00253521
2.62151
-0.0132043
3.1295
-0.0228866
3.12536
-0.030337
2.61194
-0.0360667
2.19019
-0.041083
1.84193
-0.0450709
1.55327
-0.0459955
1.30258
-0.0393552
1.056
-0.0216728
0.755858
-0.00435961
0.399955
0.108219
0.00194355
0.114967
0.0121113
0.407038
0.0239203
0.761151
0.0271147
1.06636
0.02372
1.31769
0.0176103
1.57072
0.0105431
1.86091
0.0026518
2.20983
-0.00646623
2.63063
-0.01706
3.1401
-0.0263792
3.13468
-0.032715
2.61827
-0.0371487
2.19463
-0.0406019
1.84538
-0.0431825
1.55585
-0.0428283
1.30223
-0.0354238
1.04859
-0.0187482
0.739182
-0.0040563
0.385263
0.104163
0.00118656
0.11378
0.0082822
0.399943
0.0177346
0.751699
0.0202997
1.0638
0.0171409
1.32085
0.0114677
1.57639
0.00478084
1.86759
-0.00271894
2.21733
-0.0112578
2.63917
-0.0206859
3.14952
-0.0286286
3.14262
-0.0337357
2.62338
-0.0370023
2.19789
-0.0398343
1.84821
-0.0413433
1.55735
-0.04029
1.30118
-0.0323352
1.04064
-0.0164204
0.723268
-0.00388248
0.372725
0.100281
0.000292061
0.113488
0.00391803
0.396317
0.0109994
0.744618
0.01319
1.06161
0.0101158
1.32393
0.00462904
1.58188
-0.0021297
1.87435
-0.00971568
2.22492
-0.017733
2.64718
-0.0255348
3.15733
-0.031575
3.14866
-0.0354621
2.62727
-0.0380944
2.20053
-0.0395721
1.84969
-0.0395566
1.55734
-0.0372329
1.29885
-0.0285462
1.03195
-0.0138693
0.708591
-0.00349261
0.362348
0.0967879
-0.000644746
0.114133
9.31306e-05
0.395579
0.00466557
0.740045
0.00545104
1.06082
0.00243983
1.32694
-0.0025619
1.58688
-0.00904937
1.88084
-0.0165229
2.23239
-0.0243153
2.65498
-0.0314285
3.16444
-0.0365073
3.15374
-0.0392188
2.62998
-0.040388
2.2017
-0.0400569
1.84936
-0.038858
1.55614
-0.035214
1.29521
-0.0259029
1.02264
-0.0120893
0.694777
-0.00313451
0.353393
0.0936534
-0.00186651
0.116
-0.00355758
0.39727
-0.00225628
0.738744
-0.00185951
1.06042
-0.00534127
1.33042
-0.0108066
1.59234
-0.0174365
1.88747
-0.024862
2.23982
-0.0326255
2.66274
-0.0394874
3.1713
-0.0434683
3.15772
-0.0445264
2.63103
-0.0438154
2.20098
-0.0421567
1.8477
-0.0394474
1.55343
-0.0341338
1.28989
-0.0240155
1.01252
-0.0111591
0.681921
-0.00306212
0.345296
0.0905913
-0.00302866
0.119028
-0.00704476
0.401286
-0.00923832
0.740937
-0.0113159
1.0625
-0.0152293
1.33433
-0.0207915
1.5979
-0.0274508
1.89413
-0.0348043
2.24717
-0.0421091
2.67004
-0.0481393
3.17733
-0.0508549
3.16044
-0.050262
2.63044
-0.0476924
2.19842
-0.0446368
1.84465
-0.0404194
1.54921
-0.034273
1.28375
-0.0237035
1.00195
-0.0112239
0.669441
-0.00320373
0.337276
0.0873875
-0.00400687
0.123035
-0.0110886
0.408368
-0.0161634
0.746012
-0.020178
1.06652
-0.0254852
1.33964
-0.0324121
1.60483
-0.0401179
1.90183
-0.0478923
2.25494
-0.0550568
2.67721
-0.0600378
3.18231
-0.0605532
3.16095
-0.0576741
2.62756
-0.0536657
2.19441
-0.0491381
1.84012
-0.0432742
1.54335
-0.0354384
1.27591
-0.0239757
0.990488
-0.0117538
0.657219
-0.00349196
0.329014
0.0838956
-0.00523998
0.128275
-0.0150336
0.418161
-0.0235853
0.754564
-0.0299126
1.07284
-0.0364366
1.34616
-0.0444416
1.61284
-0.0531461
1.91054
-0.0619952
2.26379
-0.0696002
2.68481
-0.0739279
3.18664
-0.0728774
3.1599
-0.0683605
2.62305
-0.0619361
2.18798
-0.055006
1.83319
-0.047672
1.53602
-0.0388074
1.26705
-0.0266327
0.978313
-0.0135672
0.644154
-0.00403924
0.319486
0.0798564
-0.00634953
0.134625
-0.0182924
0.430104
-0.0299806
0.766252
-0.0391098
1.08197
-0.04794
1.35499
-0.0578386
1.62274
-0.0683304
1.92103
-0.0786525
2.27411
-0.0872398
2.6934
-0.0918399
3.19124
-0.0895396
3.1576
-0.0829114
2.61642
-0.0745703
2.17964
-0.0659399
1.82456
-0.0567154
1.52679
-0.0456692
1.256
-0.0311974
0.963842
-0.0162718
0.629228
-0.0049038
0.308118
0.0749526
-0.00860196
0.143227
-0.024399
0.445901
-0.0397646
0.781618
-0.0515391
1.09375
-0.0622448
1.3657
-0.0742537
1.63474
-0.0868092
1.93359
-0.0990279
2.28633
-0.108979
2.70335
-0.113433
3.19569
-0.109537
3.15371
-0.101044
2.60792
-0.0904021
2.169
-0.0792137
1.81337
-0.0674852
1.51506
-0.0540115
1.24253
-0.0373047
0.947135
-0.0197707
0.611694
-0.00591164
0.294259
0.0690409
-0.0106809
0.153908
-0.0302659
0.465486
-0.0498104
0.801162
-0.0653633
1.1093
-0.0795998
1.37994
-0.0946462
1.64979
-0.11006
1.949
-0.124579
2.30085
-0.135347
2.71412
-0.139067
3.19941
-0.134025
3.14867
-0.123326
2.59723
-0.110241
2.15591
-0.0967045
1.79983
-0.0823674
1.50073
-0.0651312
1.22529
-0.0443133
0.926317
-0.0233487
0.59073
-0.00692503
0.277836
0.0621159
-0.0151603
0.169068
-0.0414563
0.491782
-0.0664383
0.826144
-0.085894
1.12876
-0.102886
1.39693
-0.121103
1.66801
-0.139725
1.96762
-0.156447
2.31757
-0.168445
2.72612
-0.17181
3.20278
-0.163938
3.14079
-0.149962
2.58325
-0.13371
2.13966
-0.11618
1.7823
-0.0975929
1.48214
-0.0762959
1.204
-0.0520775
0.902098
-0.0275659
0.566218
-0.0079795
0.258249
0.0541364
-0.0190233
0.188091
-0.0531588
0.525918
-0.086169
0.859154
-0.111687
1.15427
-0.134408
1.41965
-0.157288
1.69089
-0.178733
1.98907
-0.196931
2.33577
-0.208309
2.7375
-0.208635
3.20311
-0.197554
3.12971
-0.180792
2.56649
-0.161265
2.12014
-0.140428
1.76147
-0.117965
1.45968
-0.0918249
1.17786
-0.061959
0.872233
-0.0321035
0.536363
-0.0089831
0.235129
0.0451533
-0.0327005
0.220792
-0.07905
0.572267
-0.120384
0.900488
-0.152378
1.18627
-0.180356
1.44763
-0.206329
1.71686
-0.22953
2.01227
-0.247554
2.3538
-0.257276
2.74722
-0.254745
3.20057
-0.23913
3.1141
-0.216959
2.54432
-0.192323
2.0955
-0.166142
1.73529
-0.138134
1.43167
-0.106885
1.14661
-0.0723578
0.837705
-0.037609
0.501614
-0.0102223
0.207742
0.0349309
-0.0470633
0.267855
-0.116828
0.642033
-0.173417
0.957077
-0.212183
1.22503
-0.24488
1.48032
-0.273095
1.74508
-0.295542
2.03471
-0.310593
2.36885
-0.314782
2.75141
-0.304383
3.19018
-0.281056
3.09077
-0.253764
2.51702
-0.225118
2.06685
-0.19545
1.70562
-0.163707
1.39992
-0.127219
1.11012
-0.0853313
0.795818
-0.0416411
0.457923
-0.0100623
0.176163
0.0248687
-0.032679
0.300534
-0.0913395
0.700693
-0.143486
1.00922
-0.187227
1.26878
-0.228026
1.52112
-0.263359
1.78041
-0.297422
2.06878
-0.327589
2.39901
-0.349677
2.7735
-0.357666
3.19817
-0.347009
3.08011
-0.321639
2.49165
-0.285954
2.03117
-0.242545
1.66221
-0.194591
1.35197
-0.142722
1.05825
-0.0866928
0.739788
-0.0364991
0.40773
-0.00798145
0.147646
0.0168872
-0.0109575
0.311491
-0.0417824
0.731518
-0.0796095
1.04705
-0.115827
1.30499
-0.15101
1.55631
-0.18464
1.81404
-0.216018
2.10016
-0.24231
2.42531
-0.259569
2.79075
-0.261028
3.19962
-0.241253
3.06034
-0.208377
2.45878
-0.170771
1.99356
-0.132193
1.62363
-0.0922494
1.31203
-0.0528428
1.01884
-0.0208589
0.707805
-0.00271047
0.389581
0.00103086
0.143904
0.0179181
0.00227356
0.309218
-0.0193246
0.753116
-0.0468213
1.07455
-0.0754043
1.33358
-0.104343
1.58525
-0.133286
1.84298
-0.160796
2.12767
-0.183636
2.44815
-0.197663
2.80478
-0.19673
3.19869
-0.177492
3.0411
-0.148927
2.43021
-0.115
1.95964
-0.0767798
1.58541
-0.0390529
1.2743
-0.00734293
0.987133
0.0124236
0.688038
0.0142475
0.387757
0.00567676
0.152475
0.0235948
0.00256536
0.306652
-0.00857316
0.764255
-0.0287676
1.09474
-0.0524459
1.35725
-0.0767494
1.60955
-0.101327
1.86756
-0.124815
2.15115
-0.144169
2.4675
-0.155096
2.81571
-0.151384
3.19498
-0.131767
3.02148
-0.103088
2.40153
-0.0688893
1.92544
-0.0355647
1.55209
-0.00807544
1.24681
0.0119806
0.967077
0.0216245
0.678394
0.018107
0.391275
0.0066353
0.163947
0.0302301
0.00474823
0.301904
-0.00321855
0.772222
-0.0206483
1.11217
-0.0403856
1.37699
-0.0608894
1.63005
-0.0819687
1.88864
-0.102274
2.17146
-0.119176
2.4844
-0.12897
2.8255
-0.126365
3.19237
-0.109005
3.00412
-0.0827999
2.37533
-0.0557571
1.8984
-0.0302219
1.52655
-0.00526274
1.22185
0.0140887
0.947725
0.0212079
0.671275
0.0160173
0.396466
0.00545291
0.174511
0.0356831
0.00577168
0.296132
0.000486811
0.777506
-0.0148776
1.12754
-0.0330351
1.39515
-0.0516822
1.6487
-0.0705987
1.90755
-0.0888062
2.18967
-0.104076
2.49967
-0.112667
2.83409
-0.108666
3.18837
-0.0913378
2.9868
-0.0699208
2.35391
-0.046423
1.8749
-0.0215911
1.50172
-0.000558147
1.20082
0.0132699
0.933897
0.018432
0.666113
0.0126174
0.40228
0.00399062
0.183138
0.0396737
0.00380499
0.292327
-0.000244012
0.781555
-0.0135899
1.14088
-0.0299261
1.41149
-0.0469615
1.66574
-0.0643078
1.9249
-0.0812482
2.20661
-0.0957753
2.5142
-0.104428
2.84275
-0.103334
3.18728
-0.0900307
2.97349
-0.0688955
2.33278
-0.0456116
1.85161
-0.0253602
1.48147
-0.00727177
1.18273
0.00587482
0.920751
0.0101167
0.661871
0.00786686
0.40453
0.00267116
0.188334
0.0423448
0.00256283
0.289765
-0.000755672
0.784874
-0.0128477
1.15297
-0.0282682
1.42691
-0.0446379
1.68211
-0.0611842
1.94145
-0.0773956
2.22282
-0.0914783
2.52828
-0.100328
2.8516
-0.099306
3.18626
-0.085713
2.9599
-0.0680414
2.31511
-0.0493935
1.83297
-0.0297806
1.46186
-0.0146217
1.16757
-0.00356176
0.909691
0.00169096
0.656618
0.000508524
0.405712
0.00025524
0.188587
0.0426001
-0.000207604
0.289972
-0.00383848
0.788505
-0.0144229
1.16356
-0.0283476
1.44083
-0.0438295
1.69759
-0.0598096
1.95743
-0.0756547
2.23866
-0.0898885
2.54252
-0.0996731
2.86138
-0.10021
3.18679
-0.0897405
2.94943
-0.072367
2.29773
-0.0536572
1.81426
-0.0388549
1.44705
-0.0242155
1.15293
-0.0139336
0.899409
-0.00796441
0.650649
-0.00417615
0.401924
-0.00124972
0.185661
0.0413504
-0.000697491
0.29067
-0.00568559
0.793493
-0.0158878
1.17376
-0.0289069
1.45385
-0.0437961
1.71248
-0.0593832
1.97301
-0.0751754
2.25446
-0.0897741
2.55711
-0.100336
2.87194
-0.10301
3.18947
-0.0940106
2.94043
-0.0785521
2.28227
-0.0620913
1.79779
-0.0447457
1.42971
-0.0309853
1.13917
-0.0195364
0.88796
-0.0117052
0.642818
-0.00699114
0.39721
-0.0021095
0.180779
0.0392409
-0.00262376
0.293293
-0.00804157
0.798911
-0.0175831
1.1833
-0.0298546
1.46612
-0.0440767
1.7267
-0.0594115
1.98835
-0.075427
2.27047
-0.0907985
2.57249
-0.103193
2.88434
-0.108503
3.19478
-0.100832
2.93276
-0.0859675
2.26741
-0.0683653
1.78019
-0.0526609
1.414
-0.0387735
1.12528
-0.0276591
0.876845
-0.0183123
0.633471
-0.00899514
0.387893
-0.00274826
0.174532
0.0364926
-0.00389579
0.297189
-0.0094707
0.804486
-0.0188327
1.19266
-0.0307563
1.47804
-0.0445156
1.74046
-0.0595616
2.0034
-0.0756127
2.28652
-0.091274
2.58815
-0.104044
2.89711
-0.109812
3.20054
-0.104785
2.92773
-0.091926
2.25455
-0.0766869
1.76495
-0.0597943
1.39711
-0.045155
1.11064
-0.0315826
0.863273
-0.0202393
0.622128
-0.0109497
0.378603
-0.00322127
0.166804
0.0332713
-0.00442406
0.301613
-0.0108102
0.810872
-0.0200388
1.20189
-0.0314974
1.4895
-0.0447636
1.75372
-0.0595599
2.01819
-0.0757457
2.30271
-0.0924006
2.6048
-0.108048
2.91275
-0.119143
3.21164
-0.117853
2.92644
-0.105276
2.24197
-0.0853794
1.74506
-0.0677402
1.37947
-0.0510631
1.09397
-0.0378439
0.850054
-0.0252818
0.609565
-0.0118553
0.365177
-0.00331467
0.158263
0.0299567
-0.00448502
0.306098
-0.011335
0.817722
-0.0206424
1.2112
-0.0319235
1.50078
-0.0449093
1.76671
-0.0594493
2.03273
-0.0756977
2.31896
-0.0928699
2.62197
-0.108769
2.92865
-0.119381
3.22225
-0.119835
2.9269
-0.110511
2.23265
-0.0958726
1.73042
-0.0752105
1.35881
-0.0569971
1.07575
-0.0400108
0.833067
-0.0249917
0.594546
-0.0125374
0.352723
-0.0032255
0.148951
0.0267312
-0.00455289
0.310651
-0.0118752
0.825044
-0.0210588
1.22038
-0.0320092
1.51174
-0.0446687
1.77937
-0.0590235
2.04709
-0.0753319
2.33526
-0.0929819
2.63962
-0.111113
2.94679
-0.127706
3.23884
-0.132553
2.93174
-0.12214
2.22224
-0.102416
1.71069
-0.0824663
1.33886
-0.0610479
1.05433
-0.0439127
0.815932
-0.0285501
0.579184
-0.012453
0.336626
-0.00285898
0.139357
0.0238722
-0.00456507
0.315216
-0.0119201
0.832399
-0.0209834
1.22945
-0.0317586
1.52251
-0.0442112
1.79182
-0.0583429
2.06122
-0.0745909
2.35151
-0.0927356
2.65777
-0.111521
2.96557
-0.127061
3.25438
-0.133223
2.93791
-0.128521
2.21753
-0.115055
1.69723
-0.0909263
1.31473
-0.0665311
1.02994
-0.0419698
0.791371
-0.0223427
0.559557
-0.0100431
0.324326
-0.00205195
0.131366
0.0218202
-0.00460482
0.319821
-0.0120141
0.839808
-0.0207864
1.23822
-0.03121
1.53293
-0.0433517
1.80396
-0.0572927
2.07516
-0.0735296
2.36775
-0.0919514
2.67619
-0.111964
2.98558
-0.131972
3.27439
-0.144514
2.95045
-0.140236
2.21325
-0.12215
1.67914
-0.0992555
1.29184
-0.0696038
1.00029
-0.0427234
0.764491
-0.0199261
0.536759
-0.00552912
0.309929
-0.00225159
0.128088
0.0195686
-0.00453097
0.324352
-0.0117549
0.847032
-0.0202944
1.24676
-0.0304445
1.54308
-0.042288
1.81581
-0.055956
2.08883
-0.0720534
2.38385
-0.090655
2.69479
-0.111319
3.00625
-0.131447
3.29452
-0.143449
2.96245
-0.145538
2.21534
-0.13603
1.66963
-0.110205
1.26601
-0.0764129
0.966495
-0.0346706
0.722748
0.00453892
0.49755
0.0246082
0.28986
0.0219317
0.130765
0.0415003
-0.00441045
0.328763
-0.0115236
0.854145
-0.0197247
1.25496
-0.0294603
1.55282
-0.0409111
1.82726
-0.0543054
2.10222
-0.0702407
2.39978
-0.0888898
2.71344
-0.110279
3.02764
-0.133784
3.31802
-0.151917
2.98058
-0.156838
2.22026
-0.144243
1.65704
-0.121361
1.24313
-0.0818435
0.926977
-0.0361553
0.67706
0.0162247
0.44517
0.0369541
0.26913
0.0161974
0.151522
0.0576977
-0.00419345
0.332956
-0.0110499
0.861002
-0.0189779
1.26289
-0.0283623
1.5622
-0.0394572
1.83835
-0.052477
2.11524
-0.0681382
2.41544
-0.0867989
2.7321
-0.108665
3.0495
-0.132378
3.34174
-0.150119
2.99833
-0.159179
2.22932
-0.159158
1.65702
-0.137776
1.22175
-0.0991509
0.888352
-0.0306956
0.608605
0.0720725
0.342402
0.168712
0.172491
0.174464
0.14577
0.232162
-0.00403781
0.336994
-0.0108194
0.867783
-0.0186162
1.27068
-0.0279172
1.5715
-0.0391352
1.84957
-0.0525951
2.1287
-0.0691462
2.43199
-0.0893263
2.75228
-0.113802
3.07398
-0.142949
3.37088
-0.169915
3.02529
-0.185575
2.24499
-0.183966
1.65541
-0.168335
1.20612
-0.128485
0.848502
-0.0827669
0.562887
-0.10893
0.368565
-0.363382
0.426943
-0.929337
0.711725
0.89491
-1.59209
-0.00383141
0.340825
-0.0103626
0.874315
-0.0179772
1.2783
-0.0271207
1.58065
-0.0382013
1.86065
-0.0516949
2.14219
-0.0685798
2.44888
-0.089655
2.77336
-0.11599
3.10031
-0.147961
3.40285
-0.176949
3.05428
-0.198363
2.2664
-0.218106
1.67515
-0.219047
1.20706
-0.210217
0.839671
-0.289758
0.642428
-0.689527
0.768333
-1.41535
1.15277
-2.02856
1.32493
1.2195
-2.35315
-0.00362741
0.344453
-0.00990367
0.880591
-0.0172259
1.28562
-0.0261063
1.58953
-0.03702
1.87156
-0.0505722
2.15575
-0.0677964
2.4661
-0.0896537
2.79521
-0.117672
3.12833
-0.153511
3.43869
-0.191391
3.09216
-0.22406
2.29907
-0.243379
1.69447
-0.25
1.21368
-0.337991
0.927662
-0.748127
1.05256
-1.5145
1.5347
-2.09421
1.73249
-2.33756
1.56827
1.33553
-2.45358
-0.00339752
0.34785
-0.00931321
0.886507
-0.0163784
1.29269
-0.0250459
1.5982
-0.0357606
1.88228
-0.0492665
2.16925
-0.0666865
2.48352
-0.0892933
2.81782
-0.119054
3.15809
-0.158492
3.47813
-0.200821
3.13449
-0.236854
2.3351
-0.278856
1.73647
-0.36973
1.30456
-0.697197
1.25513
-1.41708
1.77245
-2.01429
2.13192
-2.25737
1.97556
-2.37258
1.68348
1.40168
-2.43873
-0.00313522
0.350985
-0.00867991
0.892051
-0.0153739
1.29938
-0.0237143
1.60654
-0.0342689
1.89283
-0.0477471
2.18273
-0.0653734
2.50115
-0.0885984
2.84105
-0.119813
3.18931
-0.162323
3.52064
-0.212245
3.18441
-0.263403
2.38626
-0.315058
1.78813
-0.491707
1.4812
-1.07754
1.84096
-1.76831
2.46322
-2.09926
2.46287
-2.25132
2.12762
-2.33505
1.76721
1.46777
-2.40114
-0.00302659
0.354012
-0.00843579
0.89746
-0.0151322
1.30608
-0.0235411
1.61495
-0.0343128
1.90361
-0.0480013
2.19642
-0.0660484
2.5192
-0.0901326
2.86513
-0.123
3.22217
-0.169767
3.56741
-0.227018
3.24166
-0.279712
2.43895
-0.375351
1.88376
-0.750848
1.8567
-1.47251
2.56262
-1.95664
2.94735
-2.15944
2.66567
-2.26727
2.23545
-2.34471
1.84465
1.53244
-2.40938
-0.00307796
0.35709
-0.008735
0.903117
-0.0157306
1.31307
-0.0245125
1.62373
-0.0357853
1.91488
-0.050131
2.21077
-0.0690362
2.5381
-0.0942781
2.89037
-0.129078
3.25697
-0.178586
3.61692
-0.237435
3.30051
-0.307569
2.50909
-0.496292
2.07249
-1.03212
2.39253
-1.66185
3.19235
-1.94741
3.23291
-2.09698
2.81524
-2.21281
2.35128
-2.30722
1.93907
1.59551
-2.37029
-0.00307459
0.360165
-0.00896824
0.909011
-0.0164218
1.32053
-0.0257312
1.63304
-0.0374933
1.92664
-0.0524285
2.2257
-0.0721082
2.55778
-0.0985219
2.91679
-0.134944
3.29339
-0.188177
3.67015
-0.256608
3.36894
-0.34933
2.60181
-0.621418
2.34457
-1.24612
3.01724
-1.74394
3.69016
-1.95447
3.44344
-2.0983
2.95907
-2.22489
2.47786
-2.33871
2.05289
1.65561
-2.39881
-0.00300374
0.363168
-0.0091709
0.915178
-0.0169872
1.32834
-0.0267335
1.64278
-0.0390471
1.93895
-0.0547088
2.24136
-0.0752956
2.57837
-0.102898
2.94439
-0.141345
3.33184
-0.196964
3.72577
-0.266062
3.43804
-0.389829
2.72558
-0.762561
2.71731
-1.3901
3.64477
-1.75586
4.05593
-1.93314
3.62072
-2.03938
3.06531
-2.1323
2.57077
-2.2032
2.12378
1.6497
-2.19728
-0.0028764
0.366045
-0.00922743
0.921529
-0.017579
1.33669
-0.0279394
1.65314
-0.0408103
1.95183
-0.0570714
2.25762
-0.0784431
2.59974
-0.107189
2.97314
-0.146941
3.37159
-0.20455
3.78338
-0.286646
3.52014
-0.455286
2.89422
-0.893185
3.1552
-1.44732
4.19891
-1.71588
4.3245
-1.87489
3.77973
-1.97237
3.16279
-1.97814
2.57654
-1.91584
2.06148
1.62513
-1.89126
-0.0025354
0.36858
-0.00918692
0.928181
-0.0178269
1.34533
-0.0285343
1.66385
-0.0418555
1.96515
-0.0586006
2.27437
-0.0803791
2.62152
-0.109412
3.00217
-0.149785
3.41197
-0.206795
3.84039
-0.291906
3.60525
-0.489556
3.09187
-0.961681
3.62733
-1.41169
4.64891
-1.58833
4.50114
-1.66064
3.85204
-1.66886
3.17102
-1.52551
2.43319
-1.02914
1.56511
0.595989
-0.00215801
0.370738
-0.00884451
0.934867
-0.0180686
1.35456
-0.0295842
1.67537
-0.0438233
1.97939
-0.0616806
2.29223
-0.0851268
2.64496
-0.116636
3.03368
-0.160298
3.45563
-0.223075
3.90316
-0.326379
3.70855
-0.575073
3.34056
-1.09959
4.15184
-1.46877
5.0181
-1.57095
4.60332
-1.573
3.85409
-1.47499
3.07301
-1.23898
2.19717
-0.646347
0.972479
-0.0503575
-0.00166714
0.372405
-0.00821664
0.941417
-0.0176478
1.36399
-0.0297014
1.68742
-0.0448529
1.99454
-0.0640672
2.31144
-0.0892797
2.67018
-0.123267
3.06766
-0.171223
3.50358
-0.241272
3.97321
-0.361057
3.82834
-0.65815
3.63765
-1.20495
4.69864
-1.48252
5.29567
-1.54921
4.67001
-1.53435
3.83922
-1.33596
2.87462
-0.799841
1.66105
-0.117152
0.28979
-0.16751
-0.000941101
0.373346
-0.00709771
0.947573
-0.0170097
1.3739
-0.029879
1.70029
-0.0458031
2.01046
-0.0659897
2.33163
-0.0927852
2.69697
-0.129177
3.10406
-0.180198
3.55461
-0.255411
4.04843
-0.397857
3.97078
-0.754422
3.99422
-1.291
5.23522
-1.47929
5.48396
-1.50849
4.69921
-1.42661
3.75735
-1.11714
2.56516
-0.330384
0.874293
0.0311627
-0.0717563
-0.136347
-3.37845e-05
0.37338
-0.00523688
0.952776
-0.0151181
1.38378
-0.0284041
1.71358
-0.0450737
2.02713
-0.0665321
2.35308
-0.0949202
2.72536
-0.133469
3.14261
-0.187467
3.6086
-0.272673
4.13363
-0.440091
4.1382
-0.846798
4.40093
-1.32207
5.71049
-1.44743
5.60932
-1.45902
4.7108
-1.25727
3.5556
-0.716447
2.02433
-0.0691132
0.22696
0.0342861
-0.175156
-0.102061
0.001773
0.371607
-0.00220249
0.956752
-0.0126656
1.39425
-0.0267732
1.72768
-0.0438313
2.04419
-0.0659773
2.37523
-0.0955276
2.75491
-0.135655
3.18273
-0.191589
3.66454
-0.282587
4.22463
-0.472268
4.32788
-0.932455
4.86111
-1.32616
6.1042
-1.40051
5.68366
-1.36311
4.6734
-1.07766
3.27016
-0.354891
1.30156
-0.0129369
-0.114994
0.00871467
-0.196807
-0.0933465
0.00361071
0.367996
0.00145876
0.958904
-0.00849794
1.4042
-0.0223292
1.74151
-0.0397559
2.06162
-0.0628635
2.39834
-0.0934432
2.78549
-0.134852
3.22414
-0.193002
3.72269
-0.292174
4.3238
-0.504835
4.54054
-0.984675
5.34095
-1.27171
6.39124
-1.31223
5.72419
-1.20504
4.56621
-0.822412
2.88752
-0.105963
0.58511
0.0389154
-0.259873
0.0226287
-0.180521
-0.0707178
0.00583494
0.362161
0.0051631
0.959576
-0.00362265
1.41299
-0.0172356
1.75513
-0.0345314
2.07891
-0.0577155
2.42152
-0.0884701
2.81625
-0.130394
3.26607
-0.18954
3.78183
-0.292882
4.42715
-0.521926
4.76959
-0.996746
5.81577
-1.20611
6.60061
-1.22544
5.74351
-1.04018
4.38095
-0.509011
2.35636
-0.00532791
0.0814269
0.0151647
-0.280365
0.0161185
-0.181474
-0.0545994
0.00868625
0.353475
0.0110368
0.957225
0.00484162
1.41918
-0.00732041
1.76729
-0.0250326
2.09662
-0.0482606
2.44475
-0.0788531
2.84684
-0.120161
3.30737
-0.179173
3.84085
-0.28687
4.53484
-0.530356
5.01307
-0.96565
6.25106
-1.09869
6.73364
-1.08043
5.72525
-0.851107
4.15162
-0.31113
1.81638
-0.0644014
-0.165302
-0.0369686
-0.307798
-0.00901519
-0.209428
-0.0636146
0.0127279
0.340747
0.019045
0.950908
0.0145724
1.42366
0.0037294
1.77813
-0.013486
2.11384
-0.0352624
2.46653
-0.064051
2.87563
-0.103856
3.34718
-0.160782
3.89777
-0.268234
4.64229
-0.506461
5.2513
-0.880785
6.62539
-0.971127
6.82399
-0.949953
5.70408
-0.691324
3.893
-0.150525
1.27558
-0.0600477
-0.255779
-0.0350644
-0.332781
-0.00885454
-0.235638
-0.0724691
0.0178552
0.322892
0.0298869
0.938876
0.02945
1.42409
0.0202099
1.78737
0.00485693
2.12919
-0.0146627
2.48605
-0.0417503
2.90271
-0.0783012
3.38373
-0.130466
3.94994
-0.233065
4.74489
-0.453617
5.47185
-0.744934
6.91671
-0.807982
6.88703
-0.727156
5.62325
-0.435728
3.60157
0.0268625
0.812991
0.0332388
-0.262155
0.0246395
-0.324182
0.0262207
-0.237219
-0.0462484
0.024402
0.29849
0.043485
0.919793
0.0469353
1.42064
0.0403273
1.79398
0.0288115
2.14071
0.0117594
2.5031
-0.011476
2.92595
-0.0430601
3.41531
-0.0892293
3.9961
-0.177783
4.83345
-0.362864
5.65693
-0.556661
7.1105
-0.616924
6.9473
-0.568494
5.57482
-0.287643
3.32072
0.0210214
0.504327
-0.0130937
-0.22804
0.00687845
-0.344154
0.0324565
-0.262797
-0.0137919
0.032016
0.266474
0.0608678
0.890942
0.0721255
1.40938
0.0705608
1.79554
0.0622167
2.14905
0.0484766
2.51684
0.0299624
2.94446
0.00502019
3.44026
-0.031919
4.03304
-0.0914902
4.89302
-0.221054
5.7865
-0.34124
7.23069
-0.428738
7.03479
-0.51137
5.65745
-0.450739
3.26008
-0.514683
0.56827
-0.529159
-0.213563
-0.363422
-0.509891
-0.166666
-0.459554
-0.180458
0.0410053
0.225469
0.0820004
0.849946
0.101278
1.39011
0.105193
1.79163
0.102225
2.15202
0.0938921
2.52517
0.0828729
2.95548
0.0673133
3.45581
0.0452234
4.05513
0.0204291
4.91781
-0.00852572
5.81545
-0.0610674
7.28323
-0.133035
7.10676
-0.277006
5.80142
-0.504556
3.48763
-0.824229
0.887943
-0.830683
-0.207109
-0.626523
-0.714051
-0.308093
-0.777984
-0.48855
0.0495832
0.175885
0.106822
0.792708
0.139705
1.35722
0.152116
1.77922
0.155549
2.14859
0.152178
2.52854
0.149352
2.95831
0.14636
3.45881
0.148094
4.0534
0.157799
4.90811
0.235204
5.73805
0.337731
7.18071
0.361004
7.08349
0.325584
5.83684
0.0697689
3.74345
-0.39121
1.34892
-0.658558
0.0602392
-0.648012
-0.724597
-0.326533
-1.09946
-0.815083
0.0541715
0.121714
0.132849
0.71403
0.182703
1.30737
0.20591
1.75601
0.21772
2.13678
0.222775
2.52349
0.230164
2.95092
0.241776
3.4472
0.269301
4.02587
0.325499
4.85191
0.538572
5.52497
0.950823
6.76845
1.32393
6.71039
1.71997
5.4408
1.58285
3.88057
0.951152
1.98062
0.435714
0.575677
0.0701069
-0.358989
-0.0826997
-0.946657
-0.897783
0.0494529
0.072261
0.157911
0.605572
0.234183
1.2311
0.272619
1.71758
0.294144
2.11525
0.307367
2.51026
0.324348
2.93394
0.351148
3.4204
0.4078
3.96922
0.528616
4.73109
0.87112
5.18247
1.55415
6.08542
1.98481
6.27973
2.27283
5.15278
2.27101
3.88239
1.84058
2.41106
1.35743
1.05882
0.863546
0.134899
0.328813
-0.411924
-0.56897
0.0376093
0.0346517
0.181345
0.461836
0.287913
1.12453
0.347767
1.65772
0.38106
2.08196
0.405896
2.48543
0.431978
2.90786
0.471181
3.38119
0.543449
3.89695
0.701492
4.57305
1.07272
4.81124
1.80174
5.3564
2.21586
5.86561
2.4577
4.91094
2.48774
3.85235
2.13122
2.76758
1.55859
1.63145
0.960345
0.733142
0.427886
0.120536
-0.141084
0.0289476
0.00570406
0.20293
0.287854
0.350562
0.976897
0.435389
1.57289
0.480601
2.03675
0.515546
2.45048
0.545483
2.87792
0.590463
3.33621
0.659676
3.82774
0.798096
4.43463
1.06079
4.54855
1.69876
4.71843
2.08311
5.48126
2.2253
4.76875
2.19457
3.88308
1.94442
3.01772
1.46751
2.10836
0.938093
1.26256
0.396826
0.661803
0.255742
0.0290225
-0.0233184
0.19301
0.123866
0.407239
0.762669
0.529114
1.45102
0.59031
1.97555
0.634907
2.40589
0.66689
2.84594
0.704411
3.29869
0.74756
3.78459
0.835014
4.34718
0.975362
4.4082
1.39153
4.30226
1.80403
5.06875
1.84334
4.72945
1.75481
3.97161
1.54507
3.22746
1.17338
2.48006
0.726641
1.7093
0.298184
1.09026
0.553925
0.031168
-0.0544864
0.135944
0.0190902
0.364962
0.533651
0.515757
1.30022
0.582125
1.90918
0.608055
2.37996
0.617552
2.83644
0.614043
3.3022
0.601232
3.7974
0.594676
4.35373
0.615089
4.38779
0.772746
4.1446
0.981592
4.8599
0.974676
4.73636
0.886997
4.05929
0.762374
3.35208
0.581561
2.66087
0.351822
1.93904
0.135182
1.3069
0.689107
0.0227605
-0.0772469
0.0676765
-0.0258258
0.200825
0.400503
0.326196
1.17485
0.401541
1.83384
0.437882
2.34362
0.459168
2.81515
0.464281
3.29709
0.461253
3.80043
0.455287
4.3597
0.44463
4.39845
0.524664
4.06457
0.673231
4.71134
0.678024
4.73157
0.60462
4.13269
0.506785
3.44991
0.379669
2.78799
0.220277
2.09843
0.0734055
1.45377
0.762513
0.0166433
-0.0938902
0.0257844
-0.034967
0.0700327
0.356254
0.150142
1.09474
0.219311
1.76467
0.269016
2.29391
0.306473
2.7777
0.329965
3.2736
0.342745
3.78765
0.340009
4.36244
0.318483
4.41997
0.347424
4.03563
0.443335
4.61542
0.44819
4.72672
0.395666
4.18522
0.31504
3.53054
0.220072
2.88296
0.109674
2.20883
0.0171234
1.54632
0.779636
0.000202148
-0.0940923
-0.0236801
-0.0110847
-0.0370086
0.369583
0.00211385
1.05562
0.0580248
1.70876
0.115625
2.23631
0.167093
2.72623
0.209895
3.23079
0.235077
3.76247
0.236975
4.36054
0.219547
4.4374
0.2259
4.02928
0.281597
4.55973
0.274976
4.73334
0.231584
4.22861
0.173683
3.58844
0.11018
2.94646
0.0443093
2.2747
-0.0136265
1.60426
0.766009
-0.0201382
-0.0739541
-0.0676108
0.0363878
-0.110707
0.41268
-0.108673
1.05359
-0.0597869
1.65987
0.00119469
2.17533
0.0565885
2.67084
0.105392
3.18199
0.135827
3.73203
0.149726
4.34664
0.140865
4.44626
0.14125
4.02889
0.168814
4.53216
0.154385
4.74777
0.11803
4.26496
0.0753523
3.63112
0.0300851
2.99173
-0.0206922
2.32548
-0.0411763
1.62474
0.724833
-0.034251
-0.0397031
-0.0973977
0.0995345
-0.157496