/*--------------------------------*- C++ -*----------------------------------*\
  =========                 |
  \\      /  F ield         | OpenFOAM: The Open Source CFD Toolbox
   \\    /   O peration     | Website:  https://openfoam.org
    \\  /    A nd           | Version:  9
     \\/     M anipulation  |
\*---------------------------------------------------------------------------*/
FoamFile
{
    format      ascii;
    class       volScalarField;
    location    "30";
    object      p;
}
// * * * * * * * * * * * * * * * * * * * * * * * * * * * * * * * * * * * * * //

dimensions      [0 2 -2 0 0 0 0];

internalField   nonuniform List<scalar> 
918
(
0.400922
1.05358
0.0329551
0.400174
-0.0162339
1.02065
-0.659145
0.573355
0.381011
-0.241014
-0.199403
0.374081
0.881112
0.647586
-1.28578
-0.107759
0.525115
-0.537494
0.380002
-0.239948
0.608061
0.387646
0.390686
0.381282
0.441093
0.63004
0.761832
-0.0384712
0.0206243
-0.0299765
-0.095243
-0.154588
-0.189317
0.904291
0.955385
0.978063
0.349678
0.176865
-0.517274
-0.589278
-0.580557
-0.707448
0.565498
0.568459
-0.324021
0.573363
0.583996
0.368342
0.380374
0.381285
0.382399
0.381326
0.382736
0.266341
-0.249434
-0.276779
-0.219243
-0.213898
-0.0587922
-0.190379
-0.192108
-0.207881
-0.222088
0.302098
0.370678
0.367968
0.378762
0.385827
0.993132
0.965042
0.991189
0.904848
0.921373
0.85908
0.831693
0.667998
0.689605
0.633156
0.622357
-1.72448
-2.68904
-0.688841
-0.433919
-0.0300125
-0.0661286
-0.0713465
0.515083
0.516553
0.525515
0.537656
0.922181
-0.534527
-0.66687
0.380131
0.378918
0.387327
0.38801
0.384018
0.383111
-0.267701
-0.267468
-0.105334
-0.22689
-0.186283
0.59597
0.594613
0.381833
0.378864
0.393486
0.413654
0.405578
0.138233
0.446936
0.463228
0.449822
0.619023
0.613548
0.622144
0.735246
0.698795
0.799155
0.82228
-0.0149003
-0.0106458
-0.130954
-0.184592
-0.17889
0.345661
0.338484
0.36401
0.352999
0.355393
0.091949
-0.0442027
0.263513
0.288569
-0.426482
-0.490778
-0.59559
-0.612353
-0.724804
0.437043
0.554448
0.554949
-0.343341
-0.262503
-0.40197
-0.188825
-0.251791
0.358856
0.365659
0.360759
0.376063
0.370586
0.372511
0.384599
0.381698
0.38324
0.329351
0.451075
0.192367
0.160191
-0.396291
-0.298053
-0.392979
-0.205037
-0.200037
-0.0538342
-0.0335893
-0.0678917
-0.0706903
-0.194543
-0.194175
-0.195395
-0.240177
-0.248024
0.294874
0.28414
0.313807
0.320866
0.361755
0.362708
0.365556
0.364124
0.782435
0.804717
0.812343
0.786192
-3.69234
-6.50091
-0.103953
0.0353986
-0.0561165
-0.0528034
-0.0305752
-0.0651823
-0.0272132
-0.0162062
-0.0522336
-0.0676722
-0.0209891
-0.0574871
0.500612
0.50095
0.838419
0.833671
0.823872
0.774218
0.368132
0.37029
0.375854
0.371704
-0.268614
-0.269779
-0.268723
0.581824
0.589336
0.5893
0.102541
0.0188602
0.185213
0.21235
0.486201
0.468937
0.483723
0.510808
0.547959
0.829751
0.848073
0.846246
0.854778
0.898874
0.915327
0.880622
0.326285
0.335576
0.330813
0.367289
0.364948
0.365909
0.361082
0.362766
0.360454
-0.197091
-0.58237
0.348406
0.364329
0.337301
0.347848
0.512596
0.583498
0.536671
0.544797
0.546167
-0.122464
-0.181093
0.117367
0.0895898
0.238044
0.272404
0.25274
0.753515
0.714183
0.764169
0.737445
0.698963
0.724267
-0.534413
-2.05164
-1.16127
0.391731
0.20187
0.290767
-0.0819263
-0.0767852
-0.0682969
0.823623
0.90332
0.507489
0.66925
0.681299
0.587623
0.617853
0.671967
0.598114
0.632193
0.667006
0.648238
0.395277
0.359864
0.358505
0.651709
0.707214
-0.00842311
-0.0616905
-0.107115
-0.0166152
0.0431574
0.0141453
0.871122
0.765588
0.838979
0.37859
0.379272
-0.0968104
-0.140338
0.383362
0.383374
-0.115442
-0.224574
0.273129
-0.995178
-0.020557
0.37178
0.362202
0.379011
-0.232403
0.224423
-0.177258
-0.062518
-0.104144
0.371798
0.31147
0.27353
-0.148123
-0.147503
-0.280662
-0.356678
0.376258
0.37458
0.37848
0.37951
0.380152
-0.176434
-0.161448
-0.119285
-0.315179
-0.216278
-0.246482
0.344017
0.360617
-0.311854
0.378621
0.380744
0.380568
0.373709
0.379357
0.377609
-0.179766
-0.211388
-0.21707
0.0886199
0.205261
0.52142
0.618108
0.485565
0.258697
0.0196351
0.42058
0.486699
0.38841
0.54793
0.547151
0.563873
0.0413793
-0.105745
0.0502299
-0.00543586
0.369675
0.36832
0.360471
0.357625
0.373893
0.371986
0.376559
0.373495
0.376433
0.377871
-0.186704
-0.202556
-0.228381
-0.286814
0.184581
0.442662
0.115801
0.144871
0.0226225
-0.185367
-0.193616
-0.172229
-0.188734
-0.113409
-0.125419
-0.0760366
-0.0624171
-0.0947746
-0.096556
-0.11877
-0.133949
-0.147116
0.365517
0.364449
0.370629
0.377906
0.320553
0.324637
0.291198
0.310609
0.296433
0.239226
0.273003
0.247929
-0.109932
-0.176046
-0.0978067
-0.16061
-0.0995644
-0.29726
-0.269414
-0.35283
-0.245334
-0.242241
-0.296305
-0.287083
-0.31699
-0.430559
0.824308
0.767243
-0.039389
0.365533
0.37188
0.368728
0.373396
0.376519
0.377427
0.375177
0.371707
0.361263
0.363096
0.359418
0.359817
-0.252405
-0.389364
-0.213199
-0.280405
-0.0153538
0.47864
0.218752
0.159824
0.153996
0.37273
0.767968
0.565245
0.565095
0.589023
-0.498834
-0.102178
-0.431856
0.186525
0.0094416
0.518802
0.570054
0.593212
0.539677
0.490752
-0.268593
0.390741
-0.199626
-0.155704
0.0355222
-0.0702949
0.564563
0.529749
0.534364
0.551244
0.570005
0.535305
0.513283
0.508913
0.54792
0.553723
0.346371
0.121139
0.0766188
0.0386102
0.513442
0.388026
0.446374
0.360242
0.364505
0.367379
0.365937
0.34879
0.355912
0.351745
0.357215
0.360365
0.369628
0.369947
0.365421
0.367648
-0.189728
-0.19811
-0.167961
-0.280919
-0.270353
-0.323714
-0.21137
-0.0770091
-0.109605
0.0783505
0.184934
-0.103544
-0.217707
-0.187649
-0.159043
0.0238944
0.0490428
-0.0565668
0.037474
0.0155115
0.00274435
0.102013
0.111366
-0.174179
-0.156774
-0.17049
-0.169879
-0.0907851
-0.0290399
-0.0159841
-0.168708
-0.120987
-0.202381
-0.224164
-0.172622
-0.161706
-0.154554
-0.125318
-0.291486
-0.206959
-0.196383
-0.195084
-0.144798
-0.158141
0.359777
0.361406
0.361358
0.369102
0.384031
0.398703
0.36222
0.342085
0.333417
0.336251
0.310752
0.320359
0.316712
0.329043
0.348694
0.356675
0.355424
0.357887
0.341204
0.342896
0.330397
0.33345
0.310851
0.293078
0.281889
-0.271257
-0.22665
-0.276012
-0.199895
-0.156216
-0.168638
-0.106913
-0.149744
-0.13537
-0.116615
-0.0973401
-0.385371
-0.352632
-0.229059
-0.152857
-0.336081
-0.367989
-0.436725
0.731914
0.845703
0.658851
0.439341
0.444713
0.679679
0.770093
0.407374
0.579472
0.60858
0.409254
0.668508
0.370267
0.369878
0.367547
0.366989
0.368241
-0.167019
-0.0676748
-0.0548433
-0.00248119
0.116154
0.231309
0.141838
0.0155868
0.151122
0.158111
0.473113
0.489585
0.435082
0.45975
0.457442
0.285106
0.362174
0.417242
0.370929
0.415581
0.437831
0.398833
0.429161
0.375686
0.333497
0.332265
0.277708
0.298755
0.276354
0.258478
0.359831
0.338063
0.348281
0.338957
0.358443
0.385577
0.379903
0.40643
0.418054
0.344359
0.304829
0.314222
0.341996
0.303348
0.316393
0.331702
0.0638302
-0.0371737
0.0501048
-0.241865
-0.159954
-0.17581
-0.222176
-0.177403
0.109118
-0.589997
-0.563417
-1.19741
0.331485
0.798441
0.519541
0.490343
0.565362
0.543416
0.546105
0.570092
0.577199
0.50305
0.520235
0.524722
0.477983
0.501635
0.524975
0.523089
0.361472
0.238368
0.22953
0.190418
0.0673533
0.0999219
0.303524
0.225229
0.152634
0.157764
0.320736
0.211057
0.276671
0.314882
0.246601
0.202414
0.403077
0.470465
0.461381
0.436085
0.352212
0.364255
0.390296
0.425657
0.452588
0.485811
0.357136
0.362843
0.364149
0.361756
0.358839
0.361675
0.36175
0.364267
0.365154
0.368089
0.367049
-0.185929
-0.173829
-0.186685
-0.194161
-0.163871
-0.170524
-0.121858
-0.129242
-0.147323
-0.140551
-0.170513
-0.173233
-0.166009
-0.158497
-0.0439939
-0.0285493
-0.0381864
-0.0832324
0.0919026
0.226303
0.289066
0.171999
0.0643726
0.0919714
0.119435
-0.157857
-0.101407
-0.120893
-0.0852458
-0.102315
-0.20167
-0.224746
-0.226938
-0.147075
-0.178578
-0.267525
-0.295179
-0.283488
-0.273107
-0.237378
-0.270536
0.344406
0.338083
0.338927
0.333279
0.332226
0.345476
0.349616
0.351347
0.356493
0.358187
0.349102
0.354334
0.357661
-0.279403
-0.360694
-0.326367
-0.270509
-0.328035
-0.3913
-0.331537
-0.0442833
-0.117514
-0.111717
-0.153505
-0.275096
-0.220622
0.318629
0.317751
0.328841
0.543505
0.39658
0.316037
0.411671
0.515089
0.101662
0.302057
0.133089
0.71513
0.604901
0.748811
0.372621
0.0779923
0.232534
0.282253
0.0911885
0.163302
0.170161
0.0591423
0.0916265
0.12208
0.221209
0.101627
0.075694
-0.16915
0.0162419
0.138756
0.118532
0.251436
0.316353
0.088978
0.0132268
-0.031777
0.464736
0.484845
0.5035
0.473212
0.498142
0.420267
0.411881
0.430181
0.43849
0.432343
-0.925146
-0.632386
-1.57768
-0.891606
-0.44066
0.363742
0.326559
0.598735
0.489953
0.555997
0.541443
0.501953
0.467391
0.479061
0.511735
0.213637
0.32359
0.297483
0.304501
0.207299
0.140929
0.439211
0.432443
0.470506
0.494215
0.459871
0.493824
0.354952
0.354567
0.354083
0.350836
0.349307
0.351294
-0.0737546
-0.107289
-0.0774067
-0.0967374
-0.120809
-0.129108
-0.227603
-0.246026
-0.246783
-0.265399
-0.265451
-0.218307
-0.00615521
-0.0621929
-0.136191
-0.107482
-0.16468
-0.226827
-0.24644
-0.148509
-0.0604992
-0.0678617
0.234541
0.48555
0.309391
0.478303
0.316124
0.372199
0.320748
0.312361
0.343172
0.217319
0.293509
0.0635896
-0.441985
-0.350022
0.615797
0.634957
0.421868
0.235174
0.00480408
0.192703
0.389282
0.327555
0.366924
0.435237
0.428179
-0.152321
-0.0856462
0.17687
0.404845
0.0703763
0.0620806
0.0573204
0.231946
0.155657
)
;

boundaryField
{
    wall-4
    {
        type            zeroGradient;
    }
    velocity-inlet-5
    {
        type            zeroGradient;
    }
    velocity-inlet-6
    {
        type            zeroGradient;
    }
    pressure-outlet-7
    {
        type            fixedValue;
        value           uniform 0;
    }
    wall-8
    {
        type            zeroGradient;
    }
    frontAndBackPlanes
    {
        type            empty;
    }
}


// ************************************************************************* //
