/*--------------------------------*- C++ -*----------------------------------*\
  =========                 |
  \\      /  F ield         | OpenFOAM: The Open Source CFD Toolbox
   \\    /   O peration     | Website:  https://openfoam.org
    \\  /    A nd           | Version:  9
     \\/     M anipulation  |
\*---------------------------------------------------------------------------*/
FoamFile
{
    format      ascii;
    class       surfaceScalarField;
    location    "30";
    object      phi;
}
// * * * * * * * * * * * * * * * * * * * * * * * * * * * * * * * * * * * * * //

dimensions      [0 3 -1 0 0 0 0];

internalField   nonuniform List<scalar> 
1300
(
3.75095
5.62643
-4.64023
3.75095
-4.87388
5.62643
-4.45643
4.45643
-1.06897
1.06897
1.87646
1.8745
-2.98591
2.98591
-2.41324
2.41324
-2.56339
2.56339
-5.2465
5.2465
-5.06893
5.06893
4.66916
-4.66916
-4.60759
4.60759
-1.4492
1.4492
-3.87703
3.87703
3.16977
-3.16977
-2.46991
2.46991
-0.285074
0.285074
-0.553552
4.30451
3.1974
3.1974
-2.10497
2.10497
-4.86269
4.86269
6.21823
-6.21823
6.54329
-6.54329
-1.90307
-3.29759
1.42003
-10.0584
-3.45385
-3.45385
-8.44039
8.44039
-2.81396
2.81247
2.94285
-2.94285
-1.78603
1.78603
-4.39807
-0.0583598
-4.39807
4.44952
0.00691754
4.44952
-1.1853
0.116335
-1.1853
3.95909
-3.95909
0.907466
0.1615
0.907466
3.06459
-3.06459
-1.87709
3.75355
1.87386
-1.87185
6.17635
-1.87911
3.7536
-5.91215
5.91215
-3.20968
0.223773
-3.20968
2.77798
0.207927
2.77798
-6.70036
6.70036
-2.46649
0.0532526
-2.46649
2.31309
0.100143
2.31309
2.86332
-2.86332
-2.66119
0.0978011
-2.66119
2.45407
0.109323
2.45407
0.353534
5.2729
-5.97996
8.79244
-5.2729
0.0263991
5.20844
0.0380516
5.20844
-5.1061
0.037171
-5.1061
5.01089
0.0580433
5.01089
4.76053
-0.0913707
4.76053
-4.78407
0.114909
-4.78407
-2.90112
-5.08949
-5.37862
0.771035
-5.37862
-1.45144
0.00223141
-1.45144
1.40623
0.0429748
1.40623
-3.55969
3.55969
-4.24367
0.366649
-4.24367
3.12429
0.0454815
3.12429
1.86854
1.88242
5.61949
-5.61949
2.44972
-2.28345
-0.186462
-2.28345
-2.72334
-3.81995
2.72334
-0.253425
-0.555026
0.269951
-0.555025
3.15919
0.0382123
3.15919
2.31296
0.141105
-2.31296
0.207991
3.20659
-3.20659
1.48682
0.618158
1.48682
-5.56629
5.56629
4.95346
0.0574297
-4.95346
0.0907696
6.15713
0.0611002
6.15713
-6.19959
-0.0186366
-6.19959
1.84828
-5.14587
-4.00815
3.87606
0.731528
-3.87606
0.422209
2.91277
0.030086
2.91277
-2.92158
2.92158
-2.98283
0.0399776
-2.98283
-2.18767
0.401642
-2.18767
1.48408
0.301954
1.48408
-4.27257
-0.125504
-4.27257
-4.37627
0.132593
4.37627
0.0732481
1.06094
-1.06094
-1.29033
0.105028
-1.29033
-4.10888
-0.163693
4.10888
-0.149788
-3.83518
-0.123905
-3.83518
-3.02333
0.0404963
3.02333
0.0412633
3.11242
0.0467712
-3.11242
0.0478268
-1.87084
3.75326
-1.88011
3.75398
-5.53242
-0.379725
-5.53242
6.2235
-0.311353
6.2235
3.54508
0.331949
-3.54508
0.335395
2.59561
0.182376
2.59561
-6.68644
-0.0139148
-6.68644
6.65252
0.0478318
6.65252
2.50011
0.0955011
-2.50011
0.0336151
2.24996
0.0631313
2.24996
2.87348
-0.0101586
2.87348
-2.86276
-0.000555715
-2.86276
2.80345
-2.80345
2.73645
0.0669948
-2.73645
0.0752599
-11.1329
11.1143
-0.0352343
-11.0977
5.17321
5.17321
4.19115
0.569387
4.19115
-4.99851
0.214439
-4.99851
2.11874
-6.12689
4.80313
-7.70424
4.89382
-14.9522
3.49755
-8.58704
6.35664
-6.35664
5.98483
0.371812
-5.98483
0.606208
-1.47523
0.0237917
-1.47523
-2.95049
-0.609197
-2.95049
4.21635
-0.656664
4.21635
-3.02935
3.02935
-3.07823
0.0488779
3.07823
0.0460631
2.2126
0.0373629
-2.2126
-0.0708488
0.734487
0.172979
-0.734487
0.179462
3.42309
-0.216493
3.42309
-3.01547
-0.191121
-3.01547
-1.48474
0.00950915
1.48474
0.00207838
-5.81569
0.249401
-5.81569
-11.1907
0.0929776
-11.1526
-6.10662
-6.10662
2.33377
11.1262
-2.88546
0.0226997
2.88546
0.0273055
2.97641
0.0529363
-2.97641
0.0548329
-2.86434
0.0608947
2.86434
0.0572393
-2.56493
0.377252
-2.56493
-1.07124
1.07124
-1.24872
0.177478
1.24872
0.235357
1.30069
-0.239754
1.30069
1.35406
0.052169
-1.35406
0.0637329
-3.72523
-0.10995
-3.72523
6.46126
-0.237765
6.46126
-2.91703
-0.0984399
2.91703
-0.0435552
-0.0332904
11.1476
-5.13992
0.0338154
5.13992
-11.2087
11.2425
-3.23843
0.673502
3.23843
0.952717
5.2887
0.277591
-5.2887
0.290188
6.55066
0.101863
-6.55066
0.194019
-2.45866
-0.491829
-2.45866
-4.94746
-0.584964
4.94746
-0.731107
-11.4754
-0.203738
11.6791
-11.4174
6.01943
0.137703
-6.01943
11.3802
-0.992438
-0.0684994
0.992438
0.0788055
1.61181
-0.311115
1.61181
3.61813
-0.195045
-3.61813
-0.107103
-6.60825
-0.0781873
6.60825
-0.146989
-2.0199
-0.438766
2.0199
-0.40809
-4.26696
4.30517
1.9094
-1.27288
-3.87299
-5.09283
1.852
1.90126
4.30171
-9.70602
-5.24615
-9.28381
7.26677
-6.97659
-9.2729
9.18153
7.59955
-7.72345
-5.78537
5.83144
6.48163
-6.44037
1.87885
1.8747
7.90273
-7.67895
-15.6714
15.2917
7.32255
-7.2693
15.7829
-15.7968
-17.824
17.9259
-5.72887
5.82667
-6.72083
6.72027
-6.91022
6.86666
-1.76474
-5.9395
13.3205
-12.5495
6.73355
-6.92001
-8.49618
8.86283
3.38237
0.922799
3.42914
-1.88233
3.76117
-1.87128
3.78067
4.41523
-6.17997
1.71166
-5.58465
3.44916
3.28439
-3.19574
-1.89709
-5.91817
5.94826
-5.82239
5.87963
8.92824
-8.9866
-1.88504
3.75974
-1.86893
3.7702
-3.42525
-2.36013
3.37976
0.921947
7.51651
5.804
-8.24804
-1.03577
-7.83107
7.63603
-8.10221
7.91109
-0.442933
5.82068
-5.37775
4.41976
-1.55779
7.37847
5.70898
5.92342
5.86645
-5.58886
1.11013
-6.48788
-6.39711
-2.54837
2.6534
2.50195
-2.34045
5.97112
1.62842
5.82134
-5.55943
-2.16402
-5.66938
3.82124
2.01019
3.87012
4.07635
2.40528
4.11685
3.0308
-3.03554
0.00474021
-3.05622
6.08702
0.724201
-5.41634
-4.4944
4.91965
2.98307
5.12758
-5.48501
-2.19395
-5.14961
-9.54954
-6.1219
-10.1345
10.1137
5.17799
9.80237
-11.9611
11.8141
4.35408
2.96847
4.45423
-4.85367
-2.41563
-4.82005
11.6007
-2.534
-9.06674
-10.3063
-7.51773
10.2584
5.52447
10.8897
7.03617
11.0837
4.41728
7.18345
-9.94175
2.42402
-3.87148
-1.85739
-3.79622
3.70026
2.12641
3.80958
-4.21246
-2.50837
-4.18976
-4.28046
-2.62976
4.29062
2.42966
-4.37102
-3.73119
4.46946
2.3972
5.02357
-10.2697
3.56347
-9.50297
-9.3722
-3.17728
-8.76599
5.46322
1.7638
-7.22701
-0.716754
8.1985
-4.91411
6.3014
-4.01598
-2.90403
-4.08683
-6.78659
-1.70959
-6.654
-8.88932
8.39749
-9.19962
8.54296
12.7047
-5.71333
-6.99134
-3.96794
-2.47243
3.92011
-0.490975
-3.71158
3.71632
0.0495958
3.83027
4.75307
4.26209
-3.88739
-1.935
-3.83255
3.83337
2.04626
3.89426
6.72798
2.20025
6.7349
-6.44316
-2.54344
-6.56866
9.08393
-8.68229
2.9233
-2.91379
5.27744
2.63365
-5.06095
-2.77013
6.18405
-3.11433
-3.06972
-12.2116
10.5605
1.65117
-4.83317
-0.413407
-0.128333
-5.49993
-3.77297
5.38502
0.538401
11.0989
7.3259
-5.51219
5.7616
6.16694
6.22437
-0.172734
5.83891
-5.16541
5.34301
-2.44039
-2.90262
5.31068
-5.47437
-1.25798
-5.32239
4.06442
0.346963
1.73363
-1.46368
-2.01412
-0.534247
-1.95039
1.48327
1.01868
1.65625
0.965432
1.68797
-2.94148
0.536151
2.40533
-1.97605
-1.8043
-3.69246
-1.01391
4.70637
5.56828
2.06775
-5.46118
-0.208203
2.72048
-2.67751
-0.803811
-2.88865
2.09603
-2.89984
-3.58723
-1.89402
5.48125
-3.37086
-0.461697
3.31792
0.5522
-3.82505
-2.09312
3.78507
0.331778
-3.12433
6.19004
-3.06571
-5.05933
2.52902
3.55799
4.53922
-4.7903
2.44625
2.34406
-1.23231
4.2141
0.913483
4.39647
-6.71935
4.5254
5.72582
3.13701
-6.05777
0.908154
-5.81119
8.46969
-7.26731
-1.20238
4.109
4.36069
7.18477
5.5199
-5.75034
12.9351
-1.13222
-6.13509
6.94341
-3.8064
4.75277
-8.55918
-10.2727
4.13758
-9.2367
10.9696
-1.73291
-3.61304
-8.34805
12.8497
-1.21656
-11.6332
8.58581
-4.2423
-4.45127
8.69357
-6.7763
6.86691
-1.98826
-4.87864
-10.1036
-5.69324
10.1818
1.63234
-10.3123
12.7363
-3.12881
3.41627
1.03796
3.4794
3.25997
-5.418
2.15804
3.51633
-5.50459
2.11484
-7.53284
-7.65522
13.2407
-5.58545
-10.8325
-10.0806
-0.7519
2.55359
10.1827
-9.58976
7.39107
2.19869
3.3104
0.583859
-3.3774
-0.418825
0.269062
4.55648
-4.82554
4.07865
4.21975
3.39789
1.15859
3.83941
2.10884
-3.86672
-0.323037
-4.14702
1.51726
-1.71736
-3.64515
5.16241
-4.07171
0.426555
-2.7284
-3.5165
6.2449
-4.58579
3.04035
3.14969
5.08661
-4.90793
1.39143
-2.40144
-2.50649
2.68028
-4.39764
1.93688
3.22552
4.33409
0.6029
7.33971
5.90096
-9.1035
-0.399462
11.705
-10.6692
2.67956
8.40414
-10.0706
-0.00996181
-8.77595
0.623351
-5.53746
-6.60366
5.07064
-6.78022
-3.48854
6.13391
0.600992
-6.20716
-0.446843
-6.03644
-2.85288
-6.47521
-3.06401
-6.13561
-8.81435
-1.65268
-7.16167
6.74481
-6.68137
-3.45313
7.41248
1.13048
-7.4101
7.3416
-7.49315
7.18203
0.0945422
3.62178
4.35664
1.88421
-2.38947
4.27368
-5.06288
7.26313
-8.54055
3.47767
4.03975
-6.58319
-4.50079
5.0443
4.03963
5.34626
8.96208
-10.4712
1.50913
-10.8035
12.1288
-1.3253
-16.5914
5.7879
-7.62931
2.66293
0.26037
2.68672
0.666408
2.41775
-3.08416
-2.24738
-2.2453
-2.33757
-3.40685
5.74442
1.15242
-3.40828
2.25587
-3.47943
4.63185
-0.0730491
-3.33523
5.27529
-2.85754
5.53566
-3.55248
1.98318
3.32652
5.67281
-2.34629
4.33728
-1.70363
1.8397
-4.18599
-1.56715
-2.97817
5.10458
-3.26673
3.69329
-0.279039
3.97233
-4.08531
0.970982
-0.687419
3.53233
3.74032
4.2877
-3.12911
2.96801
-4.67164
-1.21798
-4.06874
-0.843215
-0.287345
-3.79772
4.08507
6.05947
-6.34682
-5.25872
9.57363
-4.31491
7.72485
-5.40363
-2.32121
-4.27698
-4.40531
3.89973
1.93919
9.66403
0.212088
-5.61572
-4.95332
-4.00061
3.21778
2.12523
-1.93377
3.58494
2.0621
-0.328473
0.580744
1.07551
1.85485
-1.27411
0.208706
1.64615
-1.25497
1.99478
0.725704
-2.04695
0.0965579
-1.38685
3.48288
1.01849
-2.03716
0.763054
1.05825
-3.49863
4.83448
-2.48483
-2.34965
5.89273
1.15637
-3.6412
4.16603
-3.81906
2.32866
-3.34257
-1.31254
-5.1316
-3.50318
-2.51844
4.77431
-3.22598
5.29373
1.18708
-5.08552
6.2726
-3.56539
1.67137
-3.06108
3.78678
-1.06646
-1.99462
2.78213
2.69912
-2.9267
0.0380527
-0.144571
2.32177
-2.46634
-0.578071
-2.55412
-4.57092
4.9027
-2.10803
4.55428
2.16564
-1.91444
6.46872
1.81158
-3.72602
-3.24776
-3.70945
-1.38196
3.15725
-0.55862
-4.26143
-5.43726
4.16593
0.230543
-6.88473
7.68299
-0.798259
-3.90166
-0.623739
4.73274
-6.00965
0.505065
-3.89482
3.78817
4.70166
4.9322
-11.438
-0.195143
-6.26005
1.16571
-7.42576
5.52641
-3.62845
7.76603
-10.4371
6.98401
-9.30666
6.56365
-0.862111
6.23762
-4.07959
2.82911
-8.52236
-6.89002
5.54603
-2.57756
6.58399
-2.9872
9.57119
-6.11601
4.87296
4.69822
-0.837982
-3.24885
-5.14088
4.30289
-0.267911
3.21149
4.97397
-2.86512
4.65093
2.25508
-4.65652
-2.14256
-6.49716
1.84064
-3.34747
-1.91447
3.7551
3.17214
3.756
1.24861
-3.33718
8.37058
-9.12248
-2.78513
-3.81853
4.89284
-0.589942
3.54866
-7.36719
-1.98881
4.88342
-0.818245
-4.06517
0.829913
-4.31845
1.65396
-5.97242
5.12626
-5.5731
2.20175
-9.83106
-5.20835
-5.12955
-2.24261
-5.25054
-7.63921
5.3966
-1.85131
5.49029
-8.63196
7.81372
-3.49683
8.89343
-5.43614
-1.03906
5.84423
1.3378
10.2312
0.184685
-4.68548
-1.90625
3.98066
-2.07441
1.31153
-3.61304
0.367626
2.4634
3.42934
-6.52781
-0.0553838
-4.74086
-3.92866
7.96829
5.64497
11.7044
1.23322
9.16398
-1.19569
10.3972
4.15057
4.38592
-3.06718
4.57631
1.01789
4.49556
-0.843391
2.82657
1.84333
1.84556
0.831949
2.29915
1.44117
3.27013
0.185973
-2.05933
4.63737
-8.63798
-0.978347
-8.06859
1.11293
5.72727
-4.61433
3.12355
-0.998313
1.04914
0.106675
-1.62574
1.51907
-2.79595
-1.95421
-0.308068
-1.5998
2.36285
1.88308
-2.05479
-0.741162
0.311843
-3.81502
3.03073
-2.99268
-0.293559
5.97905
-2.74304
0.276707
-1.07167
-2.27742
-2.81166
2.71511
6.17627
0.292445
3.11057
5.19514
3.10202
0.236897
3.94074
-5.67364
-3.5921
-5.86878
-0.342376
4.39036
1.46896
8.71373
6.16719
5.57724
-1.78994
-10.9124
6.58468
-2.00837
5.25939
-1.19421
-4.7782
4.96649
2.29664
-5.56749
-0.00561563
-4.78382
-6.79219
-0.536745
8.35046
-9.69448
8.65542
5.80254
1.35912
-4.41223
-0.717318
4.23475
0.151173
10.5484
-1.12623
-6.81725
7.94348
-4.60104
3.62269
0.840068
2.74487
2.35913
1.36082
-5.45643
-10.0708
-1.90867
-1.58996
-4.25832
0.448048
-2.33112
6.25472
-2.63203
3.93351
5.31145
6.36059
-2.15478
-4.19204
6.46969
-2.53618
3.82441
)
;

boundaryField
{
    wall-4
    {
        type            calculated;
        value           uniform 0;
    }
    velocity-inlet-5
    {
        type            calculated;
        value           uniform -3.75095;
    }
    velocity-inlet-6
    {
        type            calculated;
        value           uniform -5.62643;
    }
    pressure-outlet-7
    {
        type            calculated;
        value           nonuniform List<scalar> 8(4.64023 4.87388 5.20066 8.63832 7.99061 5.85642 6.92187 8.39136);
    }
    wall-8
    {
        type            calculated;
        value           uniform 0;
    }
    frontAndBackPlanes
    {
        type            empty;
        value           nonuniform List<scalar> 0();
    }
}


// ************************************************************************* //
