/*--------------------------------*- C++ -*----------------------------------*\
  =========                 |
  \\      /  F ield         | OpenFOAM: The Open Source CFD Toolbox
   \\    /   O peration     | Website:  https://openfoam.org
    \\  /    A nd           | Version:  9
     \\/     M anipulation  |
\*---------------------------------------------------------------------------*/
FoamFile
{
    format      ascii;
    class       volVectorField;
    location    "30";
    object      U;
}
// * * * * * * * * * * * * * * * * * * * * * * * * * * * * * * * * * * * * * //

dimensions      [0 1 -1 0 0 0 0];

internalField   nonuniform List<vector> 
918
(
(0.985168 -0.000494675 0)
(0.00501162 2.96625 0)
(-0.0534949 1.23505 0)
(0.979698 0.00215207 0)
(-0.0114389 1.29657 1.21774e-19)
(-0.00704241 2.94879 -2.17747e-18)
(0.834867 1.17911 5.79873e-19)
(0.355677 0.163298 -1.26985e-20)
(0.999905 -0.000293995 0)
(0.0634707 0.857487 0)
(0.0148567 0.681208 0)
(0.734006 -0.00964042 0)
(0.0111033 2.9304 0)
(0.00211031 2.79498 0)
(-0.0176963 3.15804 9.26644e-19)
(-0.119806 1.43995 7.87424e-20)
(0.439969 0.0576811 8.18227e-19)
(0.189003 1.20423 4.68315e-19)
(0.962771 0.00501962 0)
(-0.0367875 0.704038 0)
(0.0867888 0.200462 -6.06388e-19)
(1.00198 -0.00498574 0)
(1.00021 -0.0098042 0)
(0.975708 -0.0064389 0)
(0.598815 -0.0441656 0)
(0.0164425 2.63783 0)
(-0.0150034 2.91011 7.80706e-19)
(-0.120656 1.09015 0)
(-0.185662 1.3849 0)
(-0.0786346 1.16332 0)
(-0.0723625 2.30545 0)
(0.0596352 1.37474 -9.59149e-20)
(0.0197194 1.02215 0)
(-0.0206176 2.9876 -7.73865e-23)
(-0.0166925 3.00529 1.69237e-18)
(0.00210011 3.00019 0)
(0.870256 -0.00935718 0)
(0.40492 0.94042 7.80754e-20)
(0.815972 1.19528 -7.47594e-19)
(0.965964 1.03376 7.39958e-19)
(0.685082 1.28892 -1.34542e-19)
(0.682863 1.27601 7.61537e-19)
(0.396676 0.253514 1.2389e-20)
(0.381161 0.138077 0)
(1.14972 0.558049 0)
(0.357693 0.253965 5.68523e-20)
(0.312558 0.167633 -5.90008e-20)
(0.919639 -0.00749064 0)
(1.00028 0.00013452 0)
(0.999912 0.000330105 0)
(1.00364 -0.00778459 0)
(1.00096 -0.000933608 0)
(1.00017 2.36799e-05 0)
(0.0795604 1.78265 -5.08278e-19)
(0.0329637 1.01167 0)
(0.0802544 0.922689 0)
(0.0269868 0.946817 0)
(0.0254073 0.786559 0)
(0.0270599 2.0003 0)
(-0.00811457 0.818953 0)
(0.000443957 0.691705 0)
(-0.00722049 0.784943 0)
(-0.00968442 0.647254 0)
(0.835322 -0.0143256 0)
(0.852611 0.0263604 0)
(0.768082 -0.000418566 0)
(0.827051 0.0348369 0)
(0.701406 -0.0148451 0)
(0.0146891 3.0004 8.02953e-19)
(0.0114985 3.00798 0)
(0.006118 3.00279 0)
(0.0135286 2.99734 9.04318e-24)
(0.00798276 2.95848 -1.19339e-18)
(0.0144871 2.98208 0)
(0.010837 2.9036 0)
(0.0245452 2.9308 1.73428e-24)
(0.00449784 2.82506 0)
(0.0306392 2.91615 0)
(-0.00534231 2.74457 0)
(0.308936 3.55556 0)
(-0.132034 3.63713 0)
(0.139853 3.2487 -8.62352e-19)
(-0.012507 2.98371 0)
(-0.288428 2.13083 0)
(-0.141674 1.64947 -7.71386e-20)
(-0.121897 1.66981 4.04959e-20)
(0.518646 0.151166 -2.82542e-19)
(0.438206 0.033595 -2.73032e-19)
(0.502324 0.17678 -8.52194e-19)
(0.423237 0.08085 -5.65613e-19)
(0.215791 0.921125 0)
(0.26985 1.34239 -5.14787e-19)
(0.380554 1.2884 8.52037e-19)
(0.987482 0.00850508 0)
(0.941989 0.0058387 0)
(1.0003 0.000570712 0)
(1.00287 0.00929772 0)
(1.00304 0.0084448 -1.94972e-18)
(0.991921 0.00970954 1.47231e-18)
(-0.0292038 0.792155 0)
(-0.0114388 0.63526 0)
(-0.116286 1.06709 0)
(-0.0368031 0.851349 0)
(-0.0206205 0.784096 0)
(0.134664 0.20853 1.87542e-19)
(0.189292 0.187096 0)
(0.993522 -0.00840828 0)
(0.954372 -0.00652137 0)
(0.782031 0.0392886 0)
(0.729837 0.0479987 0)
(0.661451 -0.0327694 0)
(0.950404 -0.00547143 0)
(0.658121 0.0616245 0)
(0.492706 -0.0208802 1.14985e-18)
(-0.0367914 2.86314 5.05932e-19)
(0.0420152 2.90892 0)
(0.0547076 2.88498 0)
(-0.00491224 2.69894 0)
(-0.0130675 2.98535 7.30051e-19)
(-0.0179781 2.8953 0)
(-0.0153216 2.98812 -2.28268e-18)
(-0.0133488 2.92524 7.84277e-19)
(-0.275323 1.37639 0)
(-0.282067 1.56093 0)
(-0.0855371 1.4383 4.98642e-21)
(-0.0103611 1.30897 0)
(-0.0601903 1.18142 0)
(0.937549 -0.00771768 0)
(0.855582 -0.00964879 0)
(0.863815 0.00682621 0)
(0.948875 -0.00808669 0)
(0.883423 -0.00812879 0)
(0.517402 1.13433 -1.04158e-19)
(0.567117 1.18571 0)
(0.368221 0.884608 1.96723e-20)
(0.310311 0.744665 0)
(0.925513 1.0717 -2.09434e-19)
(1.03924 0.874361 4.24491e-19)
(0.374784 1.38366 0)
(0.537415 1.35284 0)
(0.544267 1.31107 0)
(0.106777 0.178965 -2.20153e-19)
(0.434625 0.233352 0)
(0.405361 0.122584 1.6039e-19)
(1.00964 0.928631 0)
(1.0762 0.776487 0)
(1.10192 0.718923 -3.52919e-19)
(1.12926 0.617793 0)
(1.17502 0.401987 5.6116e-20)
(0.95734 -0.00883134 0)
(0.962269 -0.0100865 0)
(0.901349 -0.00807317 0)
(0.984129 -0.00920526 0)
(0.974565 -0.00935496 0)
(0.936982 -0.00640532 0)
(1.00019 0.00232244 0)
(1.00091 0.00142178 0)
(0.999906 0.00084422 0)
(0.0345192 2.04743 2.93389e-19)
(0.122723 1.72584 0)
(0.019162 2.16557 3.92765e-19)
(0.0482736 1.84135 -2.95817e-19)
(0.122863 1.19993 -3.86371e-19)
(0.0434849 1.08159 0)
(0.127422 1.06994 0)
(0.0268467 0.900922 0)
(0.0204558 0.720976 0)
(-0.0116897 2.18524 7.79171e-22)
(0.0319383 1.99063 0)
(-0.0145338 2.15042 6.035e-20)
(0.0333688 2.00544 -1.26523e-19)
(0.0156709 0.86175 0)
(-0.00127714 0.834851 0)
(0.00381385 0.691906 0)
(-0.0106757 0.76434 0)
(-0.0240858 0.628033 0)
(0.93274 0.00773721 0)
(0.841419 -0.015524 0)
(0.924001 -0.000468382 0)
(0.838265 -0.0112161 0)
(0.813568 0.00364474 0)
(0.903504 0.0187173 0)
(0.881624 0.0221896 0)
(0.790331 0.00243595 0)
(0.00571608 3.06484 -7.30654e-21)
(0.0166622 3.05789 0)
(0.0147064 2.96908 0)
(0.00858392 2.87624 0)
(0.926698 3.97289 0)
(1.24175 3.3052 9.71344e-19)
(0.0703468 3.07581 0)
(-0.0278492 2.90654 0)
(-0.360253 1.61938 0)
(-0.360068 2.05988 0)
(-0.334778 1.84555 0)
(-0.162277 2.35541 -8.0059e-20)
(-0.272785 2.28063 0)
(-0.199087 2.23698 0)
(-0.038434 1.94171 -3.95663e-21)
(-0.0923728 1.99974 -5.20621e-20)
(-0.126529 1.84277 -4.14626e-20)
(-0.106472 1.84544 0)
(0.546595 0.123623 4.20477e-19)
(0.454602 0.00932169 -4.1231e-19)
(0.26119 1.55524 0)
(0.263327 0.69667 -2.60907e-19)
(0.177204 1.64169 -8.77921e-19)
(0.225191 1.16909 8.80165e-19)
(0.902484 0.00668176 0)
(0.967619 0.0109624 0)
(0.974692 0.010722 0)
(0.923609 0.00655078 0)
(0.00620343 0.746826 0)
(-0.015369 0.756503 0)
(-0.022822 0.622883 0)
(0.302857 0.246826 5.20997e-19)
(0.246505 0.224056 -6.18339e-19)
(0.260518 0.179529 0)
(1.0786 0.0862908 1.28043e-20)
(1.06103 0.0403414 0)
(0.992998 0.0398868 0)
(0.888704 -0.00400207 0)
(0.570055 0.0953917 0)
(0.599485 0.0721112 -1.84451e-18)
(0.4703 -0.00219774 6.96938e-19)
(0.00920005 2.98139 5.73946e-19)
(-0.032521 2.86647 4.76329e-20)
(0.00367156 3.05019 -1.55968e-20)
(0.0201499 3.04344 5.5761e-19)
(-0.0150155 2.99658 2.58869e-20)
(-0.0129629 2.94948 -1.04448e-22)
(-0.0172507 3.01196 -4.84062e-19)
(0.0148209 3.02393 3.49947e-19)
(0.00733009 3.03673 -5.51064e-19)
(0.931715 -0.00225937 0)
(0.937882 -0.00372795 0)
(0.843261 -0.00880494 0)
(0.956902 0.0115605 0)
(0.943349 0.0126999 0)
(0.882036 0.00638552 0)
(0.919171 0.0154061 0)
(0.927131 0.0141226 0)
(0.839641 0.00506465 0)
(0.721323 1.41318 1.81037e-19)
(0.754968 1.52237 0)
(0.19766 0.347242 5.02963e-20)
(0.208029 0.645615 4.05115e-19)
(0.255066 0.717423 -2.34361e-19)
(0.27202 0.551638 4.58692e-19)
(0.318008 0.755761 1.18142e-18)
(0.123698 0.209338 2.9268e-19)
(0.477766 0.200001 6.02669e-19)
(0.455758 0.214978 1.54351e-19)
(0.413848 0.105232 3.00827e-19)
(1.16411 0.459428 1.59532e-19)
(1.17562 0.253765 1.61986e-19)
(0.00954613 2.20802 1.29085e-19)
(0.0473687 1.90874 0)
(0.955351 0.0281571 0)
(0.932942 0.0119081 0)
(0.853969 -0.0166761 0)
(0.0111186 3.07434 0)
(0.0197089 2.94407 9.93994e-19)
(0.0164679 2.95633 0)
(0.00629612 2.85071 -9.85923e-19)
(0.00626872 3.09116 2.38874e-19)
(0.00730022 3.08278 0)
(0.788168 1.82531 -1.99159e-19)
(1.24957 2.50383 5.32026e-19)
(0.770352 1.96511 -1.36285e-18)
(0.0203153 2.9818 -4.68425e-19)
(0.0362523 3.00276 0)
(-0.0332756 2.87921 0)
(-0.0266041 2.12037 7.46576e-22)
(-0.0443981 2.07195 1.20601e-19)
(0.000436472 1.98809 2.22772e-21)
(0.275121 1.3624 8.51207e-19)
(0.216724 0.478095 -5.85026e-19)
(0.0634017 1.97044 6.17459e-19)
(0.138404 1.86128 -7.47861e-19)
(0.1767 1.46293 8.7376e-20)
(0.00265894 3.1183 -1.45895e-18)
(0.0171626 3.11783 1.56163e-18)
(-0.00896476 2.98107 6.55879e-19)
(-0.00310399 2.9775 -6.04947e-19)
(-0.0213 2.88171 -6.67993e-19)
(0.00868381 3.09929 -1.76554e-18)
(0.00224795 3.10662 1.7195e-18)
(0.261775 0.666813 0)
(0.219545 0.655679 -8.29409e-19)
(0.102363 0.220446 3.69075e-19)
(0.337475 0.878263 8.76277e-19)
(0.178832 0.250161 -1.34782e-18)
(1.16581 0.173447 9.39848e-21)
(1.17639 0.308001 0)
(1.1536 0.121046 4.7549e-20)
(-0.00692722 2.20524 2.26612e-22)
(-0.00273614 2.20917 0)
(0.0361108 1.95989 0)
(0.336688 1.26346 -3.08116e-19)
(0.359745 1.08747 -6.60673e-19)
(0.190993 0.343954 1.16016e-18)
(1.00586 -0.0108781 0)
(1.00766 -0.00767543 3.58743e-19)
(-0.28462 1.38009 0)
(-0.260148 1.2007 0)
(1.00221 0.00347353 1.77493e-21)
(1.00369 0.00944647 7.3384e-19)
(-0.174273 2.38446 1.00176e-19)
(-0.177151 2.41756 0)
(0.0368567 3.17964 2.67787e-19)
(0.396227 3.4934 0)
(1.13116 0.652783 -4.67812e-21)
(1.01301 0.0129592 -2.15317e-21)
(1.02117 -0.0105127 0)
(1.00171 0.000143246 7.55426e-23)
(0.0998885 1.35451 0)
(0.142771 2.57924 0)
(0.0563028 1.27187 0)
(0.000758132 2.62103 -7.01201e-20)
(-0.0261812 2.58011 -7.57089e-20)
(1.00482 0.0282283 2.6798e-21)
(1.06122 0.00167801 0)
(1.08874 0.0142231 0)
(-0.345503 2.0576 0)
(-0.235435 2.55096 0)
(-0.0807153 1.05479 0)
(0.278105 1.46293 -2.95755e-19)
(1.01124 -0.00970746 0)
(1.00936 -0.0149592 0)
(1.00239 0.000724808 4.57764e-19)
(1.00548 -0.00484947 -5.38719e-19)
(1.00117 -0.00104163 0)
(-0.372923 1.81824 0)
(-0.329719 1.41226 0)
(-0.344442 1.64121 0)
(-0.0881116 1.02275 0)
(-0.171567 1.06218 0)
(-0.0949069 0.967891 0)
(1.03417 -0.00684619 0)
(1.02094 0.0156468 -9.53962e-22)
(0.792114 1.256 3.79718e-19)
(1.00231 0.000317882 -4.57033e-19)
(1.00407 0.00522404 5.35494e-19)
(1.00116 0.00204071 0)
(1.01285 0.0102454 4.51877e-19)
(1.00807 0.00828165 -5.51121e-19)
(1.00861 0.0146916 0)
(-0.23449 2.57138 0)
(-0.217467 2.52242 -2.50594e-19)
(-0.240021 2.49802 1.82961e-19)
(1.2058 0.261337 2.83892e-19)
(1.14341 0.0818822 0)
(0.0463567 3.07756 -7.25588e-19)
(0.0661668 2.85327 -5.46273e-20)
(0.143144 3.19433 1.12667e-18)
(0.138155 3.22331 -1.04234e-19)
(0.13628 3.23599 0)
(0.0206673 3.13771 1.76898e-19)
(0.0776307 3.16111 7.12666e-19)
(0.0704855 3.18721 -3.35989e-19)
(0.0234085 3.12953 0)
(0.660973 0.302659 0)
(0.576023 0.367704 0)
(1.10339 0.682259 -3.30418e-20)
(1.10041 0.813825 1.01778e-19)
(1.16001 0.5703 0)
(1.18977 0.512628 0)
(1.0162 0.0132219 -8.40429e-19)
(1.01499 0.0142309 1.05343e-18)
(1.02506 -0.0100206 0)
(1.02309 -0.0120741 0)
(1.00645 0.00260171 0)
(1.01037 0.00367371 0)
(1.00443 0.00190472 0)
(1.00981 0.00601579 0)
(1.00795 0.00592903 0)
(1.00448 0.00466396 0)
(0.0915795 1.34978 0)
(0.0843572 1.31774 0)
(0.113397 1.38273 0)
(0.127327 1.40428 0)
(0.144723 2.60253 0)
(0.1867 2.66418 -3.22353e-19)
(0.102705 2.65955 0)
(0.0848875 2.66228 9.28837e-20)
(0.0415867 2.67668 3.78448e-21)
(0.0770043 1.25222 0)
(0.0704702 1.1518 0)
(0.0307538 1.30763 0)
(0.0200795 1.26052 0)
(-0.0132295 1.97993 9.33687e-20)
(-0.0358211 2.60481 -1.18852e-19)
(-0.0154543 2.66426 -1.3033e-19)
(-0.0244496 2.67139 0)
(-0.0504514 2.61045 2.18818e-19)
(-0.0416982 2.60005 1.27989e-19)
(-0.0130222 1.97867 -6.76501e-20)
(-0.0332899 2.42488 1.59369e-19)
(-0.0145513 2.43017 1.47773e-19)
(1.01395 0.0346361 8.5011e-19)
(1.00865 0.0176348 -1.04926e-18)
(1.00561 0.041828 -8.5628e-19)
(0.985639 0.0233672 1.09254e-18)
(1.06204 0.00575088 0)
(1.04753 -0.00952567 0)
(1.0876 0.0247816 0)
(1.07021 0.00817207 0)
(1.06703 -0.00273201 0)
(1.12657 0.0725246 0)
(1.10041 0.0352771 0)
(1.10183 0.0255383 0)
(-0.216457 2.43985 2.07585e-20)
(-0.352557 2.29882 0)
(-0.27928 2.32633 0)
(-0.200711 2.60659 -1.16179e-19)
(-0.142635 2.55962 1.40699e-21)
(-0.281819 1.97266 -3.34518e-19)
(-0.321884 1.83275 3.35981e-19)
(-0.161529 1.37084 0)
(-0.27165 1.40022 0)
(-0.311282 1.44084 0)
(-0.0133921 1.04456 0)
(-0.0233659 0.937838 0)
(0.372834 1.47628 5.41614e-19)
(0.406686 1.48637 2.3211e-19)
(0.593922 2.45041 -1.96336e-19)
(0.405623 2.5433 5.60522e-19)
(0.354624 2.08219 1.0972e-20)
(1.02081 -0.0083105 0)
(1.01539 -0.00988026 0)
(1.01482 -0.0156443 0)
(1.00749 -0.001331 0)
(1.00498 -0.00101056 0)
(1.00775 -0.00484724 0)
(1.00921 -0.00387388 0)
(1.01412 -0.00458058 0)
(1.02165 0.0157836 8.16232e-19)
(1.01831 0.0157361 -1.04854e-18)
(1.02212 0.017627 -8.20447e-19)
(1.0197 0.0163577 1.02859e-18)
(0.760451 1.30553 0)
(0.693862 1.36004 4.18156e-19)
(0.869203 1.2018 2.1613e-19)
(0.912438 1.1582 -2.87667e-19)
(1.16003 2.61105 -1.18989e-19)
(0.821333 0.0958762 4.53722e-19)
(1.1432 0.100558 0)
(1.18595 0.186818 -2.25521e-19)
(1.17098 0.155727 -9.40708e-21)
(1.00458 0.131151 0)
(0.139298 2.96293 3.44002e-19)
(0.116408 2.86871 -9.28513e-19)
(0.0281727 2.36924 6.40114e-19)
(0.0934723 0.0166033 -2.79371e-19)
(0.340871 3.42237 -3.23139e-19)
(0.195115 3.31494 0)
(0.237578 3.35716 4.20833e-19)
(0.247154 3.03596 -1.29408e-18)
(0.341991 3.19474 0)
(0.0060228 3.12102 3.65895e-20)
(0.0162533 3.12979 -4.44354e-19)
(0.0144284 3.12579 6.54003e-19)
(0.0359894 3.14016 0)
(0.0346177 3.15081 0)
(1.21824 2.61072 0)
(0.538057 0.842334 -3.90388e-19)
(1.0322 0.984917 -9.36415e-20)
(0.970308 1.05507 0)
(0.815746 0.957965 -3.28655e-20)
(1.05529 0.872418 2.98253e-20)
(0.369333 0.415964 -7.33806e-19)
(0.70247 0.323929 -2.23351e-20)
(0.687892 0.254331 3.3478e-19)
(0.591883 0.396991 2.51102e-20)
(0.511388 0.373078 -1.01581e-18)
(0.672262 0.343247 0)
(0.697211 0.429711 5.60912e-19)
(0.704321 0.427161 0)
(0.629145 0.382304 0)
(0.609092 0.310719 0)
(0.782634 0.616172 2.85946e-19)
(1.2022 0.27982 -2.50116e-19)
(1.19795 0.414782 0)
(1.21117 0.364184 0)
(0.765357 0.197884 4.97302e-19)
(0.827897 0.539535 -2.98327e-19)
(0.733766 0.516356 5.12383e-19)
(0.926845 0.419395 -5.40388e-19)
(1.01995 0.0144933 5.62782e-19)
(1.01797 0.0141215 -5.68752e-19)
(1.01595 0.0156952 0)
(1.03557 -0.00643129 0)
(1.02939 -0.00890681 -5.26318e-19)
(1.02714 -0.012494 5.21008e-19)
(1.02516 0.00939455 0)
(1.0237 0.0129961 0)
(1.01139 0.00395655 0)
(1.01432 0.00881739 0)
(1.01507 0.00373686 0)
(1.01418 0.00268239 0)
(0.0706316 1.33424 0)
(0.0675743 1.29531 0)
(0.14819 1.34081 1.6016e-19)
(0.259507 1.46041 1.64531e-19)
(0.150334 1.4341 3.47836e-19)
(0.1808 1.44152 -5.6764e-19)
(0.166855 1.37062 0)
(0.123121 1.58981 9.8357e-20)
(0.11021 1.5592 0)
(0.351799 2.03724 -1.59456e-20)
(0.351896 2.36876 4.27437e-19)
(0.182885 1.44098 -8.58308e-20)
(0.26055 1.36268 1.05873e-19)
(0.190349 1.35308 -8.4971e-20)
(0.268091 1.30313 1.07375e-19)
(0.234104 1.57396 0)
(0.259566 1.61563 -4.7668e-20)
(0.028796 2.27235 3.04757e-20)
(0.0387713 2.6698 0)
(0.0625595 2.4109 -1.57721e-20)
(0.0538425 2.43135 0)
(0.0701088 2.67374 -1.03607e-19)
(0.051025 2.69877 0)
(0.0584712 1.43766 1.80365e-19)
(0.014802 1.47393 0)
(0.0244331 1.39342 0)
(0.0602864 1.39632 -1.97637e-19)
(-0.00302575 2.64921 -1.96856e-20)
(0.0248853 2.69735 -2.27454e-20)
(0.00936768 2.71704 -1.80697e-22)
(0.0646646 1.90193 -1.33746e-19)
(0.0169604 1.65826 -4.46287e-20)
(0.071351 1.1351 0)
(0.0487125 1.02198 0)
(0.0291048 1.57561 -2.29765e-19)
(0.0227743 1.4447 -2.16757e-19)
(0.0393976 1.50869 2.78845e-19)
(0.029204 1.602 0)
(-0.212177 2.48112 6.56424e-19)
(-0.214604 2.6161 -2.75437e-19)
(-0.139205 2.57366 5.94567e-20)
(0.0103769 1.93123 1.61428e-19)
(-0.0814781 2.53925 6.34846e-20)
(-0.036415 2.47247 -1.8726e-19)
(1.02062 0.0202358 -5.57878e-19)
(1.01744 0.0252163 5.60119e-19)
(1.01488 0.0164795 0)
(1.01822 0.0630788 7.77098e-19)
(0.996476 0.0544648 -8.96978e-19)
(0.9589 0.0402 1.01185e-18)
(1.01764 0.0948994 -1.04574e-19)
(1.04183 -0.00639353 0)
(1.04964 -0.00237187 4.94659e-19)
(1.03808 -0.0105387 -4.95379e-19)
(1.06772 0.0343431 -2.88438e-20)
(1.06242 0.0179328 2.50946e-19)
(1.06114 0.0453621 0)
(1.05612 0.0394467 -9.07779e-20)
(1.03307 0.0372736 0)
(1.02696 0.0342717 0)
(1.02762 0.0122232 0)
(1.02437 0.0151922 0)
(1.03899 0.0278715 1.87734e-19)
(1.03794 0.023658 -4.18079e-19)
(1.051 0.0282237 -1.97383e-19)
(1.04807 0.0279923 -2.18727e-19)
(1.07144 0.0516358 4.19886e-19)
(1.08794 0.0417114 0)
(1.09468 0.0884147 0)
(-0.22879 2.49213 3.16049e-19)
(-0.300337 2.31265 3.00364e-20)
(-0.289256 2.35371 0)
(-0.248604 2.51878 -2.9403e-19)
(-0.24669 2.47233 -4.94332e-20)
(-0.228004 2.5151 5.60788e-20)
(-0.0726641 2.61026 -1.02952e-19)
(-0.12158 2.59855 1.11415e-20)
(-0.0828671 2.55068 -4.27158e-20)
(-0.119428 2.61008 7.03394e-20)
(-0.0716854 2.58083 -8.675e-20)
(-0.132499 1.66587 -8.092e-21)
(-0.175504 2.01512 -4.57614e-19)
(0.363321 1.41293 -2.58008e-19)
(0.36104 1.35354 -1.82308e-19)
(0.641564 1.40598 -4.04426e-19)
(0.50853 1.4721 -2.24827e-19)
(0.55934 1.44612 0)
(0.58988 2.42503 1.67671e-19)
(0.657035 2.4153 2.81502e-19)
(0.411046 2.5197 8.08486e-20)
(0.405073 2.55699 -3.91704e-19)
(0.515617 2.50943 4.32869e-19)
(0.548243 2.46381 0)
(0.488241 2.51463 -4.57567e-19)
(0.246827 2.5917 8.83805e-19)
(0.352736 2.56858 -8.1117e-20)
(0.284345 2.65171 -1.25233e-18)
(0.9355 2.38496 4.88773e-19)
(0.830639 2.3876 0)
(1.01109 0.000208695 1.8461e-20)
(1.01528 -0.00553786 -1.49913e-20)
(1.01744 -0.00365767 -2.72607e-19)
(1.01484 -0.00114916 2.74485e-19)
(1.01233 0.000757023 0)
(0.628114 1.2723 0)
(0.649373 1.16605 0)
(0.750065 1.07217 0)
(0.641291 1.13425 0)
(1.18765 2.6267 5.79656e-20)
(1.07822 2.37093 0)
(0.845077 2.19774 1.08763e-21)
(0.827877 2.46485 0)
(0.922709 2.55214 -1.99217e-19)
(0.959658 2.50618 1.32726e-19)
(0.833387 0.14563 0)
(0.803146 0.133872 1.26432e-19)
(0.925216 0.122023 7.02075e-19)
(0.851348 0.119557 -2.70231e-19)
(0.832677 0.0605981 -8.18234e-19)
(1.06093 0.222242 -5.98276e-19)
(0.980346 0.275718 -1.56677e-20)
(0.910331 0.272071 6.51237e-19)
(0.995028 0.204358 5.24443e-19)
(0.946426 0.162374 -9.18613e-19)
(0.916979 0.170044 1.16139e-19)
(0.943793 0.23303 -2.42312e-19)
(0.922464 0.193203 0)
(0.991257 0.164216 4.4956e-19)
(1.03797 0.170632 0)
(1.03352 0.197066 0)
(1.09234 0.110474 1.92032e-19)
(1.06491 0.162031 -1.35149e-20)
(1.05512 0.226109 -1.05243e-19)
(1.08764 0.195419 0)
(1.02395 0.0417093 4.3043e-19)
(1.04378 0.0504226 5.28258e-19)
(1.03435 0.0385435 -4.27345e-19)
(1.04575 0.0557866 -3.54384e-19)
(1.02033 0.0650416 -5.48639e-19)
(0.990299 0.135158 0)
(1.00356 0.089746 0)
(0.973619 0.0550396 -3.61988e-19)
(0.925846 0.0707313 1.45015e-19)
(1.04198 0.0910823 4.92657e-19)
(1.0676 0.110906 -5.61058e-19)
(1.07154 0.141217 5.04632e-19)
(1.03362 0.129438 0)
(1.07398 0.0963173 0)
(1.06033 0.0773997 -2.29518e-19)
(1.05072 0.0854121 -4.01124e-19)
(0.587723 1.08883 2.66975e-20)
(0.618749 1.41628 7.36134e-20)
(1.15956 2.74263 -6.92196e-20)
(1.22549 3.08344 -3.33685e-20)
(1.25116 2.72524 2.0582e-19)
(1.28143 2.7089 -1.81586e-19)
(1.20991 2.3498 -9.74805e-21)
(1.21273 2.98755 4.58284e-20)
(1.23208 2.95281 1.7497e-20)
(1.21658 3.23723 -2.04285e-19)
(1.37768 2.96939 2.82571e-19)
(1.36867 2.88774 0)
(0.542626 0.849249 -3.22019e-20)
(0.140961 1.26339 4.75174e-19)
(0.526129 0.471694 4.78619e-19)
(0.361002 0.224998 5.22998e-19)
(0.530363 0.403498 5.71695e-19)
(0.538589 0.4908 -9.23405e-19)
(0.541225 0.49591 7.55714e-19)
(0.495426 0.422012 -2.8893e-19)
(0.425318 0.36186 6.60933e-19)
(0.767689 0.254679 -2.82469e-19)
(0.72724 0.291281 0)
(0.724094 0.22766 9.97977e-21)
(0.713011 0.515315 2.92768e-19)
(0.684285 0.489578 -1.07169e-18)
(0.604934 0.488891 1.64574e-20)
(0.62199 0.473671 0)
(0.668759 0.738474 2.80181e-19)
(0.812496 0.768555 2.3772e-19)
(0.742207 0.852074 -2.82006e-19)
(0.855089 0.80048 -9.27406e-20)
(0.887606 0.839654 -1.41828e-20)
(0.895938 0.841462 1.45179e-20)
(0.821885 0.643221 -4.7792e-19)
(0.899197 0.694599 8.61486e-20)
(0.957407 0.707644 0)
(0.946075 0.683773 -1.16223e-19)
(1.00609 0.317027 1.46225e-19)
(1.115 0.28891 1.61461e-19)
(1.04528 0.259764 2.44438e-19)
(0.986135 0.35009 -3.02822e-19)
(1.02866 0.416641 0)
(1.08316 0.404473 0)
(0.898476 0.349576 4.71299e-21)
(0.837737 0.284179 0)
(0.858881 0.274367 3.15095e-19)
(0.894674 0.278336 -6.33382e-21)
(0.918031 0.42259 1.49872e-18)
(0.874823 0.48434 3.84848e-19)
(0.880273 0.449243 -4.3048e-19)
(0.81132 0.437288 4.61556e-19)
(0.793216 0.431938 2.87666e-19)
(0.764873 0.417129 -2.8262e-19)
(1.0272 -0.000647607 4.51565e-19)
(1.02013 -0.000293879 0)
(1.0186 0.000587632 2.95052e-19)
(1.02112 -0.00213758 -6.67156e-19)
(1.02247 0.00415189 3.24496e-19)
(1.02048 0.0108111 -6.796e-19)
(1.02148 0.0102258 0)
(1.02087 0.0104619 -1.42117e-19)
(1.01613 0.00738216 3.56496e-19)
(1.01681 0.0101703 -1.77926e-19)
(1.01747 0.00954561 1.31042e-19)
(0.0481576 1.31746 0)
(0.0345341 1.3676 0)
(0.05042 1.31908 0)
(0.0313666 1.27818 0)
(0.0760469 1.37061 -3.59677e-19)
(0.0848087 1.3411 1.17066e-19)
(0.101699 1.49549 7.04163e-20)
(0.0917898 1.33671 -8.17248e-20)
(0.027571 1.45403 2.0783e-19)
(0.0320948 1.44531 -1.60254e-19)
(0.064216 1.35243 -5.43862e-21)
(0.0555252 1.3552 2.26704e-19)
(0.0491792 1.33491 3.2738e-20)
(0.0320263 1.3666 2.73975e-20)
(0.104316 2.38681 1.93423e-20)
(0.0945593 2.43002 0)
(0.161648 2.06624 3.7042e-20)
(0.106721 1.7073 -3.06586e-20)
(0.225834 2.06029 -2.96337e-20)
(0.211879 2.45647 0)
(0.268526 2.40976 -3.49588e-19)
(0.303296 2.40906 2.49602e-19)
(0.229028 2.01918 -8.09122e-20)
(0.148609 2.18554 7.78036e-20)
(0.143889 2.30756 0)
(0.0288301 1.88328 2.30794e-19)
(-0.0073989 2.40661 1.76353e-19)
(-0.0214262 2.15289 0)
(0.00308642 2.46433 -1.27993e-20)
(0.0286001 2.31448 -9.90641e-20)
(0.0992487 1.43634 -3.83105e-20)
(0.141546 1.3702 6.67298e-19)
(0.108746 1.42612 -2.26182e-19)
(0.090269 1.45321 -1.80533e-19)
(0.0847858 1.46427 0)
(0.103199 1.39965 0)
(-0.0312303 1.05071 -3.22366e-19)
(0.0788899 1.31054 9.76465e-20)
(0.121072 1.34143 0)
(0.0364044 1.04197 -2.11057e-19)
(0.0147365 0.916274 4.47764e-19)
(1.04028 0.010732 0)
(1.0456 0.00710073 -4.63709e-20)
(1.03849 0.0205298 -3.35719e-19)
(1.04752 0.0185263 0)
(1.05219 0.0181214 0)
(1.03564 0.0105029 -6.41782e-21)
(1.03139 0.0104437 5.41859e-19)
(1.03135 0.0152906 6.58843e-19)
(1.02614 0.0190454 0)
(1.02359 0.0198556 0)
(1.03475 0.0231713 3.35686e-19)
(1.02586 0.0247412 0)
(1.02548 0.0240696 0)
(-0.0209746 2.22084 0)
(-0.0974636 2.04493 7.33898e-21)
(-0.0889141 2.14769 -1.50261e-19)
(0.0593712 1.31049 0)
(0.0442981 1.75458 -1.95421e-19)
(0.0350887 1.49339 1.68289e-19)
(0.0237506 1.27719 0)
(0.394664 1.69204 0)
(0.36136 1.28009 2.91497e-19)
(0.304898 1.33633 0)
(0.416595 1.27932 -4.17037e-19)
(0.460491 1.44489 0)
(0.441745 1.3886 2.06211e-19)
(1.03226 2.69708 -1.0087e-20)
(0.958555 2.41672 -6.15318e-19)
(0.90495 2.18557 7.09121e-19)
(0.843252 2.38012 1.82101e-19)
(0.845087 2.51126 0)
(0.915252 2.50516 0)
(0.918853 2.37882 0)
(0.896491 2.36304 -7.02488e-19)
(0.692875 2.48417 -2.02548e-19)
(0.801716 2.47594 -5.49739e-20)
(0.813351 2.44684 4.20766e-20)
(0.691277 2.3926 0)
(0.795203 2.39063 0)
(0.754313 2.40161 -2.9769e-19)
(0.769695 2.50167 0)
(0.613249 1.08713 0)
(0.489731 0.933267 -2.64303e-19)
(0.557412 0.965096 -1.73294e-20)
(0.529477 1.0653 0)
(0.528985 1.01466 3.9789e-19)
(0.765822 0.874922 -6.21401e-20)
(0.776121 1.00915 0)
(0.749444 0.963833 6.94019e-20)
(0.641714 1.02887 0)
(0.644518 0.941336 0)
(1.16622 2.76447 -9.2574e-20)
(1.14454 2.82798 9.05933e-21)
(0.936347 2.35082 -8.47005e-20)
(0.903209 2.32989 -2.56885e-20)
(1.13079 2.73917 0)
(1.0832 2.71005 3.10626e-20)
(1.09013 2.49226 -2.03205e-19)
(0.985571 2.23674 -3.08121e-20)
(0.504737 1.37044 0)
(0.51874 1.08275 -2.35748e-20)
(0.554708 1.15396 0)
(0.860107 0.214076 0)
(0.80951 0.170131 0)
(0.768078 0.149343 0)
(0.854048 0.222751 -4.95828e-19)
(0.786171 0.21362 2.96782e-19)
(0.935409 0.0574993 -2.98687e-19)
(0.950479 0.103503 0)
(0.926085 0.10868 1.3046e-19)
(0.874844 0.0862321 5.26094e-19)
(0.857223 0.0475085 -3.27258e-19)
(1.16375 3.36273 -8.47918e-19)
(1.21146 3.28191 0)
(1.16215 3.39089 -1.70668e-18)
(0.648861 3.55171 1.45759e-18)
(0.873939 3.1189 2.19926e-19)
(0.516493 0.85766 4.23884e-19)
(0.436797 0.854082 0)
(0.340534 0.504572 -1.18767e-19)
(0.441989 0.688418 6.33018e-19)
(0.528518 0.477004 -1.61813e-19)
(0.504178 0.526522 1.85266e-19)
(0.649685 0.543308 3.98584e-19)
(0.678678 0.562804 0)
(0.630793 0.62511 0)
(0.588764 0.563577 0)
(0.953619 0.594355 2.77695e-20)
(0.87787 0.534022 -3.73913e-19)
(0.900949 0.565938 2.57739e-19)
(0.936375 0.501806 -2.85972e-19)
(1.04022 0.475232 0)
(1.04868 0.564676 -5.7523e-20)
(0.836389 0.387496 -6.50437e-19)
(0.840707 0.372567 -7.84147e-19)
(0.790221 0.383983 5.08125e-19)
(0.783276 0.355843 -5.38418e-19)
(0.836753 0.311945 -4.11376e-19)
(0.792182 0.309593 5.05967e-19)
(1.02651 0.00558108 -3.44509e-19)
(1.02627 0.00574795 7.01227e-19)
(1.02941 -0.000449854 4.35285e-19)
(1.0331 0.000325845 -5.23714e-19)
(1.03308 0.00767513 0)
(1.02991 0.00853534 -8.47528e-19)
(0.0511606 1.64618 -1.6272e-20)
(0.0343067 1.57412 0)
(0.0841184 1.69519 -1.80464e-19)
(0.0784979 1.67732 1.70489e-19)
(0.0910713 1.52849 -1.32124e-19)
(0.0897923 1.50494 0)
(0.131472 1.81742 0)
(0.0919388 1.61021 8.18983e-20)
(0.115653 1.45939 -7.29658e-20)
(0.0826326 1.66377 1.89247e-20)
(0.0259504 2.09907 1.46231e-19)
(0.0292966 2.08187 -4.86132e-20)
(0.498095 1.37996 7.01431e-20)
(0.490875 1.38545 -7.22627e-20)
(0.438065 1.27766 1.92519e-19)
(0.433815 1.29452 -8.77467e-21)
(0.623003 1.28753 0)
(0.537516 1.37456 3.10441e-19)
(0.554602 1.38362 -3.02254e-19)
(0.444438 1.2665 -1.85714e-19)
(0.500343 1.22048 0)
(0.556553 1.19088 0)
(0.659396 2.44347 2.97609e-19)
(0.669507 2.47475 8.96534e-19)
(0.717436 2.49026 -6.16921e-19)
(0.620755 2.47186 -1.63429e-19)
(0.56323 2.56248 1.90736e-19)
(0.512749 2.53465 -5.22112e-19)
(0.972788 2.38142 -3.92399e-19)
(1.0121 2.3976 0)
(0.91834 2.16563 -4.69477e-19)
(1.05224 2.69047 0)
(1.05445 2.67753 0)
(0.614486 2.27818 4.93649e-20)
(1.04439 3.16527 3.00401e-19)
(0.915444 3.03549 -2.24072e-19)
(0.284306 0.923695 0)
(0.32318 0.784594 -2.39764e-19)
(0.481393 0.739373 -2.02207e-19)
(0.390269 2.02666 0)
(0.469024 2.78772 -1.53116e-19)
(0.424644 2.55203 0)
(0.678058 0.688626 -5.90396e-19)
(0.756362 0.679424 7.94499e-19)
(0.774882 0.624629 -7.84195e-19)
(0.657012 0.652407 -7.95768e-20)
(0.712157 0.600825 -3.29308e-19)
(1.00692 2.76912 -2.28418e-19)
(1.04336 2.82448 5.32867e-20)
(0.640996 2.15403 3.89763e-19)
(0.600178 1.72195 -2.92754e-19)
(0.70381 1.91267 -1.58589e-19)
(0.993145 2.45244 -9.25053e-20)
(0.997235 2.4448 7.60858e-20)
(0.663467 1.8513 1.22602e-20)
(0.457783 1.34299 3.7732e-20)
)
;

boundaryField
{
    wall-4
    {
        type            noSlip;
    }
    velocity-inlet-5
    {
        type            fixedValue;
        value           uniform (1 0 0);
    }
    velocity-inlet-6
    {
        type            fixedValue;
        value           uniform (0 3 0);
    }
    pressure-outlet-7
    {
        type            zeroGradient;
    }
    wall-8
    {
        type            noSlip;
    }
    frontAndBackPlanes
    {
        type            empty;
    }
}


// ************************************************************************* //
