/*--------------------------------*- C++ -*----------------------------------*\
  =========                 |
  \\      /  F ield         | OpenFOAM: The Open Source CFD Toolbox
   \\    /   O peration     | Website:  https://openfoam.org
    \\  /    A nd           | Version:  9
     \\/     M anipulation  |
\*---------------------------------------------------------------------------*/
FoamFile
{
    format      ascii;
    class       volScalarField;
    location    "11";
    object      p;
}
// * * * * * * * * * * * * * * * * * * * * * * * * * * * * * * * * * * * * * //

dimensions      [0 2 -2 0 0 0 0];

internalField   nonuniform List<scalar> 
8800
(
0.434411
0.386414
0.348116
0.319584
0.299111
0.284529
0.274118
0.266795
0.262067
0.25998
0.260971
0.264788
0.271049
0.28
0.29244
0.309772
0.334025
0.367503
0.40985
0.466939
0.266773
0.274028
0.28259
0.286151
0.284415
0.279117
0.272667
0.26671
0.262081
0.259224
0.258775
0.260972
0.2651
0.270694
0.277201
0.283448
0.287303
0.28658
0.280333
0.271226
0.243136
0.249425
0.253854
0.25749
0.260276
0.261361
0.260518
0.258594
0.256655
0.255619
0.256341
0.258355
0.260721
0.262468
0.262564
0.260624
0.257413
0.253442
0.248691
0.244871
0.237688
0.240487
0.243603
0.246335
0.248327
0.249904
0.251056
0.251491
0.251371
0.25131
0.251718
0.25236
0.252621
0.252068
0.250845
0.249214
0.246965
0.243956
0.241188
0.239671
0.232373
0.23387
0.236318
0.239122
0.241487
0.243207
0.244429
0.245363
0.246053
0.246536
0.246819
0.246807
0.246415
0.245641
0.244411
0.242521
0.239991
0.237259
0.235451
0.234703
0.228443
0.22923
0.231203
0.233594
0.235927
0.238149
0.239979
0.241279
0.242167
0.242775
0.243122
0.243071
0.242489
0.241291
0.23947
0.237356
0.235101
0.232856
0.231557
0.231254
0.226897
0.22729
0.228412
0.229866
0.23135
0.232737
0.234113
0.235489
0.236678
0.237554
0.237917
0.237699
0.237037
0.236113
0.235077
0.233822
0.232464
0.231186
0.23049
0.23035
0.225445
0.225657
0.226289
0.2272
0.228243
0.229521
0.23086
0.232117
0.233266
0.234218
0.234727
0.234705
0.234255
0.233461
0.23251
0.231665
0.230865
0.230166
0.229805
0.229731
0.223224
0.223338
0.223701
0.224288
0.224998
0.225767
0.226799
0.22795
0.229121
0.230187
0.230855
0.23101
0.230809
0.230442
0.230045
0.229578
0.229154
0.228792
0.228615
0.228573
0.220326
0.220386
0.220649
0.221117
0.221665
0.222501
0.223331
0.224342
0.225481
0.226652
0.227555
0.228025
0.228147
0.228041
0.227832
0.227638
0.227359
0.22712
0.227024
0.227004
0.21711
0.217147
0.217344
0.217733
0.218246
0.218904
0.219733
0.220766
0.221997
0.223358
0.224536
0.225288
0.22569
0.225864
0.225872
0.225784
0.225645
0.225527
0.225491
0.225481
0.21356
0.213588
0.213742
0.214059
0.214519
0.215145
0.215979
0.217069
0.218433
0.220046
0.221571
0.222673
0.223378
0.223799
0.224017
0.224106
0.224114
0.224101
0.224104
0.224096
0.209614
0.209642
0.209782
0.210074
0.210524
0.211173
0.212081
0.213313
0.214913
0.216887
0.218841
0.220333
0.221344
0.222012
0.222424
0.222665
0.222794
0.222862
0.222894
0.222886
0.205201
0.205224
0.20538
0.205683
0.206166
0.206888
0.207929
0.209378
0.211312
0.213755
0.216237
0.218178
0.219566
0.220505
0.22112
0.221509
0.221744
0.221877
0.221931
0.221923
0.20025
0.200276
0.200452
0.2008
0.201361
0.202214
0.203462
0.205224
0.207608
0.210659
0.213801
0.216311
0.218116
0.219358
0.220187
0.220725
0.221061
0.221252
0.221328
0.221318
0.194645
0.194677
0.19489
0.195311
0.195995
0.19704
0.198579
0.200766
0.203742
0.207574
0.211549
0.21474
0.217041
0.21864
0.219716
0.220419
0.220861
0.221114
0.221213
0.221201
0.188226
0.188266
0.188535
0.189062
0.189919
0.191231
0.193166
0.195916
0.199662
0.20449
0.209499
0.213523
0.216433
0.21846
0.219827
0.220721
0.221285
0.221608
0.221733
0.221718
0.180782
0.180834
0.181178
0.181853
0.182949
0.184622
0.18708
0.190569
0.19531
0.2014
0.207701
0.212752
0.216404
0.218947
0.220663
0.221787
0.222495
0.222899
0.223056
0.223038
0.172019
0.172086
0.172534
0.173412
0.17484
0.177008
0.180156
0.184602
0.190624
0.19831
0.206218
0.212531
0.217088
0.22026
0.222402
0.223803
0.224684
0.225185
0.22538
0.225358
0.161529
0.161618
0.162207
0.163364
0.165241
0.168045
0.172126
0.177862
0.185533
0.195236
0.205132
0.212991
0.218651
0.22259
0.225251
0.226992
0.228084
0.228701
0.22894
0.228913
0.148754
0.148877
0.149662
0.151209
0.153701
0.157413
0.162762
0.170166
0.17997
0.192206
0.204546
0.214281
0.221279
0.226151
0.22945
0.231615
0.232971
0.233734
0.234027
0.233988
0.13291
0.133084
0.134151
0.136269
0.139647
0.144611
0.151672
0.161331
0.173892
0.189285
0.204587
0.216574
0.22518
0.231187
0.235273
0.23797
0.239667
0.240615
0.240977
0.240923
0.112815
0.113068
0.114575
0.117574
0.122263
0.129052
0.138554
0.151244
0.16733
0.186594
0.20542
0.22006
0.230578
0.237959
0.243018
0.246391
0.248536
0.249733
0.250173
0.250103
0.0865691
0.0869555
0.0892402
0.0937375
0.10053
0.110126
0.123123
0.139874
0.160413
0.184319
0.207232
0.224919
0.237667
0.246701
0.25298
0.257234
0.259988
0.261548
0.262122
0.262026
0.0509254
0.0516303
0.0555165
0.0628239
0.0732253
0.0872246
0.105226
0.127348
0.153377
0.18269
0.210192
0.231273
0.246553
0.25755
0.265367
0.270813
0.274447
0.276546
0.277316
0.277186
-0.000346946
0.0017533
0.0097461
0.0227697
0.0395129
0.060278
0.0851907
0.114106
0.146609
0.181964
0.214415
0.239129
0.257174
0.270416
0.280131
0.287208
0.292196
0.295282
0.296459
0.296275
-0.0773729
-0.0667503
-0.0485104
-0.0252569
0.00100974
0.0307676
0.0640898
0.100791
0.140465
0.182421
0.220288
0.249079
0.270374
0.28641
0.29867
0.308186
0.315521
0.320625
0.323032
0.32331
-0.159003
-0.136194
-0.107203
-0.0736
-0.0375883
0.00122593
0.0429647
0.0875772
0.134782
0.184044
0.228338
0.262254
0.287773
0.307499
0.323138
0.335815
0.346163
0.355037
0.359777
0.360228
-0.222905
-0.197493
-0.160184
-0.118359
-0.0738749
-0.0267562
0.0229618
0.0751682
0.12958
0.185701
0.235822
0.274139
0.303019
0.325432
0.343247
0.357675
0.369369
0.378761
0.383271
0.383918
-0.274005
-0.246436
-0.204622
-0.156945
-0.106013
-0.0521609
0.00438974
0.0633408
0.124298
0.186669
0.241898
0.283727
0.314935
0.338847
0.357557
0.372477
0.384478
0.393807
0.39856
0.399246
-0.315206
-0.287018
-0.24181
-0.189849
-0.134065
-0.0748945
-0.012675
0.0521189
0.118884
0.186808
0.246491
0.291247
0.324222
0.349146
0.368385
0.383502
0.395485
0.404596
0.409438
0.410145
-0.349993
-0.321579
-0.274013
-0.218661
-0.1589
-0.0952959
-0.0282992
0.0415449
0.113505
0.186565
0.25039
0.297761
0.332233
0.357939
0.377493
0.392636
0.404511
0.413389
0.418223
0.418948
-0.380473
-0.352025
-0.302637
-0.244589
-0.181543
-0.114161
-0.0429635
0.0314252
0.108143
0.18594
0.253609
0.303442
0.339329
0.365768
0.385642
0.400854
0.412648
0.421394
0.426151
0.426887
-0.408045
-0.379506
-0.328784
-0.268473
-0.20266
-0.132031
-0.0571418
0.0213033
0.102373
0.184693
0.256211
0.308587
0.345971
0.373227
0.393488
0.408828
0.420594
0.429253
0.433901
0.434635
-0.433598
-0.404949
-0.353083
-0.290869
-0.22271
-0.149298
-0.0711779
0.0109563
0.0961436
0.182896
0.25832
0.31339
0.352431
0.380636
0.401385
0.416928
0.428724
0.437267
0.441807
0.44259
-0.457789
-0.428961
-0.376104
-0.312246
-0.242061
-0.166202
-0.0851846
0.000320489
0.0893691
0.180433
0.259884
0.317892
0.358836
0.388188
0.409567
0.425405
0.437285
0.445773
0.450177
0.450995
-0.480868
-0.451826
-0.398072
-0.332906
-0.260931
-0.182917
-0.0993317
-0.0107782
0.0818873
0.177202
0.260831
0.322072
0.36523
0.395979
0.418174
0.434429
0.446465
0.454941
0.459214
0.459998
-0.503193
-0.473819
-0.419303
-0.353017
-0.27949
-0.199606
-0.113744
-0.0224138
0.0736362
0.173098
0.261043
0.325834
0.37157
0.404037
0.427281
0.444117
0.45642
0.464933
0.469068
0.469779
-0.524797
-0.495123
-0.440068
-0.372652
-0.297785
-0.216281
-0.128419
-0.0346059
0.064566
0.168019
0.260374
0.329025
0.377747
0.412311
0.436901
0.454522
0.467217
0.475828
0.479851
0.48041
-0.545754
-0.515754
-0.460224
-0.391831
-0.315829
-0.232935
-0.143347
-0.0473504
0.0546592
0.161895
0.258665
0.331446
0.383573
0.420688
0.446981
0.465636
0.478869
0.487653
0.4916
0.491965
-0.566133
-0.535764
-0.479791
-0.410565
-0.333621
-0.249547
-0.158486
-0.0605982
0.0439373
0.154687
0.255775
0.332872
0.388788
0.42894
0.457387
0.477398
0.491375
0.5004
0.504267
0.50442
-0.585976
-0.555284
-0.498751
-0.428839
-0.351093
-0.266053
-0.173765
-0.0742809
0.0324513
0.146375
0.251595
0.333056
0.39306
0.436743
0.467919
0.489694
0.504627
0.513945
0.517653
0.517614
-0.605111
-0.574087
-0.517062
-0.4466
-0.368196
-0.282365
-0.189104
-0.0883033
0.020282
0.136998
0.246019
0.331752
0.396036
0.443761
0.478341
0.50246
0.518581
0.528137
0.531562
0.531287
-0.623513
-0.592178
-0.534733
-0.46379
-0.384862
-0.298416
-0.204397
-0.102571
0.00753174
0.126614
0.239015
0.328772
0.397357
0.449478
0.488216
0.515614
0.533368
0.542878
0.545635
0.545074
-0.641215
-0.6095
-0.551723
-0.480374
-0.401026
-0.314124
-0.21955
-0.116964
-0.00568537
0.115323
0.230608
0.323994
0.396618
0.453189
0.496818
0.528902
0.549532
0.55864
0.559429
0.558384
-0.658083
-0.626106
-0.567978
-0.496283
-0.41663
-0.329412
-0.234467
-0.131362
-0.0192271
0.103263
0.220863
0.317349
0.39355
0.45414
0.502941
0.541337
0.567629
0.577946
0.574218
0.570851
-0.674207
-0.641932
-0.583508
-0.511544
-0.431705
-0.344327
-0.249207
-0.145829
-0.0331611
0.0903753
0.209678
0.308623
0.387915
0.451598
0.504913
0.550578
0.586157
0.605038
0.600013
0.581085
-0.689542
-0.657007
-0.598431
-0.526317
-0.446516
-0.359172
-0.264157
-0.160837
-0.0480369
0.0759884
0.196346
0.296943
0.378889
0.444395
0.49956
0.550739
0.593889
0.615423
0.603714
0.581667
-0.703967
-0.671426
-0.612595
-0.540387
-0.460822
-0.37364
-0.279095
-0.176052
-0.0635112
0.0604549
0.181117
0.282243
0.366125
0.432575
0.483182
0.532199
0.568626
0.574736
0.509789
0.46658
-0.717084
-0.685912
-0.625534
-0.553169
-0.474015
-0.387288
-0.293757
-0.191247
-0.0793413
0.0439754
0.164069
0.264618
0.349025
0.417196
0.45732
0.485533
0.50578
0.465881
0.389223
0.339752
-0.763524
-0.697737
-0.637128
-0.565853
-0.487202
-0.401231
-0.308169
-0.206631
-0.0958123
0.0262123
0.144822
0.243785
0.325982
0.398811
0.416906
0.415597
0.388264
0.320881
0.231373
0.182801
-0.724848
-0.709934
-0.653303
-0.584497
-0.506134
-0.421193
-0.329718
-0.229775
-0.120986
-0.00164921
0.11303
0.207683
0.282613
0.343759
0.351501
0.224085
0.102224
0.0169034
-0.0711781
-0.0190407
-0.751926
-0.72404
-0.667575
-0.598335
-0.520763
-0.436632
-0.345689
-0.247126
-0.140071
-0.0230881
0.0878439
0.177379
0.245448
0.278206
0.221265
0.0429815
-0.118855
-0.234101
-0.361702
-0.2759
-0.771317
-0.740351
-0.683387
-0.613792
-0.536719
-0.453242
-0.363129
-0.266185
-0.161223
-0.0472293
0.0592519
0.14224
0.201
0.205472
0.0750235
-0.162901
-0.364094
-0.519706
-0.697949
-0.621075
-0.789372
-0.757043
-0.699312
-0.629305
-0.552525
-0.469728
-0.380815
-0.285586
-0.182857
-0.0723024
0.0290228
0.10497
0.151415
0.115394
-0.0973275
-0.378562
-0.639269
-0.872386
-1.13442
-1.09423
-0.805915
-0.773653
-0.715377
-0.64514
-0.568677
-0.486659
-0.399127
-0.305706
-0.205451
-0.098474
-0.00284758
0.0652962
0.0942347
0.00848306
-0.266624
-0.586175
-0.905989
-1.1893
-1.56035
-1.87767
-0.821975
-0.790108
-0.731797
-0.661561
-0.585447
-0.504239
-0.418071
-0.326575
-0.22897
-0.125697
-0.0360229
0.0232603
0.0329171
-0.10638
-0.421267
-0.756944
-1.10172
-1.37693
-1.52903
-1.8045
-0.838124
-0.806622
-0.748678
-0.678678
-0.603064
-0.522826
-0.438201
-0.348911
-0.254271
-0.155137
-0.0720991
-0.0233345
-0.0357538
-0.243311
-0.562731
-0.884557
-1.19602
-1.38586
-1.41978
-1.45601
-0.854605
-0.823497
-0.765913
-0.696358
-0.621429
-0.542386
-0.459647
-0.373014
-0.281867
-0.187316
-0.111224
-0.0745971
-0.119553
-0.383063
-0.693564
-0.979499
-1.2428
-1.3747
-1.38626
-1.3841
-0.871507
-0.840692
-0.783402
-0.714373
-0.640277
-0.562701
-0.482182
-0.398696
-0.311646
-0.2219
-0.153132
-0.129966
-0.214674
-0.51796
-0.826276
-1.06162
-1.26591
-1.3571
-1.34347
-1.33534
-0.888592
-0.85796
-0.800937
-0.732466
-0.659386
-0.58349
-0.505647
-0.425898
-0.343563
-0.258809
-0.197342
-0.189644
-0.322801
-0.658179
-0.970585
-1.12968
-1.17426
-1.25792
-1.30616
-1.31582
-0.905468
-0.874953
-0.818143
-0.750221
-0.678306
-0.604419
-0.529729
-0.454247
-0.377836
-0.297757
-0.242219
-0.251672
-0.440377
-0.823633
-1.15672
-1.28793
-1.22728
-1.3274
-1.39041
-1.40704
-0.92134
-0.891133
-0.83442
-0.767085
-0.69648
-0.624858
-0.553782
-0.483602
-0.414049
-0.338555
-0.28659
-0.308861
-0.560281
-1.04036
-1.44969
-1.74609
-1.64401
-1.60693
-1.61449
-1.62044
-0.935619
-0.905588
-0.848946
-0.782453
-0.713142
-0.64406
-0.577219
-0.513634
-0.450872
-0.382787
-0.329267
-0.359015
-0.671869
-1.26403
-1.77822
-2.11784
-1.99197
-1.8923
-1.87531
-1.87573
-0.947351
-0.917512
-0.86131
-0.795257
-0.727369
-0.661095
-0.599234
-0.543595
-0.491655
-0.431436
-0.372402
-0.411905
-0.769133
-1.37493
-1.91101
-2.21238
-2.21274
-2.15373
-2.13149
-2.13639
-0.955228
-0.925447
-0.869735
-0.804309
-0.737993
-0.674775
-0.618574
-0.573031
-0.537313
-0.492727
-0.435245
-0.484645
-0.85009
-1.43489
-2.05426
-2.49217
-2.67108
-2.63431
-2.49804
-2.44703
-0.957888
-0.928453
-0.873083
-0.808362
-0.74366
-0.683705
-0.634023
-0.601481
-0.591163
-0.584993
-0.552715
-0.595657
-0.923383
-1.46674
-2.09122
-2.67252
-2.91815
-2.8886
-2.70412
-2.57349
-0.954132
-0.924883
-0.869785
-0.80603
-0.742915
-0.68626
-0.643819
-0.627836
-0.656735
-0.737475
-0.791527
-0.794989
-0.923923
-1.24936
-1.65362
-2.12287
-2.28787
-2.18217
-1.94564
-1.80658
-0.942536
-0.913421
-0.859126
-0.795966
-0.734315
-0.680576
-0.645325
-0.649069
-0.736372
-0.978056
-1.20762
-1.06628
-0.86091
-0.726373
-0.582554
-0.483372
-0.398325
-0.233705
-0.0599823
0.0249889
-0.921636
-0.892779
-0.839221
-0.777032
-0.716398
-0.664675
-0.635156
-0.658242
-0.817984
-1.28911
-1.77608
-1.34729
-0.744219
-0.0635904
0.569738
1.03735
1.38182
1.57238
1.67094
1.70339
-0.890696
-0.862037
-0.809458
-0.748195
-0.687979
-0.63668
-0.609112
-0.641456
-0.850419
-1.49981
-2.17438
-1.49216
-0.575771
0.376129
1.13574
1.67838
2.01534
2.15695
2.21
2.22163
-0.849113
-0.820919
-0.769332
-0.708874
-0.648316
-0.594754
-0.56231
-0.585111
-0.773676
-1.36954
-1.89601
-1.14755
-0.246401
0.620647
1.22407
1.61214
1.83457
1.94321
1.99247
2.00398
-0.796312
-0.768676
-0.718978
-0.659501
-0.598239
-0.540556
-0.49668
-0.491368
-0.59108
-0.908004
-1.03986
-0.45989
0.203825
0.773047
1.14553
1.38249
1.52421
1.60694
1.65106
1.65674
-0.731113
-0.705882
-0.658997
-0.601408
-0.540258
-0.478888
-0.422867
-0.383809
-0.384568
-0.429977
-0.328124
0.0682218
0.485968
0.801205
1.01698
1.16275
1.2605
1.32603
1.35848
1.36534
-0.655805
-0.632678
-0.590726
-0.536591
-0.477247
-0.414544
-0.350412
-0.287396
-0.226014
-0.14223
0.0294674
0.280683
0.53229
0.719622
0.855912
0.954942
1.02699
1.07669
1.10516
1.11411
-0.570036
-0.554116
-0.51519
-0.466037
-0.410989
-0.350586
-0.284539
-0.211744
-0.126658
-0.0102472
0.14902
0.321271
0.47532
0.594319
0.683769
0.75154
0.803246
0.840426
0.861254
0.867001
-0.461276
-0.453305
-0.425717
-0.386252
-0.340192
-0.287662
-0.227439
-0.157752
-0.073609
0.0369499
0.171011
0.301351
0.411681
0.497152
0.561051
0.607791
0.641425
0.665764
0.680631
0.684043
-0.353431
-0.349843
-0.331375
-0.302659
-0.267552
-0.225653
-0.17538
-0.114712
-0.0395702
0.0573036
0.167825
0.268949
0.351412
0.414146
0.45979
0.491977
0.513877
0.527691
0.534442
0.535969
-0.251387
-0.24958
-0.23907
-0.220361
-0.195909
-0.165015
-0.125932
-0.0764553
-0.0133354
0.0679175
0.157353
0.235982
0.29805
0.344141
0.376718
0.398699
0.412763
0.421039
0.424876
0.425286
-0.159266
-0.159035
-0.154027
-0.143858
-0.129008
-0.108342
-0.0800524
-0.0419381
0.00848315
0.0740873
0.145589
0.206875
0.253946
0.287924
0.311271
0.326396
0.335426
0.340236
0.34214
0.342134
-0.0839865
-0.0846272
-0.0840496
-0.080518
-0.0731583
-0.0604105
-0.0408395
-0.012594
0.0264619
0.0781804
0.134435
0.181723
0.217342
0.242509
0.25918
0.269487
0.275345
0.278174
0.279126
0.278982
-0.0302837
-0.0311948
-0.0327266
-0.0332366
-0.0305349
-0.0233617
-0.0102677
0.0102677
0.0398677
0.0798478
0.123399
0.159711
0.186521
0.205009
0.217054
0.224342
0.228211
0.229872
0.230346
0.230171
0.004289
0.00346964
0.00155853
6.96293e-05
0.000554142
0.00426586
0.0126473
0.0272182
0.0493514
0.0799284
0.113339
0.140952
0.16114
0.174948
0.183679
0.18868
0.191173
0.19209
0.192265
0.192095
0.0253025
0.0247138
0.0231529
0.0217076
0.0216452
0.0239088
0.0295211
0.0397716
0.0560128
0.0790827
0.104528
0.125561
0.140671
0.150713
0.156906
0.160386
0.161989
0.162431
0.162435
0.162289
0.0378326
0.0374438
0.0363785
0.0352991
0.0350933
0.036538
0.0405382
0.048066
0.0601065
0.0773788
0.0965263
0.112256
0.123468
0.130894
0.135418
0.137833
0.138836
0.13901
0.138941
0.138822
0.0453561
0.0451016
0.0444057
0.0436814
0.0435481
0.0445335
0.0473161
0.0527529
0.0616909
0.0746483
0.0890431
0.100869
0.109256
0.114715
0.117946
0.11962
0.120261
0.120308
0.12022
0.120125
0.0496482
0.0494764
0.049
0.0485005
0.0484273
0.0491787
0.051245
0.0552374
0.0618174
0.071466
0.0822466
0.0910603
0.0972502
0.101237
0.103571
0.104741
0.105145
0.105125
0.105036
0.104959
0.051584
0.0514633
0.0511146
0.050742
0.0506783
0.0512154
0.0527267
0.055683
0.0605851
0.0677683
0.0757957
0.0823503
0.0869314
0.0898588
0.0915374
0.0923508
0.0926014
0.0925497
0.0924667
0.0924053
0.0517199
0.0516345
0.05138
0.051104
0.051058
0.0514549
0.0525679
0.054745
0.0583707
0.0637132
0.0696915
0.0745554
0.077934
0.0800665
0.0812713
0.0818345
0.0819837
0.0819178
0.0818441
0.0817949
0.050508
0.0504463
0.0502617
0.0500587
0.0500252
0.0503187
0.051143
0.0527589
0.0554465
0.0594125
0.063844
0.0674388
0.0699223
0.0714759
0.0723392
0.072727
0.0728107
0.0727418
0.0726783
0.0726391
0.0483033
0.0482573
0.0481236
0.0479767
0.0479545
0.0481736
0.0487837
0.049978
0.0519701
0.0549094
0.0581901
0.0608431
0.0626663
0.0637951
0.0644108
0.0646754
0.0647175
0.0646521
0.0645983
0.0645669
0.0453761
0.0453409
0.0452436
0.0451378
0.045124
0.0452879
0.0457404
0.0466239
0.0480972
0.0502683
0.0526918
0.0546446
0.0559776
0.0567951
0.0572327
0.0574118
0.0574284
0.0573688
0.0573236
0.0572986
0.0419213
0.0418938
0.0418211
0.0417432
0.0417331
0.0418539
0.0421877
0.0428396
0.0439259
0.0455293
0.0473158
0.0487473
0.0497175
0.0503065
0.0506155
0.0507348
0.0507356
0.0506825
0.0506446
0.0506248
0.0380776
0.038056
0.038
0.0379404
0.037931
0.0380183
0.0382624
0.0387415
0.0395409
0.0407193
0.0420286
0.0430743
0.0437782
0.0442009
0.0444173
0.0444951
0.0444866
0.0444403
0.0444085
0.0443926
0.0339434
0.0339262
0.0338823
0.0338354
0.0338255
0.0338867
0.0340631
0.0344116
0.0349952
0.0358565
0.0368126
0.0375737
0.0380821
0.0383823
0.0385311
0.038579
0.0385652
0.0385257
0.0384994
0.0384867
0.0295924
0.0295786
0.0295436
0.0295056
0.0294944
0.029535
0.0296598
0.0299106
0.0303339
0.0309598
0.0316531
0.0322016
0.0325641
0.0327747
0.0328751
0.0329025
0.0328858
0.0328518
0.0328301
0.0328202
0.0250799
0.025069
0.0250409
0.0250093
0.0249964
0.025021
0.0251072
0.0252851
0.0255874
0.0260357
0.0265313
0.0269213
0.0271768
0.0273221
0.0273888
0.0274029
0.027385
0.0273557
0.0273378
0.0273302
0.0204477
0.020439
0.0204161
0.0203895
0.0203761
0.0203897
0.0204468
0.0205695
0.0207806
0.0210956
0.0214439
0.0217172
0.0218935
0.0219915
0.0220323
0.0220358
0.0220175
0.0219925
0.0219777
0.0219717
0.0157259
0.0157191
0.0157008
0.0156788
0.0156657
0.0156711
0.0157064
0.0157869
0.0159284
0.0161421
0.0163783
0.0165625
0.0166802
0.0167426
0.0167655
0.0167629
0.0167457
0.0167247
0.0167125
0.0167079
0.0109395
0.0109344
0.0109198
0.0109017
0.0108892
0.0108891
0.0109091
0.0109583
0.0110474
0.0111814
0.0113304
0.0114448
0.011516
0.011552
0.011563
0.0115573
0.011542
0.0115252
0.0115161
0.0115128
0.00610425
0.00610065
0.00609012
0.00607736
0.00606839
0.00606622
0.00607493
0.00609974
0.00614577
0.00621538
0.00629201
0.00635051
0.00638616
0.00640424
0.0064083
0.00640249
0.00639035
0.00637684
0.00636984
0.00636803
0.00123253
0.00123227
0.00123057
0.00122473
0.00121928
0.00121669
0.00121705
0.00121991
0.00122582
0.00123558
0.00124912
0.00126201
0.00127098
0.00127612
0.00127797
0.00127736
0.00127426
0.00126921
0.00126507
0.001264
-0.838659
-0.564086
-0.276584
-0.0520981
0.130347
0.278301
0.404858
0.511512
0.558716
0.54276
-0.367212
-0.193526
-0.0182736
0.131263
0.258065
0.364979
0.452252
0.514721
0.548273
0.5598
-0.0621657
0.0506318
0.16599
0.268935
0.357813
0.432522
0.491915
0.535632
0.566157
0.582844
0.146055
0.222584
0.303228
0.376296
0.439804
0.493535
0.537344
0.571943
0.598493
0.615992
0.301186
0.355648
0.413339
0.467215
0.514866
0.556037
0.590818
0.619421
0.641775
0.659211
0.423949
0.463634
0.509404
0.551434
0.589722
0.623685
0.653016
0.677423
0.696138
0.71347
0.527694
0.560559
0.599545
0.635861
0.669359
0.699548
0.725764
0.74733
0.763076
0.780435
0.623365
0.655268
0.692237
0.726988
0.758826
0.787321
0.811757
0.83131
0.844737
0.86221
0.723067
0.758167
0.79638
0.83172
0.863144
0.890466
0.913328
0.93113
0.943108
0.960963
0.840646
0.88018
0.919435
0.954594
0.98472
1.01011
1.031
1.04717
1.05885
1.07726
0.986963
1.02701
1.0632
1.09415
1.12023
1.14276
1.16215
1.17798
1.19086
1.20906
1.16273
1.19508
1.22123
1.24392
1.26429
1.28329
1.30115
1.31788
1.33377
1.35202
1.35093
1.36867
1.38441
1.40121
1.41754
1.43222
1.44537
1.45945
1.47664
1.49637
1.5328
1.54387
1.55614
1.56701
1.57634
1.58604
1.59708
1.60875
1.61874
1.63393
1.7441
1.74614
1.73101
1.71586
1.70962
1.71534
1.73397
1.76443
1.7966
1.82736
2.05002
1.913
1.83681
1.79483
1.77736
1.78145
1.80886
1.865
1.96848
2.18378
0.330621
0.327277
0.321434
0.31176
0.298986
0.286755
0.276643
0.268887
0.26338
0.260141
0.25963
0.262017
0.266739
0.273597
0.282681
0.294063
0.306933
0.318722
0.326038
0.330687
0.248423
0.254344
0.261387
0.2668
0.269847
0.269757
0.267135
0.263499
0.260121
0.257841
0.257497
0.259383
0.262637
0.266511
0.269998
0.271615
0.270198
0.265847
0.259751
0.252587
0.240309
0.242659
0.246293
0.249578
0.252165
0.254321
0.255605
0.25559
0.254692
0.253781
0.253743
0.25483
0.256222
0.257043
0.256595
0.254927
0.252644
0.24984
0.24627
0.243134
0.235027
0.236084
0.238261
0.24115
0.243567
0.245259
0.246522
0.247549
0.248229
0.248625
0.248943
0.249165
0.249103
0.248562
0.247656
0.246379
0.244452
0.241783
0.239153
0.237578
0.230054
0.23055
0.232178
0.234856
0.237539
0.239933
0.241786
0.24304
0.243892
0.244482
0.244901
0.245112
0.244928
0.244283
0.242998
0.241031
0.238598
0.235951
0.233706
0.232778
0.227518
0.227711
0.228711
0.230522
0.232423
0.234234
0.235991
0.237609
0.238915
0.239859
0.240433
0.240499
0.24003
0.239035
0.237683
0.236145
0.234425
0.23263
0.231168
0.230697
0.226246
0.226345
0.226887
0.227925
0.229108
0.230442
0.231742
0.233019
0.234222
0.235268
0.23596
0.236116
0.235786
0.235117
0.234252
0.23316
0.232139
0.231134
0.230361
0.230118
0.224446
0.224498
0.224796
0.225414
0.226207
0.227132
0.228282
0.22953
0.230762
0.231883
0.232711
0.233014
0.23283
0.23232
0.231622
0.230949
0.230338
0.229769
0.22938
0.229255
0.221826
0.221849
0.222029
0.222456
0.22304
0.223685
0.224491
0.225485
0.226591
0.227727
0.228703
0.229252
0.22938
0.229241
0.228999
0.22879
0.228437
0.228094
0.227876
0.227817
0.218757
0.218764
0.218889
0.21923
0.219737
0.220369
0.221144
0.222079
0.223186
0.224424
0.225609
0.22644
0.226853
0.227
0.226953
0.226724
0.226585
0.226377
0.226257
0.226233
0.21538
0.215382
0.215473
0.215736
0.216152
0.216701
0.217421
0.218354
0.219523
0.220916
0.222373
0.223525
0.224247
0.224659
0.224865
0.224921
0.224891
0.224818
0.224782
0.224777
0.211642
0.211643
0.211719
0.211944
0.212318
0.212854
0.213596
0.214599
0.215908
0.21754
0.219356
0.220896
0.221959
0.222639
0.223055
0.223287
0.223398
0.223442
0.223467
0.223473
0.207472
0.207468
0.207554
0.20777
0.208142
0.208704
0.209517
0.210655
0.212191
0.21417
0.21644
0.218447
0.219872
0.220861
0.221503
0.221908
0.22215
0.222289
0.222361
0.222376
0.2028
0.202794
0.202887
0.203129
0.203543
0.204181
0.205125
0.206476
0.208335
0.210773
0.213624
0.216193
0.218074
0.219393
0.220281
0.22086
0.221225
0.221444
0.221556
0.22158
0.197542
0.197533
0.197645
0.19793
0.19842
0.199185
0.200329
0.201983
0.204279
0.20732
0.21091
0.214178
0.216601
0.218301
0.219462
0.22023
0.220723
0.221022
0.221173
0.221205
0.191553
0.191542
0.191682
0.192035
0.192641
0.19359
0.195013
0.197076
0.199952
0.203772
0.208295
0.212426
0.215491
0.217661
0.219146
0.220132
0.220768
0.221155
0.221349
0.221391
0.184651
0.184636
0.184816
0.185265
0.186034
0.187232
0.189031
0.19164
0.195275
0.200096
0.205795
0.210995
0.21485
0.217583
0.219455
0.220702
0.221507
0.221999
0.222245
0.222297
0.176586
0.176567
0.176802
0.177383
0.17837
0.179902
0.182198
0.18553
0.190154
0.196255
0.203433
0.209957
0.214783
0.218201
0.220543
0.222105
0.223117
0.223737
0.224045
0.224109
0.167015
0.166993
0.167305
0.168065
0.169347
0.171325
0.174311
0.1786
0.184491
0.192223
0.201253
0.20941
0.215424
0.219677
0.222592
0.224538
0.225803
0.226583
0.226971
0.227048
0.155468
0.155442
0.155866
0.156877
0.158564
0.161171
0.16506
0.170597
0.17817
0.187985
0.199319
0.209476
0.216935
0.222206
0.225819
0.228233
0.229809
0.230788
0.231276
0.231372
0.141263
0.141234
0.141827
0.143204
0.145466
0.148941
0.154081
0.161339
0.171099
0.183553
0.197726
0.210304
0.219504
0.226006
0.230471
0.233459
0.235414
0.236635
0.237245
0.237367
0.123407
0.123381
0.124248
0.126177
0.129297
0.134052
0.140982
0.150561
0.163187
0.178969
0.196595
0.212058
0.223332
0.231317
0.236824
0.240526
0.242955
0.244479
0.245249
0.245402
0.100402
0.100405
0.101732
0.104532
0.10899
0.115687
0.125196
0.137998
0.154397
0.174323
0.196072
0.214906
0.228606
0.238359
0.245151
0.249766
0.252821
0.254751
0.255739
0.255938
0.0698169
0.0699236
0.0720841
0.076411
0.0831485
0.0929456
0.106314
0.12359
0.144855
0.169812
0.196346
0.219005
0.235472
0.247299
0.255668
0.261472
0.265393
0.267911
0.269197
0.269451
0.0271446
0.0275572
0.0316374
0.0391911
0.0501963
0.0651719
0.0842966
0.107608
0.134931
0.165772
0.197649
0.224488
0.243997
0.258183
0.268451
0.275799
0.280947
0.284401
0.286191
0.286517
-0.0358515
-0.0337815
-0.0241895
-0.00965586
0.00933674
0.0325584
0.0597279
0.0907023
0.125177
0.162576
0.200156
0.23136
0.254066
0.270806
0.283246
0.292516
0.299363
0.304197
0.306915
0.307283
-0.111477
-0.107685
-0.0897571
-0.0639474
-0.0344205
-0.00173162
0.034191
0.0733441
0.11549
0.160156
0.204422
0.241158
0.268251
0.288733
0.304525
0.316873
0.326681
0.334025
0.337232
0.338677
-0.188594
-0.178384
-0.151764
-0.115811
-0.0767563
-0.0349297
0.00958381
0.0567771
0.106519
0.15843
0.209402
0.251643
0.282982
0.306985
0.325859
0.340998
0.353264
0.36285
0.368495
0.37081
-0.246498
-0.235222
-0.203638
-0.161227
-0.114834
-0.065471
-0.0134402
0.041114
0.097924
0.156566
0.213653
0.260656
0.295338
0.32175
0.342348
0.358664
0.371687
0.381799
0.388022
0.390491
-0.292981
-0.281304
-0.246351
-0.199356
-0.147641
-0.0925019
-0.0343564
0.0264553
0.089511
0.154223
0.216713
0.267662
0.304846
0.332793
0.354285
0.371098
0.384365
0.394597
0.400895
0.403323
-0.331055
-0.319476
-0.28256
-0.232054
-0.176188
-0.116454
-0.0532808
0.01286
0.0813766
0.151501
0.218898
0.273406
0.312723
0.341887
0.364008
0.381066
0.394333
0.404487
0.410747
0.413087
-0.363887
-0.35245
-0.314113
-0.260903
-0.201663
-0.138067
-0.0706203
0.000149211
0.0735654
0.148691
0.220652
0.278403
0.319624
0.349824
0.372433
0.389656
0.402918
0.412996
0.419254
0.4215
-0.393069
-0.381774
-0.342458
-0.287065
-0.225043
-0.158186
-0.0870039
-0.0120928
0.0657657
0.145477
0.221746
0.282686
0.325822
0.357094
0.380239
0.397682
0.410989
0.42101
0.427284
0.429445
-0.419771
-0.408554
-0.368421
-0.311223
-0.246892
-0.177254
-0.102845
-0.0242925
0.0576115
0.141712
0.222278
0.286502
0.331676
0.364129
0.387904
0.405632
0.419038
0.429047
0.435323
0.437393
-0.444763
-0.433589
-0.392732
-0.333984
-0.267689
-0.19567
-0.118437
-0.0365806
0.0490898
0.137394
0.22224
0.289898
0.337319
0.371144
0.395688
0.413804
0.427365
0.437389
0.443674
0.445628
-0.468477
-0.457298
-0.415825
-0.35577
-0.287769
-0.213645
-0.133902
-0.049085
0.0400458
0.132355
0.221524
0.29285
0.342802
0.378257
0.403766
0.422398
0.436194
0.446287
0.45254
0.454434
-0.491269
-0.480028
-0.437966
-0.376811
-0.307342
-0.231384
-0.149433
-0.0619684
0.0303614
0.12651
0.220019
0.295276
0.348099
0.385501
0.412224
0.431545
0.445684
0.455893
0.462125
0.463974
-0.513342
-0.501955
-0.459302
-0.397306
-0.32651
-0.248981
-0.165098
-0.0752575
0.019992
0.119785
0.217613
0.297036
0.353106
0.392826
0.421073
0.441306
0.455933
0.466347
0.472554
0.474376
-0.534715
-0.523172
-0.480046
-0.417265
-0.345317
-0.26643
-0.180879
-0.0889582
0.00892231
0.112114
0.214195
0.29797
0.357649
0.4001
0.430242
0.451672
0.466983
0.477706
0.483922
0.4857
-0.555516
-0.543768
-0.500265
-0.436678
-0.363778
-0.283743
-0.196765
-0.103046
-0.0028317
0.103484
0.209657
0.297881
0.361499
0.407141
0.439622
0.46259
0.478813
0.489986
0.49626
0.497912
-0.575677
-0.563732
-0.519903
-0.455571
-0.381872
-0.30087
-0.212693
-0.117455
-0.0152221
0.0938941
0.203915
0.296564
0.364383
0.413711
0.449057
0.473977
0.49135
0.503078
0.509434
0.510927
-0.595237
-0.583076
-0.538838
-0.473911
-0.399547
-0.317753
-0.22859
-0.132098
-0.0281662
0.0833893
0.196933
0.293859
0.366002
0.419434
0.458226
0.485659
0.504546
0.516933
0.523307
0.524572
-0.61402
-0.601743
-0.55707
-0.491652
-0.416738
-0.334303
-0.24438
-0.146885
-0.041564
0.072058
0.188709
0.289649
0.366051
0.423784
0.466651
0.497405
0.518366
0.531443
0.537577
0.538492
-0.632133
-0.619673
-0.574607
-0.508771
-0.433407
-0.350471
-0.259964
-0.161719
-0.0553062
0.0600108
0.179286
0.283825
0.364254
0.426264
0.473717
0.508858
0.532975
0.546931
0.552107
0.552224
-0.649448
-0.636796
-0.591428
-0.525207
-0.449472
-0.366173
-0.275255
-0.176474
-0.0692697
0.0473446
0.168769
0.276345
0.360434
0.426438
0.478598
0.519217
0.54841
0.564598
0.567564
0.565054
-0.666006
-0.653197
-0.607468
-0.540914
-0.464896
-0.381349
-0.290172
-0.191067
-0.0833286
0.0342259
0.157291
0.267264
0.354492
0.423906
0.480214
0.526778
0.563489
0.586068
0.588983
0.577038
-0.68175
-0.668828
-0.62281
-0.556022
-0.479867
-0.396267
-0.305037
-0.2059
-0.0979538
0.0201143
0.14425
0.255929
0.345748
0.417936
0.476928
0.528675
0.574173
0.607287
0.614489
0.60923
-0.696662
-0.683601
-0.637501
-0.570476
-0.494368
-0.410919
-0.319819
-0.220968
-0.113154
0.00494361
0.129525
0.242137
0.333648
0.408098