/*--------------------------------*- C++ -*----------------------------------*\
  =========                 |
  \\      /  F ield         | OpenFOAM: The Open Source CFD Toolbox
   \\    /   O peration     | Website:  https://openfoam.org
    \\  /    A nd           | Version:  9
     \\/     M anipulation  |
\*---------------------------------------------------------------------------*/
FoamFile
{
    format      ascii;
    class       volVectorField;
    location    "11";
    object      U;
}
// * * * * * * * * * * * * * * * * * * * * * * * * * * * * * * * * * * * * * //

dimensions      [0 1 -1 0 0 0 0];

internalField   nonuniform List<vector> 
8800
(
(0.984918 -0.0884251 0)
(1.00209 -0.0567878 0)
(0.999735 -0.0304972 0)
(1.00009 -0.0157182 0)
(1.00001 -0.00852464 0)
(0.999921 -0.00492635 0)
(0.999922 -0.00294686 0)
(0.999933 -0.00171335 0)
(0.999934 -0.000844913 0)
(1.00005 -0.000150491 0)
(0.999939 0.00056627 0)
(0.999935 0.00132761 0)
(0.999931 0.00233245 0)
(0.999922 0.00386891 0)
(0.999944 0.00649287 0)
(1.00008 0.01153 0)
(1.00001 0.0219305 0)
(0.999196 0.0411272 0)
(1.00737 0.0768906 0)
(0.77365 0.0450645 0)
(0.361462 -0.0151181 0)
(1.04588 -0.0738953 0)
(1.08698 -0.0674128 0)
(1.04753 -0.0518389 0)
(1.02453 -0.0380576 0)
(1.01235 -0.025835 0)
(1.0063 -0.0164473 0)
(1.00339 -0.00988938 0)
(1.00201 -0.00532682 0)
(1.00143 -0.00196752 0)
(1.00133 0.000892116 0)
(1.00161 0.0039438 0)
(1.00252 0.00775463 0)
(1.00455 0.0131559 0)
(1.00876 0.0209757 0)
(1.01744 0.0318564 0)
(1.03441 0.0451172 0)
(1.06532 0.0591479 0)
(1.09413 0.0724827 0)
(0.842826 0.0555048 0)
(0.218371 -0.00160013 0)
(1.07698 -0.0495846 0)
(1.10045 -0.0475467 0)
(1.06481 -0.0385817 0)
(1.03979 -0.0312279 0)
(1.02368 -0.0241396 0)
(1.01387 -0.0171645 0)
(1.00832 -0.0110099 0)
(1.00548 -0.00573195 0)
(1.00446 -0.000776842 0)
(1.0047 0.00404641 0)
(1.00652 0.00898975 0)
(1.01052 0.0145882 0)
(1.01792 0.0210993 0)
(1.03053 0.0280837 0)
(1.05082 0.0351439 0)
(1.08102 0.0428621 0)
(1.10732 0.0505905 0)
(0.944989 0.0406935 0)
(0.218088 0.00160883 0)
(0.17868 -0.00055548 0)
(1.02191 -0.033309 0)
(1.10633 -0.0388694 0)
(1.07841 -0.0340273 0)
(1.05253 -0.0282916 0)
(1.03509 -0.0228811 0)
(1.02303 -0.0175512 0)
(1.01513 -0.011978 0)
(1.01053 -0.00638563 0)
(1.0085 -0.000781214 0)
(1.00909 0.00473007 0)
(1.01226 0.0101701 0)
(1.01832 0.015646 0)
(1.02813 0.0209209 0)
(1.04259 0.0260979 0)
(1.06371 0.0316007 0)
(1.09468 0.0372833 0)
(1.09621 0.038957 0)
(0.835327 0.021272 0)
(0.178215 0.000565089 0)
(0.159421 -0.000406917 0)
(0.966071 -0.0221894 0)
(1.10495 -0.0302621 0)
(1.08658 -0.0280421 0)
(1.06017 -0.0244046 0)
(1.04215 -0.0200138 0)
(1.02993 -0.0154334 0)
(1.02149 -0.0108092 0)
(1.016 -0.00592671 0)
(1.01339 -0.000558034 0)
(1.01414 0.0048952 0)
(1.01801 0.00984658 0)
(1.02477 0.0143398 0)
(1.03487 0.0187185 0)
(1.04966 0.0230456 0)
(1.07134 0.0268972 0)
(1.10095 0.0301709 0)
(1.07438 0.0290644 0)
(0.756046 0.0120115 0)
(0.158731 0.000420441 0)
(0.149033 -0.000176621 0)
(0.920631 -0.0120643 0)
(1.09878 -0.0202721 0)
(1.09293 -0.0200312 0)
(1.06555 -0.0177616 0)
(1.0463 -0.0154897 0)
(1.03309 -0.012762 0)
(1.0243 -0.0093335 0)
(1.01885 -0.00519722 0)
(1.01639 -0.000246908 0)
(1.01693 0.00485756 0)
(1.0206 0.00916354 0)
(1.02744 0.0127227 0)
(1.0381 0.015508 0)
(1.05398 0.0176252 0)
(1.07711 0.0198157 0)
(1.10288 0.0213349 0)
(1.04924 0.0182447 0)
(0.705804 0.0056476 0)
(0.148072 0.000192186 0)
(0.145264 -1.79634e-05 0)
(0.890755 -0.00559304 0)
(1.08815 -0.0126704 0)
(1.09435 -0.014392 0)
(1.06841 -0.0143193 0)
(1.05042 -0.0133379 0)
(1.03815 -0.0113435 0)
(1.02973 -0.00846972 0)
(1.02434 -0.00464624 0)
(1.02177 0.000102797 0)
(1.02227 0.00492099 0)
(1.02587 0.009009 0)
(1.03239 0.0120315 0)
(1.04232 0.0141971 0)
(1.05698 0.0154539 0)
(1.07899 0.0154348 0)
(1.10003 0.0149092 0)
(1.02596 0.0103269 0)
(0.679923 0.00229404 0)
(0.14397 3.82906e-05 0)
(0.144284 2.04386e-05 0)
(0.871684 -0.00283265 0)
(1.07446 -0.00911694 0)
(1.09091 -0.0130613 0)
(1.06809 -0.0141618 0)
(1.05136 -0.0138485 0)
(1.03985 -0.0121013 0)
(1.03213 -0.00898815 0)
(1.02705 -0.00467016 0)
(1.02446 0.000448585 0)
(1.02485 0.00565866 0)
(1.02809 0.0100485 0)
(1.03401 0.0133225 0)
(1.04326 0.0152955 0)
(1.05677 0.0157985 0)
(1.07726 0.0152791 0)
(1.0919 0.0126032 0)
(1.00563 0.00660724 0)
(0.666349 0.00108417 0)
(0.142586 1.01566e-06 0)
(0.144142 1.72671e-05 0)
(0.858557 -0.00159232 0)
(1.05855 -0.00698865 0)
(1.08329 -0.0123832 0)
(1.0671 -0.0148571 0)
(1.05325 -0.0147938 0)
(1.04375 -0.0128832 0)
(1.03693 -0.00951671 0)
(1.03208 -0.00493743 0)
(1.02941 0.000834405 0)
(1.02964 0.00666466 0)
(1.03264 0.0114308 0)
(1.03782 0.0148644 0)
(1.04546 0.0168997 0)
(1.05644 0.0171875 0)
(1.07305 0.0158669 0)
(1.07922 0.01136 0)
(0.987298 0.00475494 0)
(0.658086 0.000709033 0)
(0.141941 9.40107e-06 0)
(0.144172 1.65314e-05 0)
(0.849914 -0.000733116 0)
(1.04342 -0.00456096 0)
(1.07318 -0.00971607 0)
(1.06453 -0.0128369 0)
(1.05441 -0.0132272 0)
(1.04679 -0.011772 0)
(1.04088 -0.00874175 0)
(1.03661 -0.00440246 0)
(1.03404 0.00144255 0)
(1.03401 0.00729351 0)
(1.03629 0.011979 0)
(1.04067 0.0150707 0)
(1.04672 0.0166502 0)
(1.0555 0.0167399 0)
(1.06562 0.0139727 0)
(1.06437 0.00889401 0)
(0.972242 0.00323709 0)
(0.652571 0.000505756 0)
(0.14133 1.69329e-05 0)
(0.144446 2.4345e-05 0)
(0.845432 -9.2536e-05 0)
(1.03277 -0.00216028 0)
(1.06448 -0.0056751 0)
(1.06104 -0.00826548 0)
(1.05488 -0.00910299 0)
(1.04925 -0.00831933 0)
(1.04441 -0.00605568 0)
(1.04083 -0.00243585 0)
(1.03837 0.00245614 0)
(1.038 0.00732438 0)
(1.03969 0.0109852 0)
(1.04282 0.0132366 0)
(1.04721 0.0137493 0)
(1.05249 0.0127473 0)
(1.05782 0.0100011 0)
(1.05189 0.00587828 0)
(0.961977 0.0020219 0)
(0.649086 0.000362286 0)
(0.140828 1.63422e-05 0)
(0.144933 3.04949e-05 0)
(0.843871 0.000310369 0)
(1.02703 -0.000519868 0)
(1.05881 -0.00237326 0)
(1.05824 -0.00399047 0)
(1.05467 -0.00467904 0)
(1.05085 -0.00421042 0)
(1.04716 -0.00256653 0)
(1.04418 0.000209565 0)
(1.04182 0.00378196 0)
(1.04099 0.00726551 0)
(1.04211 0.00961219 0)
(1.04373 0.01073 0)
(1.04633 0.0104328 0)
(1.04922 0.00902014 0)
(1.05151 0.00668469 0)
(1.0434 0.00380181 0)
(0.955717 0.00141126 0)
(0.646715 0.000339494 0)
(0.140354 2.01939e-05 0)
(0.1456 3.55637e-05 0)
(0.844077 0.000571068 0)
(1.02473 0.000511979 0)
(1.056 -0.000163378 0)
(1.05667 -0.000833054 0)
(1.0546 -0.00105248 0)
(1.05203 -0.000555347 0)
(1.04921 0.000737704 0)
(1.04657 0.0028139 0)
(1.04416 0.00530528 0)
(1.0428 0.00754503 0)
(1.04325 0.00868755 0)
(1.04365 0.00879877 0)
(1.04485 0.0080617 0)
(1.04618 0.00662201 0)
(1.04688 0.00476197 0)
(1.03798 0.00279418 0)
(0.951711 0.00123504 0)
(0.644679 0.000387384 0)
(0.139797 2.67871e-05 0)
(0.146442 4.39226e-05 0)
(0.845454 0.000834107 0)
(1.02455 0.00123239 0)
(1.05527 0.00130009 0)
(1.05639 0.00136358 0)
(1.05506 0.00166696 0)
(1.05318 0.0023843 0)
(1.05086 0.00358936 0)
(1.04834 0.00524743 0)
(1.04573 0.00702668 0)
(1.04384 0.00835897 0)
(1.04333 0.00872289 0)
(1.04294 0.00808311 0)
(1.04315 0.00700633 0)
(1.04351 0.00558253 0)
(1.04342 0.00402534 0)
(1.03423 0.00253101 0)
(0.948625 0.00131694 0)
(0.642519 0.000480138 0)
(0.139085 3.57306e-05 0)
(0.147505 5.51187e-05 0)
(0.847734 0.00110093 0)
(1.0257 0.00186069 0)
(1.05594 0.00243979 0)
(1.05717 0.00305077 0)
(1.05612 0.00383378 0)
(1.05451 0.00487211 0)
(1.05236 0.00618648 0)
(1.04974 0.00769069 0)
(1.04676 0.00906052 0)
(1.0442 0.00973845 0)
(1.04281 0.00938963 0)
(1.04173 0.0083493 0)
(1.04124 0.00702025 0)
(1.041 0.00552887 0)
(1.04048 0.00405419 0)
(1.03113 0.00270606 0)
(0.94568 0.00154995 0)
(0.639968 0.000604571 0)
(0.138167 4.64057e-05 0)
(0.148851 6.92527e-05 0)
(0.850889 0.00141887 0)
(1.02787 0.00251645 0)
(1.05764 0.00351766 0)
(1.05884 0.00459154 0)
(1.0578 0.0058294 0)
(1.05619 0.007257 0)
(1.05393 0.0088296 0)
(1.05099 0.0103862 0)
(1.04744 0.011555 0)
(1.04408 0.011767 0)
(1.04176 0.0109405 0)
(1.04008 0.00948378 0)
(1.03904 0.00783735 0)
(1.03838 0.0061588 0)
(1.03759 0.00458258 0)
(1.02807 0.00316729 0)
(0.942435 0.00189951 0)
(0.636829 0.000762471 0)
(0.136996 5.92613e-05 0)
(0.150564 8.84914e-05 0)
(0.855035 0.00182428 0)
(1.03098 0.00329871 0)
(1.06026 0.00471298 0)
(1.06132 0.0062343 0)
(1.06015 0.00794436 0)
(1.05832 0.00983635 0)
(1.05571 0.0117941 0)
(1.05222 0.0135618 0)
(1.04786 0.0146735 0)
(1.04354 0.014523 0)
(1.04029 0.0132291 0)
(1.03796 0.0113459 0)
(1.03642 0.00930877 0)
(1.0354 0.00732029 0)
(1.03438 0.00549522 0)
(1.02464 0.00386288 0)
(0.93858 0.0023636 0)
(0.63291 0.000960203 0)
(0.135516 7.50257e-05 0)
(0.152764 0.000115138 0)
(0.860409 0.00235661 0)
(1.03516 0.00428541 0)
(1.06386 0.00614301 0)
(1.06472 0.00813983 0)
(1.06326 0.0103877 0)
(1.06102 0.0128524 0)
(1.05783 0.0153304 0)
(1.05354 0.0174453 0)
(1.04811 0.0186034 0)
(1.0426 0.0181333 0)
(1.03832 0.0163378 0)
(1.03527 0.0139346 0)
(1.0332 0.0114035 0)
(1.03183 0.00898501 0)
(1.03059 0.00678272 0)
(1.02057 0.00480493 0)
(0.933837 0.00296207 0)
(0.627986 0.00120928 0)
(0.133654 9.5053e-05 0)
(0.15562 0.000151899 0)
(0.867382 0.00306037 0)
(1.04067 0.00554738 0)
(1.06871 0.00789714 0)
(1.06926 0.0104425 0)
(1.06738 0.0133724 0)
(1.06449 0.0165734 0)
(1.06045 0.0197099 0)
(1.05505 0.0222969 0)
(1.0482 0.0235712 0)
(1.04124 0.0227691 0)
(1.03577 0.0203846 0)
(1.03187 0.017332 0)
(1.02921 0.0141763 0)
(1.02746 0.0112002 0)
(1.02596 0.00849855 0)
(1.01558 0.00604845 0)
(0.9279 0.00373471 0)
(0.621769 0.00152731 0)
(0.131317 0.000121367 0)
(0.159364 0.000201545 0)
(0.876479 0.00398824 0)
(1.04796 0.00717283 0)
(1.0752 0.0101052 0)
(1.07527 0.0133362 0)
(1.07279 0.0171967 0)
(1.06902 0.0213548 0)
(1.06378 0.0252883 0)
(1.05688 0.0284486 0)
(1.04821 0.0298626 0)
(1.03942 0.0286557 0)
(1.03251 0.0255432 0)
(1.0276 0.0216763 0)
(1.02424 0.0177365 0)
(1.02202 0.0140628 0)
(1.02022 0.0107392 0)
(1.00937 0.00768643 0)
(0.920414 0.00474402 0)
(0.613893 0.00193669 0)
(0.128387 0.000156151 0)
(0.164341 0.000270128 0)
(0.888391 0.00523681 0)
(1.0575 0.00934322 0)
(1.08374 0.0130247 0)
(1.08316 0.0171781 0)
(1.07975 0.0221854 0)
(1.07482 0.0275083 0)
(1.06807 0.0324899 0)
(1.05918 0.0363063 0)
(1.04815 0.0378226 0)
(1.03709 0.0360684 0)
(1.02844 0.0320342 0)
(1.02228 0.0271435 0)
(1.01805 0.0222177 0)
(1.01525 0.017676 0)
(1.01304 0.0136008 0)
(1.00161 0.00982088 0)
(0.911014 0.00606918 0)
(0.603953 0.00245974 0)
(0.124731 0.000199758 0)
(0.171079 0.000375033 0)
(0.904007 0.00704561 0)
(1.06977 0.0124063 0)
(1.09475 0.0170732 0)
(1.0933 0.022521 0)
(1.08873 0.0289926 0)
(1.08224 0.035723 0)
(1.07341 0.0418318 0)
(1.06195 0.046319 0)
(1.04795 0.0478275 0)
(1.03411 0.0453086 0)
(1.02334 0.0401014 0)
(1.01567 0.0339345 0)
(1.01038 0.0277744 0)
(1.00683 0.0221391 0)
(1.00408 0.0171396 0)
(0.991937 0.0124993 0)
(0.899354 0.00776561 0)
(0.591592 0.00311655 0)
(0.1202 0.00024823 0)
(0.180399 0.000548545 0)
(0.924613 0.00985358 0)
(1.08569 0.0168594 0)
(1.10897 0.0228328 0)
(1.1062 0.0299597 0)
(1.09997 0.0382571 0)
(1.09125 0.0465725 0)
(1.07962 0.0538861 0)
(1.0649 0.0589897 0)
(1.04731 0.0602771 0)
(1.03017 0.0566992 0)
(1.01691 0.0500276 0)
(1.00745 0.0423089 0)
(1.00087 0.0346381 0)
(0.996391 0.0276271 0)
(0.992972 0.0214531 0)
(0.979955 0.0157521 0)
(0.885021 0.00983713 0)
(0.576407 0.00393504 0)
(0.1146 0.000308759 0)
(0.193583 0.000841549 0)
(0.95216 0.0143329 0)
(1.10668 0.023532 0)
(1.1275 0.0313897 0)
(1.1226 0.0407319 0)
(1.11377 0.0511656 0)
(1.10182 0.0611882 0)
(1.08646 0.0696147 0)
(1.06767 0.0750191 0)
(1.04582 0.0756515 0)
(1.02491 0.0706025 0)
(1.00881 0.0621485 0)
(0.997266 0.0526159 0)
(0.989142 0.0431836 0)
(0.983527 0.0345259 0)
(0.979258 0.0269007 0)
(0.965144 0.019889 0)
(0.867278 0.0125478 0)
(0.557638 0.00501323 0)
(0.107749 0.000378634 0)
(0.212905 0.00136747 0)
(0.989783 0.0216542 0)
(1.13466 0.0338628 0)
(1.15172 0.044383 0)
(1.14336 0.0565602 0)
(1.13055 0.0693853 0)
(1.11405 0.0810048 0)
(1.09379 0.0900926 0)
(1.06997 0.0951558 0)
(1.04318 0.0944561 0)
(1.01805 0.0873849 0)
(0.998795 0.0767974 0)
(0.984865 0.0652239 0)
(0.974878 0.0538505 0)
(0.967797 0.0433606 0)
(0.96234 0.034054 0)
(0.946705 0.0254744 0)
(0.845045 0.0162742 0)
(0.534488 0.00650943 0)
(0.0993292 0.000474206 0)
(0.241951 0.00259542 0)
(1.04322 0.0353473 0)
(1.17177 0.051716 0)
(1.18261 0.0656463 0)
(1.16853 0.0807931 0)
(1.14983 0.0954074 0)
(1.12724 0.107646 0)
(1.10093 0.116294 0)
(1.0713 0.119975 0)
(1.03905 0.117034 0)
(1.00939 0.107304 0)
(0.98674 0.0942379 0)
(0.970165 0.080471 0)
(0.957976 0.0670962 0)
(0.948995 0.0547406 0)
(0.941775 0.0436636 0)
(0.923832 0.0334504 0)
(0.816913 0.0218207 0)
(0.505835 0.00862624 0)
(0.0895449 0.000539934 0)
(0.282759 0.00981476 -2.18332e-20)
(1.11381 0.0636678 -1.65628e-20)
(1.21761 0.0835196 4.35516e-21)
(1.21764 0.101091 0)
(1.19544 0.117358 -1.85226e-35)
(1.16923 0.131683 5.82231e-22)
(1.13956 0.142761 -2.92788e-21)
(1.10657 0.149544 0)
(1.07065 0.150779 1.02143e-34)
(1.03246 0.144906 -7.592e-21)
(0.997794 0.132201 0)
(0.97124 0.116626 -1.07637e-20)
(0.951429 0.100797 -3.28628e-20)
(0.93635 0.0856814 -1.58814e-20)
(0.924622 0.0718908 -4.99101e-21)
(0.914541 0.0596515 -3.01907e-21)
(0.893231 0.04835 0)
(0.780279 0.0341518 2.16299e-21)
(0.469581 0.0168837 2.54925e-21)
(0.0799068 0.00251344 4.48194e-20)
(0.307121 0.0271606 -4.42014e-20)
(1.17034 0.110818 1.00188e-21)
(1.25939 0.133032 -2.3715e-21)
(1.24958 0.1501 0)
(1.21955 0.164623 2.94881e-21)
(1.18597 0.177114 9.40421e-22)
(1.14933 0.186283 -2.03589e-21)
(1.10967 0.190938 -1.35299e-20)
(1.06719 0.18977 0)
(1.02236 0.181263 3.21778e-20)
(0.981528 0.166114 3.53781e-20)
(0.949757 0.148716 1.13236e-20)
(0.925378 0.131619 4.46187e-20)
(0.906094 0.115613 6.57209e-20)
(0.890317 0.101191 0)
(0.876057 0.0887258 9.76835e-20)
(0.849725 0.0774838 1.43097e-19)
(0.739344 0.0607547 1.586e-19)
(0.445875 0.0366301 -1.84482e-19)
(0.0776409 0.00669907 -3.32562e-21)
(0.300036 0.044029 0)
(1.20268 0.17093 -1.36833e-20)
(1.29087 0.195498 0)
(1.27456 0.208968 2.10709e-20)
(1.2383 0.219865 0)
(1.19844 0.228786 8.99286e-21)
(1.15562 0.234631 2.57211e-21)
(1.10987 0.236173 -2.06512e-20)
(1.06139 0.231965 -3.06639e-21)
(1.01054 0.220473 1.55797e-20)
(0.964237 0.202904 8.20187e-20)
(0.927955 0.184058 -5.15764e-22)
(0.8998 0.166399 -3.34262e-20)
(0.877215 0.150571 -6.47326e-20)
(0.85853 0.136901 7.85848e-20)
(0.841845 0.125545 -1.41022e-19)
(0.815457 0.115389 -1.93264e-20)
(0.717526 0.0970523 0)
(0.449606 0.0622547 5.74261e-22)
(0.0854488 0.0123027 0)
(0.288263 0.0582897 -3.42744e-19)
(1.21662 0.234126 1.42259e-19)
(1.31067 0.262216 7.58258e-20)
(1.29072 0.272583 -1.41187e-20)
(1.25015 0.279352 2.15127e-20)
(1.20565 0.284125 -2.27635e-20)
(1.15791 0.286057 3.50797e-21)
(1.10715 0.283875 0)
(1.0536 0.276186 -6.17531e-20)
(0.997556 0.261436 0)
(0.94665 0.241357 -4.16844e-20)
(0.906943 0.22108 -5.84492e-20)
(0.876303 0.202943 -3.72807e-20)
(0.851949 0.187267 -4.80139e-20)
(0.832105 0.174104 0)
(0.814864 0.163469 0)
(0.790287 0.153943 -1.29057e-19)
(0.702401 0.134348 2.57057e-20)
(0.450277 0.0876924 -1.49202e-20)
(0.0888134 0.0176304 -1.72926e-20)
(0.277241 0.0708752 2.53361e-19)
(1.21883 0.296606 0)
(1.32088 0.329613 -2.12875e-19)
(1.29896 0.337225 -5.37585e-20)
(1.25557 0.340007 -3.99023e-20)
(1.20779 0.340714 0)
(1.15638 0.33867 -3.54375e-21)
(1.10161 0.332656 1.84756e-20)
(1.04387 0.321318 2.71327e-20)
(0.983634 0.303121 7.76127e-20)
(0.929118 0.280301 0)
(0.88684 0.258352 -1.26674e-19)
(0.854547 0.239346 -8.08536e-20)
(0.82919 0.223367 -4.86478e-20)
(0.808798 0.210259 3.18216e-19)
(0.791524 0.199854 3.89622e-20)
(0.768715 0.190322 1.86171e-19)
(0.687599 0.168387 -8.98603e-19)
(0.445417 0.110237 5.31548e-19)
(0.0890736 0.0222644 -6.34868e-19)
(0.268092 0.0822395 2.67292e-19)
(1.21372 0.356322 -5.00271e-20)
(1.324 0.395649 3.76071e-20)
(1.30106 0.400883 1.01546e-19)
(1.25565 0.399965 6.14995e-20)
(1.20542 0.39691 3.2143e-21)
(1.15126 0.391091 2.85734e-21)
(1.09339 0.381367 1.40652e-20)
(1.03223 0.366383 -5.90061e-20)
(0.968363 0.344681 0)
(0.910727 0.31891 -5.44213e-20)
(0.86643 0.294898 -2.9369e-21)
(0.833019 0.27456 -9.02641e-20)
(0.807168 0.257775 0)
(0.786752 0.244175 -6.92788e-20)
(0.769877 0.233395 -1.68118e-19)
(0.748436 0.223273 4.64469e-19)
(0.671509 0.198506 -4.6266e-19)
(0.43681 0.129811 6.54115e-19)
(0.087658 0.0262004 -6.72932e-19)
(0.260876 0.092747 -9.02305e-22)
(1.20422 0.412691 6.13167e-20)
(1.32187 0.459167 1.80601e-19)
(1.29845 0.462505 -6.25469e-20)
(1.25167 0.458286 3.53092e-20)
(1.19964 0.451788 0)
(1.14329 0.442486 1.48191e-20)
(1.08285 0.429269 -1.11475e-20)
(1.0188 0.410793 -2.70109e-20)
(0.951892 0.385564 0)
(0.891711 0.356653 -5.29772e-20)
(0.845817 0.330242 -7.4193e-20)
(0.811604 0.30816 9.85243e-20)
(0.785533 0.290113 -6.29661e-20)
(0.765267 0.275572 -3.04485e-19)
(0.748833 0.264005 1.86858e-19)
(0.728387 0.252929 5.91118e-20)
(0.654214 0.225169 0)
(0.425971 0.146793 -6.33828e-19)
(0.0853021 0.0295007 -2.29964e-20)
(0.255307 0.102759 4.37593e-20)
(1.19225 0.465631 -7.05412e-20)
(1.31584 0.51952 -9.85956e-20)
(1.2923 0.521433 -1.9211e-19)
(1.24457 0.514353 1.72514e-19)
(1.19122 0.504813 -9.02671e-20)
(1.13316 0.492372 -3.15299e-20)
(1.07067 0.475927 -1.58909e-20)
(1.00426 0.454169 2.60307e-20)
(0.93468 0.42549 -1.87759e-19)
(0.872106 0.393313 -6.49559e-20)
(0.824721 0.364219 0)
(0.789824 0.34003 1.07646e-19)
(0.763621 0.320338 1.32934e-19)
(0.743583 0.304512 1.63422e-19)
(0.727604 0.291852 -2.03809e-19)
(0.707952 0.27952 -6.12842e-20)
(0.635863 0.248855 7.26421e-20)
(0.413584 0.161473 0)
(0.0823571 0.0322026 -5.01422e-20)
(0.251044 0.112405 -5.07211e-19)
(1.17908 0.515312 3.23926e-19)
(1.30699 0.576586 1.08249e-19)
(1.28354 0.577376 -1.46943e-19)
(1.23515 0.567822 1.03654e-19)
(1.18087 0.555593 -7.56267e-21)
(1.12153 0.540349 3.08712e-20)
(1.05732 0.521021 -6.6533e-21)
(0.988783 0.496246 -4.77839e-20)
(0.916738 0.4643 2.63669e-22)
(0.851877 0.428796 -1.93444e-19)
(0.803031 0.396797 1.8849e-19)
(0.767464 0.370177 -1.20599e-19)
(0.741157 0.348509 1.4986e-19)
(0.721365 0.331094 0)
(0.705841 0.317115 -1.10768e-19)
(0.686867 0.303367 -2.65593e-21)
(0.616562 0.269542 -3.1782e-19)
(0.399838 0.173988 -4.66287e-20)
(0.0788371 0.0342703 0)
(0.247829 0.121748 0)
(1.16543 0.561973 3.49734e-19)
(1.29616 0.630336 2.52956e-19)
(1.27291 0.630209 1.66026e-19)
(1.22409 0.618503 9.95723e-20)
(1.16911 0.603913 0)
(1.10874 0.586202 3.14068e-20)
(1.04311 0.564326 -2.51456e-21)
(0.97267 0.536881 1.00555e-19)
(0.898314 0.501929 -2.2906e-20)
(0.83117 0.463142 -1.4171e-19)
(0.780747 0.428078 9.43788e-20)
(0.74441 0.398742 -3.92794e-21)
(0.717934 0.374765 1.5807e-19)
(0.698372 0.355468 1.03073e-19)
(0.683306 0.339929 -2.41367e-19)
(0.664924 0.324544 2.9192e-19)
(0.596044 0.287345 8.73061e-20)
(0.384699 0.184162 3.5797e-19)
(0.0747012 0.0355985 -9.44952e-19)
(0.245466 0.130928 -1.29766e-19)
(1.15184 0.605774 2.02013e-19)
(1.28396 0.680751 -1.58054e-19)
(1.26099 0.67993 -1.92955e-19)
(1.21188 0.666334 0)
(1.1564 0.649668 8.05099e-20)
(1.09526 0.629817 -9.05839e-20)
(1.02847 0.605748 4.02146e-21)
(0.956315 0.575995 0)
(0.879609 0.538358 -3.53583e-19)
(0.810098 0.496459 3.8603e-19)
(0.757916 0.458225 0)
(0.7206 0.425931 1.43089e-19)
(0.693831 0.399323 -4.01462e-21)
(0.674449 0.377809 -3.27177e-19)
(0.659833 0.360432 1.28371e-19)
(0.641994 0.343196 0)
(0.574322 0.302349 4.73311e-19)
(0.368056 0.192011 0)
(0.0700272 0.0362315 -4.51244e-19)
(0.243732 0.139924 1.44338e-19)
(1.13856 0.646916 2.31033e-19)
(1.27093 0.727911 -1.65269e-19)
(1.24822 0.726558 0)
(1.19897 0.711325 1.37934e-19)
(1.14319 0.692856 0)
(1.08147 0.671162 1.20833e-19)
(1.01369 0.645238 1.22831e-20)
(0.939969 0.613536 1.04815e-20)
(0.860901 0.573602 -1.74314e-19)
(0.788833 0.528843 3.74314e-20)
(0.734629 0.487461 0)
(0.696003 0.452 -3.05059e-19)
(0.668701 0.42244 4.17691e-21)
(0.649362 0.398341 0)
(0.635187 0.378834 4.85124e-21)
(0.617853 0.359405 4.3138e-19)
(0.551196 0.3146 -4.15942e-19)
(0.349873 0.197424 1.217e-19)
(0.0647354 0.0361388 0)
(0.242231 0.148595 0)
(1.12563 0.685608 2.57938e-19)
(1.25758 0.7719 1.93835e-19)
(1.23494 0.770196 -4.14779e-21)
(1.18567 0.753503 8.64914e-20)
(1.12973 0.733487 1.90735e-19)
(1.06761 0.710233 -3.89482e-20)
(0.999032 0.682781 3.5624e-21)
(0.923889 0.649497 6.06594e-20)
(0.842518 0.607665 -2.70672e-19)
(0.767622 0.560395 -6.31929e-21)
(0.711004 0.515992 -1.24724e-19)
(0.67061 0.477206 5.00943e-19)
(0.642366 0.444429 -5.06591e-21)
(0.622876 0.417301 -2.59581e-19)
(0.609252 0.395321 -4.73231e-19)
(0.592464 0.373287 0)
(0.526511 0.324123 0)
(0.329951 0.200291 1.34755e-19)
(0.0588369 0.0352033 -7.75041e-20)
(0.2412 0.15702 1.78778e-19)
(1.11319 0.7218 -5.6283e-19)
(1.24402 0.812888 -2.07087e-19)
(1.22143 0.810935 0)
(1.17225 0.792955 -2.89866e-21)
(1.1163 0.771612 2.29617e-19)
(1.05392 0.747053 -1.3188e-19)
(0.984707 0.718369 -5.44583e-20)
(0.908289 0.683884 6.23928e-20)
(0.82467 0.640603 -2.07747e-19)
(0.746674 0.591285 -3.25984e-19)
(0.687156 0.544034 3.32659e-19)
(0.644544 0.501786 0)
(0.614838 0.465483 -1.17322e-19)
(0.595116 0.435035 -2.85747e-19)
(0.581881 0.41003 -3.44324e-19)
(0.565491 0.384947 -4.17855e-19)
(0.499757 0.330791 1.25099e-19)
(0.307995 0.200269 -7.30013e-20)
(0.0523298 0.0333636 1.02659e-21)
(0.24013 0.165077 0)
(1.10147 0.755482 0)
(1.23045 0.851088 4.59685e-21)
(1.2079 0.848896 0)
(1.15892 0.829795 -3.24909e-19)
(1.10306 0.807318 -2.03107e-19)
(1.04057 0.781669 0)
(0.970866 0.752021 -1.40486e-20)
(0.89332 0.7167 7.75933e-20)
(0.807487 0.672471 -4.76067e-19)
(0.726193 0.621603 0)
(0.663266 0.571784 -2.13269e-19)
(0.618073 0.526091 -6.17481e-21)
(0.586553 0.48596 -5.10378e-21)
(0.566122 0.451827 3.06358e-19)
(0.55274 0.42314 -6.62149e-22)
(0.536275 0.394414 -9.11375e-19)
(0.470478 0.334488 2.74194e-19)
(0.283742 0.197096 8.11749e-20)
(0.0451727 0.0305423 0)
(0.23901 0.172749 -6.54783e-19)
(1.09026 0.787095 -3.45101e-19)
(1.21698 0.886669 -5.16722e-19)
(1.19453 0.884213 7.21798e-19)
(1.14582 0.864119 -6.08698e-19)
(1.09017 0.840682 0)
(1.02769 0.814138 -1.1334e-19)
(0.957646 0.78377 2.63442e-20)
(0.879104 0.747953 7.28722e-21)
(0.791152 0.703266 3.75607e-20)
(0.706447 0.651343 4.07611e-19)
(0.639664 0.599441 -7.28517e-20)
(0.591286 0.550661 -3.10199e-19)
(0.557427 0.506606 -1.40274e-19)
(0.535327 0.467957 1.71125e-19)
(0.521523 0.435106 -5.50762e-22)
(0.504829 0.401751 2.51623e-19)
(0.438394 0.334789 -5.96581e-19)
(0.25661 0.19024 7.10727e-19)
(0.0373727 0.0267463 1.00988e-19)
(0.237713 0.179982 2.39741e-19)
(1.07939 0.816696 -1.88158e-19)
(1.20372 0.919744 1.10329e-20)
(1.18142 0.917035 4.06881e-19)
(1.13304 0.896059 1.41989e-19)
(1.07769 0.87179 4.0523e-19)
(1.01538 0.844525 -5.01837e-20)
(0.945144 0.813667 1.27297e-19)
(0.86578 0.777652 -3.98254e-20)
(0.775831 0.732964 -2.57995e-19)
(0.687689 0.680611 0)
(0.6166 0.627284 -3.2811e-19)
(0.563894 0.575904 4.5085e-19)
(0.526489 0.527638 0)
(0.502307 0.484027 -3.66834e-19)
(0.48753 0.445775 2.28201e-19)
(0.47067 0.407106 -2.72877e-19)
(0.403105 0.331727 -3.29651e-19)
(0.226241 0.179409 -5.81572e-19)
(0.0289261 0.0219125 -4.46858e-19)
(0.236477 0.186886 -2.62416e-19)
(1.06872 0.844351 2.00963e-19)
(1.19078 0.95046 4.79398e-19)
(1.16864 0.947483 5.58092e-19)
(1.12067 0.925726 -2.96914e-19)
(1.0657 0.900742 2.7942e-19)
(1.00368 0.872896 -1.56235e-19)
(0.933427 0.841765 1.58612e-19)
(0.853426 0.805833 -1.07363e-20)
(0.761622 0.761569 2.44847e-19)
(0.669969 0.709489 8.63217e-19)
(0.594267 0.6554 0)
(0.536185 0.601793 0)
(0.493861 0.549454 -1.62174e-19)
(0.466761 0.500753 0)
(0.450215 0.455776 4.98333e-19)
(0.432968 0.409287 5.99603e-19)
(0.364417 0.323843 0)
(0.193549 0.164229 0)
(0.0203841 0.0163262 4.90584e-19)
(0.235008 0.193158 2.88484e-19)
(1.05831 0.870112 2.40421e-19)
(1.17821 0.978962 3.43508e-19)
(1.15625 0.975715 -4.96625e-19)
(1.10875 0.953241 -3.30236e-19)
(1.05424 0.927626 -3.69813e-19)
(0.992634 0.899321 2.317e-19)
(0.922526 0.868083 1.231e-21)
(0.842088 0.832496 -9.31452e-21)
(0.7486 0.789056 -1.21314e-20)
(0.653437 0.737832 4.36571e-19)
(0.572974 0.68374 0)
(0.50913 0.628551 4.54694e-19)
(0.460448 0.572904 3.41341e-19)
(0.428654 0.518832 8.75357e-19)
(0.408607 0.46582 2.68685e-19)
(0.389846 0.40799 -3.34315e-19)
(0.321817 0.308588 -1.97377e-19)
(0.161127 0.143665 0)
(0.0133743 0.0107303 5.3721e-19)
(0.233726 0.199249 -6.31626e-19)
(1.04818 0.89434 0)
(1.166 1.00538 3.82119e-19)
(1.14426 1.00184 -4.05531e-19)
(1.0973 0.978714 3.72598e-19)
(1.04334 0.952543 5.38663e-19)
(0.982252 0.923868 -5.3653e-19)
(0.912436 0.892659 5.09494e-21)
(0.831745 0.857631 0)
(0.736822 0.815365 -2.25566e-19)
(0.63835 0.765538 -9.02265e-19)
(0.553031 0.712096 4.44441e-20)
(0.483296 0.6564 6.16372e-19)
(0.427305 0.598708 0)
(0.388143 0.540673 5.8858e-19)
(0.361316 0.477813 0)
(0.336993 0.402563 0)
(0.272519 0.278839 -2.21737e-19)
(0.138552 0.10898 0)
(0.0259232 0.0126523 1.45601e-19)
(0.23215 0.204678 -6.8779e-19)
(1.03826 0.916926 0)
(1.15414 1.02992 6.16342e-19)
(1.13266 1.02608 0)
(1.08628 1.00239 -2.01344e-19)
(1.03293 0.97576 0)
(0.972449 0.946825 -3.99e-20)
(0.903035 0.915805 -2.78183e-20)
(0.822255 0.881557 -1.05086e-21)
(0.726123 0.840832 -2.19223e-19)
(0.624616 0.793019 2.3469e-20)
(0.534434 0.74111 3.6696e-19)
(0.45868 0.685604 5.95151e-19)
(0.394681 0.627591 8.52072e-20)
(0.345178 0.56756 4.5777e-19)
(0.306699 0.496727 0)
(0.264369 0.397324 7.30108e-19)
(0.197948 0.224118 -4.3773e-19)
(0.0778825 0.0932208 4.99306e-19)
(-0.0544868 0.372877 -5.94223e-19)
(0.23058 0.209819 5.59048e-19)
(1.02838 0.93797 8.9995e-19)
(1.14253 1.05291 0)
(1.12129 1.04884 8.54205e-21)
(1.07553 1.02478 5.45527e-19)
(1.02277 0.99787 -1.03706e-18)
(0.962985 0.968878 -2.35803e-19)
(0.894055 0.938346 0)
(0.81331 0.905273 -5.14754e-20)
(0.716106 0.866722 -6.30748e-21)
(0.611588 0.821799 0)
(0.516356 0.772655 0)
(0.433992 0.718325 5.20874e-19)
(0.361751 0.661472 -2.65359e-19)
(0.298832 0.604669 -4.53374e-19)
(0.243506 0.53088 0)
(0.154228 0.401436 3.64221e-19)
(0.0483929 0.473474 -4.33423e-19)
(0.0486892 1.69609 -2.31299e-19)
(0.0891662 2.71156 -3.03548e-19)
(0.228836 0.214133 -4.05186e-19)
(1.01878 0.957648 -1.12954e-18)
(1.13117 1.07437 3.52331e-19)
(1.11018 1.06999 3.40344e-19)
(1.06508 1.04571 0)
(1.0129 1.01863 -7.40683e-19)
(0.953996 0.989755 -3.94194e-19)
(0.885605 0.959888 1.85638e-20)
(0.80508 0.928286 -6.88743e-21)
(0.707036 0.89238 1.63463e-19)
(0.599695 0.851069 3.98432e-19)
(0.499694 0.805861 3.75292e-19)
(0.410564 0.753861 5.09059e-19)
(0.330465 0.698276 -6.02179e-19)
(0.255932 0.651207 -6.65286e-19)
(0.180548 0.584874 0)
(0.0900362 0.823975 0)
(0.144796 2.39925 1.8981e-19)
(0.154721 3.14117 0)
(0.15487 3.36344 4.12981e-19)
(0.230008 0.218449 0)
(1.00981 0.976061 0)
(1.1198 1.09417 0)
(1.09908 1.08934 9.42913e-20)
(1.05466 1.06497 4.8441e-19)
(1.00309 1.03792 -5.63655e-19)
(0.945369 1.00936 -2.8189e-19)
(0.877618 0.98032 2.10915e-20)
(0.797507 0.950431 -1.27817e-19)
(0.698925 0.917624 -2.00882e-20)
(0.589074 0.880664 7.15086e-19)
(0.484492 0.840389 -4.39192e-20)
(0.388935 0.792841 5.67943e-20)
(0.301802 0.735593 8.52001e-20)
(0.224355 0.703329 3.59171e-21)
(0.151164 0.928996 3.02334e-21)
(0.194899 2.50463 -9.07798e-19)
(0.224392 3.25678 -3.44657e-19)
(0.205201 3.42233 1.54746e-19)
(0.18415 3.45164 -1.58185e-19)
(0.146593 0.169833 2.21849e-19)
(0.993837 0.996243 0)
(1.10837 1.1125 -6.88447e-19)
(1.08867 1.10746 -8.80771e-19)
(1.04486 1.08324 1.00799e-18)
(0.994099 1.05629 5.98778e-19)
(0.936966 1.02776 3.25393e-19)
(0.870152 0.999728 -3.55463e-19)
(0.790728 0.971844 1.35631e-19)
(0.692039 0.942585 0)
(0.580304 0.910373 3.02313e-19)
(0.471924 0.875367 -2.75731e-19)
(0.370072 0.835081 0)
(0.277054 0.778985 7.28146e-20)
(0.215691 0.87117 1.7434e-19)
(0.19328 2.09861 -2.18751e-19)
(0.297777 3.2866 2.3704e-19)
(0.276269 3.44531 1.12636e-19)
(0.231623 3.47658 1.26995e-19)
(0.201576 3.48987 1.49042e-19)
(0.266691 0.251351 -3.98189e-19)
(0.972268 0.997924 0)
(1.08705 1.13029 6.89739e-19)
(1.07411 1.13398 8.95492e-19)
(1.02953 1.10944 -1.02495e-18)
(0.979641 1.08291 -6.30285e-19)
(0.923623 1.05575 -5.04136e-19)
(0.858156 1.02935 -2.67423e-20)
(0.77968 1.00495 -1.99326e-19)
(0.680436 0.981915 4.59384e-21)
(0.565523 0.959205 1.15393e-20)
(0.450207 0.93464 2.12277e-19)
(0.338202 0.910044 4.61121e-20)
(0.256136 0.987436 -6.56407e-20)
(0.300078 2.03195 -1.51402e-19)
(0.382781 3.27701 9.48316e-20)
(0.37622 3.48644 -7.75471e-20)
(0.329379 3.51877 -4.28868e-20)
(0.282201 3.55431 3.47895e-20)
(0.214943 3.54434 9.88243e-22)
(0.253602 0.246674 0)
(0.966699 1.01563 1.80587e-19)
(1.07767 1.14906 -1.37143e-19)
(1.06344 1.15213 -1.00022e-19)
(1.0197 1.12757 -6.74284e-19)
(0.970712 1.10108 6.16559e-19)
(0.915512 1.07411 3.39844e-19)
(0.851357 1.04883 -2.81208e-20)
(0.774176 1.02675 2.47696e-19)
(0.675573 1.00803 -2.75543e-20)
(0.559954 0.991991 -3.82404e-19)
(0.442784 0.975884 3.01069e-20)
(0.332072 0.971267 -3.96711e-20)
(0.305845 1.33683 -5.37718e-20)
(0.421215 2.88077 3.86153e-20)
(0.475921 3.46832 1.46347e-21)
(0.420174 3.56384 -1.32301e-19)
(0.376966 3.59423 -1.48727e-19)
(0.306947 3.62648 1.90308e-19)
(0.232596 3.61777 6.7724e-20)
(0.235762 0.24216 4.40564e-19)
(0.95887 1.03527 1.22218e-18)
(1.0673 1.16898 -3.92078e-19)
(1.05216 1.17126 -3.80619e-19)
(1.0093 1.14637 0)
(0.961343 1.1197 9.01923e-19)
(0.907348 1.09293 5.18501e-19)
(0.844932 1.06877 -2.96294e-20)
(0.769552 1.04913 2.57264e-20)
(0.672289 1.0351 1.27135e-19)
(0.556603 1.02609 -1.11383e-19)
(0.439151 1.01926 -2.01122e-19)
(0.342278 1.05979 -2.58569e-19)
(0.394507 1.85358 2.80525e-19)
(0.533522 3.30001 1.02268e-19)
(0.547372 3.55503 0)
(0.478149 3.61819 0)
(0.427255 3.68123 1.84654e-19)
(0.341015 3.74972 0)
(0.249233 3.72013 3.49142e-19)
(0.222833 0.241012 -6.43824e-19)
(0.948922 1.05544 -1.01943e-18)
(1.0552 1.18945 0)
(1.03953 1.19068 9.08462e-21)
(0.99767 1.16517 -6.57122e-19)
(0.950948 1.13814 1.34048e-18)
(0.898593 1.11153 3.48844e-19)
(0.838289 1.08833 -3.66394e-20)
(0.765152 1.0711 2.77966e-19)
(0.669933 1.06209 -1.43317e-20)
(0.554869 1.0604 0)
(0.43844 1.06303 0)
(0.372808 1.2057 -1.8676e-19)
(0.507655 2.43489 5.34647e-20)
(0.638152 3.47265 -4.71679e-20)
(0.610659 3.60695 0)
(0.560611 3.68142 4.31734e-19)
(0.48881 3.7803 -6.48334e-19)
(0.431036 3.81312 -5.3165e-19)