/*--------------------------------*- C++ -*----------------------------------*\
  =========                 |
  \\      /  F ield         | OpenFOAM: The Open Source CFD Toolbox
   \\    /   O peration     | Website:  https://openfoam.org
    \\  /    A nd           | Version:  9
     \\/     M anipulation  |
\*---------------------------------------------------------------------------*/
FoamFile
{
    format      ascii;
    class       volScalarField;
    location    "38";
    object      p;
}
// * * * * * * * * * * * * * * * * * * * * * * * * * * * * * * * * * * * * * //

dimensions      [0 2 -2 0 0 0 0];

internalField   nonuniform List<scalar> 
918
(
0.596742
1.24851
0.0104262
0.59609
-0.00534138
1.21557
-0.458712
0.759031
0.576893
-0.0514951
0.00896255
0.572296
1.07603
0.842373
-1.08628
0.0332208
0.709393
-0.337117
0.575922
0.0241623
0.795562
0.583474
0.586505
0.577092
0.640273
0.823371
0.956826
0.0177285
1.04702e-05
-0.00166739
0.00543243
-0.0189689
0.00226094
1.09922
1.15031
1.17298
0.545171
0.370491
-0.320773
-0.389831
-0.380825
-0.504971
0.75171
0.753059
-0.133253
0.760611
0.769647
0.564076
0.576255
0.577146
0.578232
0.577184
0.578577
0.453055
-0.0561624
-0.0880966
-0.0319972
-0.0215176
0.0997604
0.0105214
0.0103157
0.0142674
0.0129684
0.496021
0.568008
0.565233
0.577351
0.585824
1.18806
1.15998
1.18612
1.09975
1.11629
1.05402
1.02665
0.862871
0.884451
0.827632
0.816709
-1.52442
-2.48738
-0.490109
-0.23569
-0.0032232
0.0323088
0.0440767
0.700539
0.698669
0.710726
0.72263
1.12411
-0.332008
-0.449356
0.576043
0.574839
0.583231
0.583927
0.579941
0.579035
0.0276893
0.0274617
0.0192205
0.0213515
0.0218109
0.784871
0.782887
0.577632
0.574651
0.593179
0.613983
0.605937
0.327282
0.644137
0.656195
0.64564
0.813537
0.807526
0.816378
0.930274
0.8937
0.994167
1.01729
0.0125527
0.00301348
0.0225162
0.00512155
0.0122838
0.541108
0.533861
0.560103
0.548524
0.550963
0.286315
0.151457
0.455883
0.480904
-0.232951
-0.293889
-0.389273
-0.411449
-0.517382
0.644056
0.742349
0.741507
-0.153153
-0.0763874
-0.208457
-0.00371275
-0.0633891
0.554485
0.561388
0.556442
0.571843
0.566343
0.568293
0.580492
0.577565
0.579125
0.516595
0.640797
0.379209
0.344009
-0.197874
-0.106994
-0.200182
-0.00922457
-0.00467418
0.118203
0.143745
0.0899062
0.0817376
0.00306357
0.00932915
0.00764297
0.0139841
0.0173685
0.489226
0.478584
0.508291
0.515654
0.558293
0.559449
0.562684
0.561183
0.977444
0.99968
1.00733
0.981199
-3.48914
-6.29349
0.0938509
0.232757
0.00600374
0.00803233
0.00484504
0.015248
0.00507279
0.00173234
0.0556677
0.0491877
0.0415242
0.0500747
0.685689
0.685171
1.04263
1.04282
1.0247
0.974582
0.564125
0.566249
0.57181
0.567658
0.0208065
0.0268535
0.0262054
0.770579
0.778613
0.776984
0.290415
0.20357
0.376167
0.403958
0.673699
0.659931
0.671518
0.706294
0.743133
1.02466
1.04295
1.04121
1.04971
1.0938
1.11026
1.07551
0.521229
0.530836
0.52597
0.5633
0.561003
0.561951
0.55746
0.558926
0.556718
-0.000551512
-0.384182
0.531257
0.549214
0.529502
0.535838
0.723805
0.800523
0.723436
0.733403
0.731518
0.0616579
0.00494759
0.301164
0.268921
0.430991
0.46615
0.445823
0.948511
0.909175
0.959183
0.932471
0.894014
0.919381
-0.335719
-1.84982
-0.960691
0.587785
0.398834
0.487242
0.0612155
0.0568873
0.0515751
1.03734
1.11519
0.696572
0.865069
0.872692
0.782298
0.812574
0.866788
0.792961
0.827098
0.861869
0.84323
0.60021
0.54378
0.554814
0.870304
0.926336
0.17714
0.122014
0.0772768
0.161142
0.22042
0.191321
1.07855
0.98247
1.05418
0.574401
0.575099
0.0240024
0.0362031
0.579254
0.579303
0.00332974
0.00717276
0.470185
-0.796036
0.165321
0.56774
0.55794
0.574904
-0.0346309
0.409467
0.0115393
0.104432
0.0530337
0.570272
0.506469
0.467229
0.0367074
0.0239881
0.0229175
-0.162173
0.572072
0.570383
0.574364
0.575341
0.576002
0.0289513
0.03037
0.0266332
0.0288827
0.0291361
0.0281744
0.539472
0.557004
-0.11743
0.574497
0.57662
0.576437
0.56962
0.575304
0.573515
0.0385951
0.00924331
0.0200289
0.27444
0.397127
0.716985
0.811076
0.683701
0.456507
0.217816
0.61649
0.682206
0.58467
0.742834
0.735177
0.75391
0.229441
0.0817507
0.237327
0.178412
0.565609
0.56427
0.556204
0.553289
0.569748
0.567861
0.572422
0.569408
0.572375
0.573769
0.00465015
-0.017553
-0.031148
-0.0939196
0.365693
0.626533
0.303556
0.333745
0.195882
0.0142857
0.0157852
0.0139066
0.00889588
0.0528378
0.0367418
0.0964066
0.098208
0.0747022
0.0540621
0.0449271
0.0376971
0.034727
0.56368
0.561924
0.568405
0.577009
0.515782
0.519537
0.485708
0.505562
0.491514
0.432249
0.466617
0.442214
0.0245502
0.0426259
0.0163696
0.0246988
0.0248989
0.0404979
0.0371732
0.0364135
0.0358552
0.0334692
0.0267825
0.0260531
-0.121932
-0.23604
1.02986
0.964491
0.174871
0.561261
0.567686
0.56447
0.569269
0.572399
0.573241
0.570991
0.567568
0.557533
0.559263
0.555771
0.556457
-0.0551951
-0.190305
-0.0186304
-0.0873931
0.18036
0.666162
0.409345
0.349002
0.343688
0.565819
0.97082
0.765014
0.756257
0.777726
-0.300283
0.0965673
-0.233311
0.386441
0.208207
0.714092
0.764921
0.788015
0.734644
0.686149
-0.0705517
0.591167
-0.00916328
0.0371606
0.2316
0.120624
0.757233
0.718663
0.724431
0.742458
0.761867
0.724451
0.705482
0.701177
0.738102
0.741573
0.542618
0.306767
0.261027
0.221889
0.70122
0.582601
0.639351
0.551068
0.560589
0.563341
0.561937
0.544209
0.55158
0.547278
0.55319
0.556477
0.565491
0.565854
0.561247
0.563439
0.00217514
0.000563664
0.0210915
-0.0862459
-0.0763813
-0.135728
-0.0163968
0.122893
0.0846928
0.281829
0.386789
0.09996
-0.0155562
0.0141808
0.0476263
0.226335
0.251337
0.125061
0.214555
0.199914
0.185674
0.287361
0.293436
0.027715
0.021691
0.0244801
0.0221568
0.0746271
0.144766
0.154838
0.0486068
0.0422337
0.0162928
0.0136445
0.0274802
0.0268619
0.0275778
0.0660036
-0.0253881
0.0225262
0.046541
0.0532092
0.04667
0.0431043
0.556498
0.558409
0.558265
0.566277
0.583089
0.598674
0.557241
0.537466
0.528422
0.531401
0.505053
0.515043
0.510714
0.524227
0.544391
0.553435
0.551377
0.553986
0.537092
0.538584
0.525458
0.529326
0.50515
0.487038
0.475529
0.0201713
0.0542487
0.0596474
0.0162179
0.0499109
0.033141
0.0476697
0.0608941
0.0452819
0.036721
0.0363176
0.0375229
0.0385099
-0.0284562
0.0521248
-0.138849
-0.172748
-0.244523
0.93413
1.05437
0.85713
0.633094
0.647667
0.886333
0.972342
0.594992
0.780815
0.80435
0.617157
0.886256
0.566075
0.565683
0.563281
0.562766
0.564007
0.0335938
0.134769
0.143383
0.197908
0.311994
0.425105
0.349242
0.227649
0.360671
0.364551
0.661417
0.676331
0.626858
0.649514
0.647989
0.474367
0.55286
0.606818
0.560089
0.607416
0.629803
0.589957
0.620613
0.566793
0.522658
0.520274
0.468474
0.490142
0.467655
0.449206
0.555737
0.533582
0.543661
0.534709
0.554218
0.57867
0.574827
0.605094
0.616291
0.538585
0.496868
0.50677
0.535462
0.496647
0.510718
0.526406
0.262445
0.16127
0.246682
-0.0442356
0.0364216
0.0214675
-0.0256832
0.0197331
0.305443
-0.392053
-0.364924
-0.997604
0.530528
1.00094
0.710207
0.683019
0.757875
0.736522
0.739972
0.763213
0.769602
0.691241
0.709679
0.712808
0.671185
0.694456
0.718112
0.71544
0.564235
0.436774
0.429352
0.387184
0.260478
0.295269
0.497384
0.419668
0.345504
0.348349
0.510955
0.398856
0.465335
0.504218
0.436032
0.391043
0.595476
0.660981
0.650875
0.625393
0.543198
0.557132
0.582064
0.617875
0.64486
0.677002
0.552917
0.558731
0.559997
0.557486
0.554711
0.557632
0.557767
0.560295
0.561099
0.564029
0.563025
0.0128466
0.0244564
0.0125752
0.00459139
0.0313216
0.026162
0.0711261
0.0578017
0.043448
0.0500715
0.0238637
0.0199309
0.0261858
0.0347419
0.145183
0.158773
0.143218
0.103834
0.293914
0.425235
0.495592
0.372754
0.266313
0.289695
0.312942
0.0361515
0.065031
0.0501948
0.0924238
0.0833415
0.0238591
0.0235023
0.0244784
0.0256755
0.0366457
0.0205348
0.0272566
0.0327693
0.0225336
0.0223118
0.0251331
0.539658
0.533166
0.534493
0.528532
0.52741
0.541244
0.54552
0.547339
0.552673
0.554671
0.545176
0.550645
0.554195
0.0451247
0.030493
0.0162472
0.0395981
0.0384551
0.0389219
0.0381788
0.162959
0.0925561
0.0986111
0.0509515
-0.0776071
-0.0196582
0.52467
0.521423
0.517014
0.755393
0.606088
0.524251
0.619553
0.726136
0.312702
0.511237
0.344619
0.925778
0.818957
0.965112
0.581621
0.277002
0.431993
0.482802
0.290869
0.363143
0.369019
0.257414
0.289229
0.321267
0.422347
0.298897
0.273316
0.0313601
0.219144
0.335994
0.316993
0.444904
0.506972
0.296407
0.215994
0.172012
0.65314
0.67231
0.691705
0.661977
0.686297
0.61525
0.604478
0.622272
0.630637
0.626959
-0.725846
-0.433813
-1.37745
-0.692071
-0.242305
0.560419
0.523409
0.803795
0.689869
0.753505
0.738247
0.696679
0.662641
0.676092
0.707982
0.404347
0.515691
0.489854
0.495752
0.396471
0.329296
0.630338
0.624273
0.660468
0.684521
0.651583
0.68463
0.550682
0.550307
0.550022
0.546427
0.544686
0.546852
0.108767
0.0781831
0.112973
0.0930202
0.0708233
0.0597944
0.0490153
0.0422909
0.038827
0.0367976
0.042878
0.0445861
0.203167
0.145362
0.0689498
0.0994352
0.0372116
-0.0293987
-0.0479933
0.0539997
0.146798
0.137042
0.444268
0.695534
0.516696
0.685608
0.525548
0.581052
0.507521
0.500027
0.52696
0.414248
0.494342
0.260304
-0.24351
-0.151852
0.818669
0.836715
0.618181
0.432585
0.203571
0.392475
0.589922
0.525371
0.563995
0.632916
0.624617
0.0454594
0.112182
0.372181
0.599719
0.267169
0.25946
0.254059
0.428422
0.352913
)
;

boundaryField
{
    wall-4
    {
        type            zeroGradient;
    }
    velocity-inlet-5
    {
        type            zeroGradient;
    }
    velocity-inlet-6
    {
        type            zeroGradient;
    }
    pressure-outlet-7
    {
        type            fixedValue;
        value           uniform 0;
    }
    wall-8
    {
        type            zeroGradient;
    }
    frontAndBackPlanes
    {
        type            empty;
    }
}


// ************************************************************************* //
