/*--------------------------------*- C++ -*----------------------------------*\
  =========                 |
  \\      /  F ield         | OpenFOAM: The Open Source CFD Toolbox
   \\    /   O peration     | Website:  https://openfoam.org
    \\  /    A nd           | Version:  9
     \\/     M anipulation  |
\*---------------------------------------------------------------------------*/
FoamFile
{
    format      ascii;
    class       surfaceScalarField;
    location    "38";
    object      phi;
}
// * * * * * * * * * * * * * * * * * * * * * * * * * * * * * * * * * * * * * //

dimensions      [0 3 -1 0 0 0 0];

internalField   nonuniform List<scalar> 
1300
(
3.75095
5.62643
-3.00922
3.75095
-7.35095
5.62643
-4.42135
4.42135
-0.894191
0.894191
1.87642
1.87454
-2.91022
2.91022
-2.33575
2.33575
-2.55451
2.55451
-5.24649
5.24649
-5.06904
5.06904
4.66697
-4.66697
-6.13642
6.13642
-1.24331
1.24331
-3.79475
3.79475
3.16976
-3.16976
-2.2947
2.2947
-0.233368
0.233368
-0.55351
4.30446
3.19744
3.19744
-2.03272
2.03272
-4.86412
4.86412
6.21814
-6.21814
4.82711
-4.82711
-1.81789
-2.08784
1.64686
-11.3495
-5.70409
-5.70409
-8.44038
8.44038
-2.81395
2.81248
2.94418
-2.94418
-1.77933
1.77933
-4.35668
-0.0646703
-4.35668
4.41602
0.00533527
4.41602
-0.98787
0.093679
-0.98787
3.89521
-3.89521
0.768144
0.126046
0.768144
3.06491
-3.06491
-1.87707
3.75348
1.87389
-1.87186
6.17632
-1.8791
3.75363
-5.97737
5.97737
-3.12714
0.216918
-3.12714
2.73688
0.173339
2.73688
-6.7828
6.7828
-2.42114
0.0853933
-2.42114
2.28805
0.0477031
2.28805
2.86999
-2.86999
-2.65573
0.10122
-2.65573
2.44272
0.111783
2.44272
0.353527
5.2729
-5.97996
8.79244
-5.2729
0.0264171
5.20839
0.0380945
5.20839
-5.1061
0.0370568
-5.1061
5.01124
0.0577961
5.01124
4.75772
-0.0907521
4.75772
-4.78215
0.115185
-4.78215
-3.75078
-4.24214
-6.29778
0.161357
-6.29778
-1.2469
0.00359284
-1.2469
1.19933
0.0439823
1.19933
-3.62881
3.62881
-4.18971
0.394958
-4.18971
3.1242
0.0455552
3.1242
1.8685
1.88245
5.61945
-5.61945
2.4497
-2.30711
0.0124119
-2.30711
-2.30572
-2.52138
2.30572
-0.0110238
-0.487321
0.253953
-0.487321
3.15931
0.0381291
3.15931
2.28545
0.157274
-2.28545
0.252731
3.23169
-3.23169
1.37173
0.660993
1.37173
-5.56565
5.56565
4.95416
0.0570857
-4.95416
0.0900431
6.15706
0.0610736
6.15706
-6.19955
-0.0185831
-6.19955
2.7033
-4.79114
-2.3906
5.91931
0.21711
-5.91931
0.215224
2.9146
0.0295767
2.9146
-2.92053
2.92053
-2.9834
0.0392176
-2.9834
-2.18186
0.402534
-2.18186
1.47679
0.302542
1.47679
-4.22116
-0.135522
-4.22116
-4.33372
0.144016
4.33372
0.0822931
1.09702
-1.09702
-1.09616
0.10829
-1.09616
-4.04877
-0.172388
4.04877
-0.15356
-3.7702
-0.125013
-3.7702
-3.02367
0.0402701
3.02367
0.041245
3.11265
0.0466644
-3.11265
0.0477389
-1.87082
3.75328
-1.88013
3.75402
-5.59515
-0.382221
-5.59515
6.28482
-0.307446
6.28482
3.47701
0.317733
-3.47701
0.349874
2.60202
0.134859
2.60202
-6.75573
-0.0270701
-6.75573
6.75921
0.0235888
6.75921
2.50242
0.0996064
-2.50242
0.0812766
2.28816
-0.000117037
2.28816
2.8847
-0.014716
2.8847
-2.86747
-0.0025165
-2.86747
2.79931
-2.79931
2.73125
0.0680684
-2.73125
0.0755178
-11.133
11.1144
-0.0352436
-11.0978
5.17315
5.17315
4.18738
0.570338
4.18738
-4.99717
0.215016
-4.99717
3.15894
-5.54954
3.16122
-6.91199
4.80158
-16.1511
4.33623
-8.57837
6.593
-6.593
6.44788
0.145125
-6.44788
0.1501
-1.28338
0.0364745
-1.28338
-3.02242
-0.606383
-3.02242
4.28075
-0.651941
4.28075
-3.02879
3.02879
-3.07785
0.0490628
3.07785
0.0463476
2.30548
-0.0173157
-2.30548
-0.001631
0.633455
0.13469
-0.633455
0.146133
3.42009
-0.188404
3.42009
-3.04678
-0.184911
-3.04678
-1.32325
0.0398735
1.32325
0.0484766
-5.81517
0.249519
-5.81517
-11.1907
0.0929488
-11.1526
-6.1066
-6.1066
2.33378
11.1262
-2.88801
0.0205444
2.88801
0.0265881
2.97578
0.0530116
-2.97578
0.0552485
-2.86213
0.0628153
2.86213
0.0584017
-2.55996
0.378098
-2.55996
-1.0653
1.0653
-1.23885
0.17355
1.23885
0.237934
1.35757
-0.260554
1.35757
1.16229
0.0370384
-1.16229
0.0661283
-3.67116
-0.0990358
-3.67116
6.51613
-0.231313
6.51613
-2.941
-0.105781
2.941
-0.0562963
-0.0332964
11.1477
-5.13985
0.0337542
5.13985
-11.2088
11.2426
-3.23418
0.674216
3.23418
0.953202
5.28781
0.27784
-5.28781
0.290643
6.70305
0.0561662
-6.70305
0.110043
-2.53287
-0.489549
-2.53287
-5.01051
-0.584641
5.01051
-0.729762
-11.4751
-0.204155
11.6793
-11.4174
6.01933
0.137736
-6.01933
11.3803
-1.00897
-0.0880477
1.00897
0.0563331
1.67915
-0.321573
1.67915
3.58722
-0.16713
-3.58722
-0.0839374
-6.66632
-0.0894089
6.66632
-0.150193
-2.09186
-0.441013
2.09186
-0.412715
-4.267
4.30513
1.90932
-2.49177
-2.29937
-5.01316
1.8519
1.90138
4.3016
-10.1593
-5.99181
-9.94407
7.26562
-6.97498
-9.26904
9.17829
7.66313
-7.78814
-5.78523
5.83158
6.48239
-6.44115
1.87872
1.87476
7.91389
-7.69698
-15.6684
15.2862
7.48135
-7.39595
15.8375
-15.8646
-17.9003
17.9565
-5.71219
5.81342
-6.72659
6.72407
-6.95014
6.89385
-3.29097
-3.62102
13.1227
-12.9614
8.3633
-8.35088
-8.52921
8.92417
3.38248
0.922649
3.42914
-1.88225
3.76097
-1.87139
3.78071
2.65916
-5.95013
2.89039
-5.18976
3.99042
4.37288
-3.9794
-1.03376
-5.92017
5.94975
-5.8202
5.8786
8.98349
-9.04816
-1.88518
3.75994
-1.86883
3.77021
-3.42512
-2.36012
3.37956
0.922035
8.04849
5.07424
-8.2656
-1.67847
-7.91958
7.75245
-8.18101
7.9961
-0.440672
5.81949
-5.37882
4.42344
-1.55809
7.37758
5.70753
5.92254
5.86624
-5.5884
1.10874
-6.48755
-6.39751
-2.50535
2.61364
2.43875
-2.31271
6.00312
1.66001
5.84956
-5.61714
-2.17101
-5.71617
3.82105
2.01053
3.87012
4.07706
2.40533
4.11733
3.03086
-3.03573
0.0048667
-3.05634
6.0872
0.724216
-5.41646
-4.49442
4.94979
2.9641
5.12313
-5.48711
-2.20987
-5.13723
-9.56033
-6.10809
-10.145
10.1204
5.16584
9.81292
-12.0054
11.8552
4.77468
2.70667
4.82238
-4.90531
-2.49064
-4.82403
11.6563
-2.59835
-9.058
-10.3505
-7.5498
10.327
5.51053
10.972
6.98455
11.082
4.43554
7.2208
-9.94608
2.39628
-3.86613
-1.84607
-3.79061
3.68476
2.12865
3.79655
-4.21324
-2.51335
-4.19269
-4.28854
-2.66161
4.30325
2.42082
-4.40323
-3.77779
4.50901
2.38484
4.14054
-10.1323
4.43783
-8.05885
-9.22008
-3.74129
-9.06998
3.57699
2.66448
-6.24148
-2.37314
8.59666
-4.22378
7.5629
-5.07237
-3.27852
-5.074
-6.8186
-1.71062
-6.67458
-8.88449
8.39494
-9.19303
8.54109
12.6126
-5.69112
-6.92152
-3.96826
-2.47289
3.92052
-0.491375
-3.71095
3.71582
0.0500165
3.83073
4.75338
4.262
-3.88673
-1.93347
-3.83148
3.83115
2.04745
3.89396
6.76773
2.21576
6.77306
-6.47172
-2.57644
-6.60724
9.07181
-8.66928
2.89376
-2.85388
5.33031
2.66579
-5.14191
-2.77767
6.19936
-3.16975
-3.02961
-12.2061
10.5545
1.65161
-4.82853
-0.405086
-0.171718
-5.49835
-3.77069
5.38316
0.539382
11.0939
7.32319
-5.51208
5.76159
6.16723
6.22432
-0.173197
5.8333
-5.15909
5.32215
-2.46059
-2.86156
5.33107
-5.50346
-1.27616
-5.37343
4.09727
0.346095
1.70579
-1.45184
-1.95947
-0.545879
-1.89335
1.46743
0.971321
1.60212
0.950097
1.66355
-2.95539
0.555482
2.39991
-2.0053
-1.75722
-3.70188
-1.07704
4.77892
5.62244
2.13001
-5.5385
-0.177668
2.64723
-2.60324
-0.744808
-2.95707
2.16654
-2.91135
-3.68063
-1.90422
5.58485
-3.3706
-0.460882
3.31759
0.552528
-3.82573
-2.09445
3.78651
0.330817
-3.12543
6.19049
-3.06507
-5.0589
2.5285
3.5587
4.53903
-4.78991
2.44663
2.34328
-1.23121
4.22831
0.894823
4.36317
-6.79339
4.58352
5.75508
3.1691
-6.07281
0.935578
-5.85781
8.47418
-7.30276
-1.17141
4.0817
4.39247
7.13007
5.48257
-5.70214
12.8322
-1.17185
-6.13092
7.02966
-3.86056
4.79725
-8.65781
-10.2798
4.1489
-9.19621
10.9842
-1.78803
-3.63434
-8.37107
12.8306
-1.21054
-11.62
8.60238
-4.16065
-4.25897
8.41962
-6.75899
6.74961
-1.94335
-4.80626
-10.1467
-5.71784
10.2361
1.61909
-9.85272
12.249
-2.63192
4.10048
0.721902
4.10036
3.2301
-5.40261
2.17251
3.52889
-5.47224
2.05087
-7.45348
-6.7828
12.1309
-5.34815
-10.5241
-9.57659
-0.947504
2.51595
9.73305
-9.5005
7.41945
2.08105
3.30872
0.585242
-3.37679
-0.413821
0.25183
4.53199
-4.78382
4.04838
4.20565
3.33663
1.19536
3.8412
2.10855
-3.86779
-0.324903
-4.15507
1.49347
-1.73425
-3.67639
5.16986
-4.06416
0.387773
-2.73804
-3.50919
6.24723
-4.58411
3.03917
3.15132
5.08662
-4.91294
1.40375
-2.39914
-2.5138
2.66041
-4.39467
1.97478
3.19508
4.35962
0.581831
5.95139
6.17956
-8.61588
0.557026
11.2538
-9.57532
2.50084
8.58115
-9.92029
0.343706
-8.72628
1.06177
-5.28555
-5.17971
5.12452
-6.83514
-3.53329
6.1606
0.612461
-6.24289
-0.431686
-6.03494
-2.84955
-6.47596
-3.0555
-6.13753
-8.75764
-1.65104
-7.1066
6.74391
-6.68985
-3.45512
7.41961
1.12147
-7.4105
7.32246
-7.48577
7.1642
0.0949002
3.62092
4.3569
1.88401
-2.3897
4.27372
-5.10454
7.3203
-8.61135
3.50681
4.06304
-6.63948
-4.54831
5.03434
4.03747
5.33688
8.9278
-10.4449
1.51712
-10.7362
12.057
-1.32081
-16.5119
5.77573
-7.58413
2.58985
0.303908
2.62632
0.612731
2.48085
-3.09358
-2.24115
-2.19267
-2.3672
-3.46179
5.82899
1.16388
-3.4596
2.29571
-3.52578
4.68967
-0.102567
-3.35703
5.3048
-2.82395
5.60871
-3.62835
1.98036
3.37541
5.72423
-2.34882
4.38766
-1.72187
1.8518
-4.20062
-1.60999
-2.96857
5.09722
-3.27866
3.66643
-0.313396
3.97983
-4.0778
0.908049
-0.741171
3.46448
3.71721
4.28255
-3.08718
2.94769
-4.66955
-1.25294
-4.08772
-0.892643
-0.302916
-3.74573
4.04864
6.03133
-6.33424
-5.26016
9.56605
-4.30589
7.71803
-5.4028
-2.31524
-4.27117
-4.3981
3.89308
1.94023
9.65826
0.209426
-5.61222
-4.94966
-3.99646
3.2035
2.11865
-1.91325
3.56486
2.08497
-0.379179
0.536408
1.06571
1.84727
-1.31087
0.239991
1.60728
-1.21185
1.93727
0.709962
-1.9743
0.0809585
-1.34607
3.5126
1.05385
-2.02517
0.714301
1.0427
-3.50329
4.88205
-2.5297
-2.35235
5.92475
1.16008
-3.68978
4.21335
-3.86726
2.33989
-3.41692
-1.3499
-5.21715
-3.55714
-2.57405
4.86977
-3.25494
5.38495
1.18914
-5.20728
6.39642
-3.60851
1.70428
-3.08819
3.79815
-1.08116
-2.00703
2.84887
2.73598
-2.96974
0.0126715
-0.12087
2.34838
-2.46925
-0.562968
-2.56827
-4.57228
4.9031
-2.10677
4.5534
2.16694
-1.91506
6.46847
1.8108
-3.72587
-3.24809
-3.70897
-1.38259
3.15645
-0.577387
-4.24665
-5.38365
4.14704
0.216128
-6.89867
7.69407
-0.7954
-3.93457
-0.648946
4.73065
-5.94443
0.472191
-3.89357
3.80051
4.69533
4.91146
-11.4046
-0.215427
-6.23876
1.12921
-7.36797
5.52168
-3.57045
7.71935
-10.3832
6.92811
-9.26176
6.54794
-0.820026
6.25661
-4.0841
2.80139
-8.51923
-6.90014
5.41585
-2.70918
6.13775
-3.07852
9.21627
-5.71043
5.18035
4.03592
-0.991304
-4.08269
-5.1807
4.1894
-0.000351469
4.10001
4.97432
-2.86578
4.64942
2.2586
-4.65773
-2.13607
-6.4976
1.83986
-3.34627
-1.91707
3.75693
3.16955
3.75479
1.24313
-3.34097
7.25517
-8.20267
-1.90702
-3.27268
5.17486
-0.985463
3.38921
-6.66189
-1.89635
4.84922
-0.806713
-4.0425
0.841908
-4.37519
1.66085
-6.03605
5.17429
-5.60597
2.21506
-9.79918
-5.19545
-5.13911
-2.25198
-5.23379
-7.60384
5.35186
-1.82811
5.49434
-8.56881
7.7621
-3.48819
8.84005
-5.42842
-1.04754
5.84113
1.32307
10.1631
0.161745
-4.71005
-1.87598
3.93749
-2.06151
1.32752
-3.58398
0.353503
2.48078
3.44397
-6.57804
-0.0614373
-4.77149
-3.92201
7.95948
5.64404
11.6754
1.23045
9.1521
-1.19262
10.3825
4.14426
4.3822
-3.01931
4.53643
1.02933
4.53614
-0.847032
2.82739
1.77929
1.78288
0.820362
2.3186
1.39861
3.22665
0.133071
-2.0596
4.63725
-8.63371
-0.974969
-8.06338
1.11491
5.72543
-4.61052
3.10025
-0.981595
1.03874
0.0636683
-1.58039
1.51672
-2.79789
-1.95957
-0.352289
-1.64117
2.35547
1.87144
-2.00318
-0.79471
0.342002
-3.89914
3.07492
-3.06225
-0.326271
6.07015
-2.76721
0.29796
-1.06292
-2.27031
-2.81618
2.73523
6.17706
0.29141
3.11199
5.19451
3.10006
0.234284
3.87733
-5.66536
-3.57615
-5.88079
-0.359104
4.37155
1.75213
7.98093
5.78804
4.80258
-1.85931
-10.062
6.55581
-2.01938
5.235
-1.1925
-4.84355
5.00717
2.31313
-5.61963
0.0136556
-4.82989
-6.84927
-0.524505
8.2866
-9.63861
8.59108
5.74153
1.36508
-4.40992
-0.729192
4.23637
0.145826
10.5284
-1.12733
-6.81266
7.93999
-4.5981
3.62313
0.826237
2.73862
2.34296
1.36137
-5.4513
-10.0618
-1.94354
-1.55975
-4.2959
0.483019
-2.35446
6.25082
-2.62769
3.93558
5.3123
6.35105
-2.15939
-4.17485
6.46528
-2.5297
3.82135
)
;

boundaryField
{
    wall-4
    {
        type            calculated;
        value           uniform 0;
    }
    velocity-inlet-5
    {
        type            calculated;
        value           uniform -3.75095;
    }
    velocity-inlet-6
    {
        type            calculated;
        value           uniform -5.62643;
    }
    pressure-outlet-7
    {
        type            calculated;
        value           nonuniform List<scalar> 8(3.00922 7.35095 3.90573 9.70266 7.99292 5.0939 6.32016 9.1378);
    }
    wall-8
    {
        type            calculated;
        value           uniform 0;
    }
    frontAndBackPlanes
    {
        type            empty;
        value           nonuniform List<scalar> 0();
    }
}


// ************************************************************************* //
