/*--------------------------------*- C++ -*----------------------------------*\
  =========                 |
  \\      /  F ield         | OpenFOAM: The Open Source CFD Toolbox
   \\    /   O peration     | Website:  https://openfoam.org
    \\  /    A nd           | Version:  9
     \\/     M anipulation  |
\*---------------------------------------------------------------------------*/
FoamFile
{
    format      ascii;
    class       volVectorField;
    location    "38";
    object      U;
}
// * * * * * * * * * * * * * * * * * * * * * * * * * * * * * * * * * * * * * //

dimensions      [0 1 -1 0 0 0 0];

internalField   nonuniform List<vector> 
918
(
(0.985164 -0.000501063 0)
(0.00501257 2.96625 0)
(-0.00223197 0.801747 0)
(0.979703 0.00214822 0)
(-0.0539848 1.95958 1.77025e-20)
(-0.00704424 2.94879 -2.60555e-18)
(0.828515 1.1698 4.03773e-19)
(0.294249 0.136769 -1.68596e-20)
(0.999909 -0.000281242 0)
(0.0575851 0.819039 0)
(0.0125732 0.626443 0)
(0.73471 -0.0135703 0)
(0.0111054 2.9304 0)
(0.00218707 2.79504 0)
(-0.0176541 3.15663 7.42211e-19)
(-0.00301559 1.85573 -3.07926e-20)
(0.363216 0.0385283 1.10773e-18)
(0.190522 1.17898 2.72431e-19)
(0.962778 0.00501605 0)
(0.00723053 0.616411 0)
(0.0682658 0.182965 -7.97318e-19)
(1.00198 -0.00498138 0)
(1.00022 -0.00979273 0)
(0.975725 -0.00644265 0)
(0.585728 -0.0365642 0)
(0.0161046 2.63878 0)
(-0.0150019 2.91008 9.68026e-19)
(-0.00274614 0.862878 0)
(0.0053147 1.04142 0)
(-0.0014039 0.836544 0)
(-0.0476501 2.5869 0)
(-0.0262032 2.06036 -1.41069e-20)
(-0.0254747 1.79485 0)
(-0.0206093 2.9876 -9.40681e-23)
(-0.0166903 3.00529 2.02502e-18)
(0.00209874 3.00018 0)
(0.870668 -0.00938755 0)
(0.403338 0.936843 2.03969e-19)
(0.807957 1.18685 -4.22117e-19)
(0.954231 1.02493 4.79264e-19)
(0.67855 1.28014 -9.26966e-20)
(0.677718 1.26529 5.44053e-19)
(0.335717 0.220379 1.6448e-20)
(0.309534 0.107136 0)
(1.12885 0.550411 0)
(0.301203 0.213102 7.51599e-20)
(0.264762 0.142071 -7.79947e-20)
(0.919748 -0.00745963 0)
(1.00027 0.000146766 0)
(0.999909 0.000330932 0)
(1.00363 -0.00777296 0)
(1.00096 -0.000933229 0)
(1.00017 2.89971e-05 0)
(0.0805644 1.80904 -8.6727e-19)
(0.0304933 0.997684 0)
(0.0877337 0.885069 0)
(0.01117 0.949499 0)
(0.0349249 0.761224 0)
(0.0236843 2.00002 0)
(0.0211717 0.820657 0)
(0.0200875 0.653966 0)
(0.0032417 0.802247 0)
(-0.00684503 0.609087 0)
(0.837731 -0.015721 0)
(0.848413 0.0282719 0)
(0.767763 -0.00301892 0)
(0.81975 0.0383039 0)
(0.702965 -0.0185027 0)
(0.0146872 3.00041 9.67748e-19)
(0.0114939 3.00802 0)
(0.00611307 3.00277 0)
(0.0135345 2.99735 1.10082e-23)
(0.00797371 2.95848 -1.43831e-18)
(0.0145001 2.98207 0)
(0.0108614 2.90356 0)
(0.0244442 2.93081 2.24531e-24)
(0.00456677 2.8251 0)
(0.0305848 2.91628 0)
(-0.00515027 2.74477 0)
(0.308492 3.55358 0)
(-0.131907 3.63507 0)
(0.139649 3.24716 -6.90712e-19)
(-0.0126142 2.98262 0)
(-0.0110746 2.13126 0)
(-0.0074814 2.12608 3.03701e-20)
(-0.000742962 1.87284 -3.91021e-20)
(0.457855 0.144176 -3.83254e-19)
(0.361265 0.0212103 -3.69301e-19)
(0.441699 0.164914 -1.15418e-18)
(0.348955 0.0581521 -7.61547e-19)
(0.220642 0.954424 0)
(0.272994 1.32172 -3.35243e-19)
(0.375171 1.26477 5.6305e-19)
(0.987483 0.00855726 0)
(0.941946 0.00587367 0)
(1.0003 0.000578686 0)
(1.00286 0.0093062 0)
(1.00302 0.00845947 -2.94559e-18)
(0.991913 0.00969888 2.22443e-18)
(-0.00996653 0.798712 0)
(-0.00673195 0.623827 0)
(0.00858382 0.887213 0)
(-0.0129351 0.795161 0)
(-0.0146527 0.617301 0)
(0.107869 0.18825 2.46484e-19)
(0.164555 0.165307 0)
(0.993538 -0.00838152 0)
(0.954416 -0.00651831 0)
(0.770396 0.0459158 0)
(0.706286 0.0565202 0)
(0.662857 -0.0302675 0)
(0.958952 -0.0100796 0)
(0.621964 0.0748571 0)
(0.448059 -0.0138231 1.62314e-18)
(-0.0369538 2.86273 7.42141e-19)
(0.041758 2.90917 0)
(0.0544683 2.88525 0)
(-0.00482745 2.69937 0)
(-0.0130647 2.9853 9.20248e-19)
(-0.0179456 2.89524 0)
(-0.0153465 2.98808 -2.84567e-18)
(-0.01334 2.92521 9.7294e-19)
(0.0650346 1.2917 0)
(0.0626052 1.35812 0)
(-0.0206995 2.08465 -6.36333e-22)
(-0.0149856 2.04768 0)
(-0.00945722 1.83126 0)
(0.937919 -0.00772567 0)
(0.856257 -0.00947776 0)
(0.863427 0.00637091 0)
(0.949131 -0.00800071 0)
(0.883616 -0.00817244 0)
(0.515608 1.13076 -2.56343e-19)
(0.565179 1.18273 0)
(0.367099 0.880521 3.69812e-20)
(0.309384 0.739586 0)
(0.913876 1.06345 -1.28836e-19)
(1.02364 0.865002 2.54298e-19)
(0.369645 1.37387 0)
(0.53265 1.34358 0)
(0.545547 1.29503 0)
(0.114576 0.180668 -3.17073e-19)
(0.369759 0.209441 0)
(0.334878 0.100578 2.1522e-19)
(0.994316 0.920488 0)
(1.05829 0.769118 0)
(1.08306 0.709632 -1.8311e-19)
(1.10935 0.611292 0)
(1.15444 0.394954 5.42884e-20)
(0.957478 -0.00880514 0)
(0.962368 -0.0101283 0)
(0.901465 -0.00799674 0)
(0.984168 -0.00917924 0)
(0.974641 -0.00939918 0)
(0.93705 -0.00635575 0)
(1.00019 0.00233786 0)
(1.00091 0.00139594 0)
(0.999911 0.00085597 0)
(0.0333266 2.0629 4.76873e-19)
(0.121734 1.75171 0)
(0.0136379 2.1795 7.52989e-19)
(0.0540123 1.86274 -6.41584e-19)
(0.105753 1.18435 -2.22221e-19)
(0.0465834 1.07059 0)
(0.141257 1.03475 0)
(0.00907525 0.900614 0)
(0.0184631 0.721218 0)
(-0.00579797 2.22531 -1.55016e-21)
(0.0291615 1.99501 0)
(-0.00534192 2.21882 -7.47538e-20)
(0.0272518 1.99425 1.36685e-19)
(0.0049391 0.869412 0)
(0.0136533 0.846501 0)
(0.0171218 0.683698 0)
(-0.00239246 0.803178 0)
(-0.00464154 0.606195 0)
(0.93523 0.00884907 0)
(0.844664 -0.0149366 0)
(0.925409 -0.000343609 0)
(0.839957 -0.0126501 0)
(0.812219 0.00148525 0)
(0.901897 0.0197923 0)
(0.878588 0.0238396 0)
(0.788997 -0.000444492 0)
(0.00569231 3.06477 -9.10329e-21)
(0.0166698 3.05788 0)
(0.0147074 2.96906 0)
(0.0086088 2.87619 0)
(0.925666 3.97022 0)
(1.24037 3.3025 9.25607e-19)
(0.0701559 3.07466 0)
(-0.0281649 2.9058 0)
(0.0870476 1.46074 0)
(0.0291534 1.82741 0)
(0.0490082 1.68487 0)
(-0.0339513 2.53936 6.86107e-21)
(-0.0220568 2.31317 0)
(-0.0543096 2.43625 0)
(0.0287917 1.94721 3.3962e-21)
(-0.0147792 2.17232 4.5898e-20)
(-0.00843408 2.15641 3.96429e-20)
(0.0174705 1.90709 0)
(0.483985 0.120023 5.74641e-19)
(0.382001 0.00429487 -5.64503e-19)
(0.260323 1.57378 0)
(0.268604 0.729887 -3.26335e-19)
(0.177573 1.65892 -1.09803e-18)
(0.226916 1.197 1.10079e-18)
(0.902252 0.00652707 0)
(0.967511 0.0110262 0)
(0.974622 0.01078 0)
(0.923446 0.00650857 0)
(-0.0142238 0.803037 0)
(-0.00572707 0.799296 0)
(-0.0110919 0.616573 0)
(0.259393 0.210076 6.92984e-19)
(0.215665 0.196985 -8.20658e-19)
(0.224064 0.155543 0)
(1.08036 0.0806181 3.22923e-20)
(1.06265 0.0356651 0)
(1.00167 0.0376212 0)
(0.898579 -0.00791051 0)
(0.511678 0.0975907 0)
(0.55071 0.0799982 -2.59619e-18)
(0.408043 -0.000967236 9.72982e-19)
(0.00908313 2.98116 7.85675e-19)
(-0.0326998 2.86615 4.7312e-20)
(0.00366805 3.05019 -1.92153e-20)
(0.0201765 3.04343 6.83295e-19)
(-0.0150269 2.99657 3.18933e-20)
(-0.0129586 2.94948 -1.28259e-22)
(-0.0172564 3.01194 -5.8822e-19)
(0.0148356 3.02387 4.25312e-19)
(0.0073409 3.03675 -6.75405e-19)
(0.932506 -0.00177191 0)
(0.938495 -0.00374989 0)
(0.844226 -0.00912316 0)
(0.956735 0.0116978 0)
(0.943071 0.0129492 0)
(0.88178 0.00612275 0)
(0.918209 0.0162614 0)
(0.926613 0.0146241 0)
(0.838723 0.00395877 0)
(0.719377 1.41027 1.17072e-20)
(0.753168 1.5197 0)
(0.18751 0.324588 7.63463e-20)
(0.217665 0.656097 6.16631e-19)
(0.258862 0.71732 -3.58018e-19)
(0.265124 0.533147 7.12593e-19)
(0.334673 0.787091 1.66281e-18)
(0.132461 0.220984 3.87495e-19)
(0.416 0.185135 8.08018e-19)
(0.39528 0.201229 2.10263e-19)
(0.346557 0.0817945 4.01489e-19)
(1.14512 0.453391 2.34016e-21)
(1.15945 0.248485 -4.42759e-21)
(0.00650124 2.22738 2.9986e-19)
(0.0482727 1.92759 0)
(0.963577 0.0279979 0)
(0.938344 0.0129724 0)
(0.862234 -0.0185984 0)
(0.0111281 3.07432 0)
(0.0196804 2.94402 1.26099e-18)
(0.0164662 2.9563 0)
(0.00633781 2.85068 -1.25082e-18)
(0.00623563 3.091 3.06935e-19)
(0.0073228 3.08271 0)
(0.786366 1.82271 -1.52641e-19)
(1.24809 2.50143 3.8474e-19)
(0.768632 1.96268 -1.21677e-18)
(0.0202176 2.98145 -6.86013e-19)
(0.036101 3.00205 0)
(-0.0335405 2.87874 0)
(-0.00813978 2.1967 -1.28728e-20)
(-0.0126423 2.18462 -9.71821e-20)
(0.0266202 1.98235 -1.86973e-21)
(0.27476 1.3805 1.06325e-18)
(0.225791 0.516871 -7.29119e-19)
(0.0628694 1.98764 8.14631e-19)
(0.136384 1.87597 -9.62172e-19)
(0.18036 1.49132 9.17624e-20)
(0.00233284 3.11848 -1.92936e-18)
(0.0169018 3.11786 2.06605e-18)
(-0.00899356 2.98109 8.51958e-19)
(-0.003237 2.9775 -8.10997e-19)
(-0.0212007 2.88157 -8.67695e-19)
(0.00868048 3.09943 -2.28703e-18)
(0.00229161 3.10648 2.23077e-18)
(0.273525 0.680377 0)
(0.237028 0.670247 -1.2717e-18)
(0.0957446 0.221646 5.63457e-19)
(0.34915 0.91276 1.15101e-18)
(0.187774 0.265442 -1.77527e-18)
(1.15903 0.167943 8.64918e-20)
(1.16188 0.302578 0)
(1.14586 0.116781 -3.43125e-20)
(-0.0027067 2.2408 -2.19649e-21)
(0.000250031 2.23455 0)
(0.0347974 1.96631 0)
(0.33908 1.28947 -3.83013e-19)
(0.367398 1.12421 -8.26703e-19)
(0.201266 0.362908 1.47405e-18)
(1.00587 -0.0108647 0)
(1.00766 -0.007654 5.43872e-19)
(0.0483415 1.27072 0)
(0.0075047 1.19555 0)
(1.00222 0.00350719 1.8064e-21)
(1.00366 0.00944679 1.10958e-18)
(-0.0385987 2.54211 -8.54882e-21)
(-0.0341789 2.57466 0)
(0.0364427 3.17912 4.66881e-19)
(0.395599 3.49221 0)
(1.14447 0.65197 -8.58847e-20)
(1.01292 0.0130599 -2.14029e-21)
(1.02126 -0.0104117 0)
(1.00168 0.000100833 7.09973e-23)
(0.0990985 1.35518 0)
(0.148185 2.57892 0)
(0.0231332 1.2959 0)
(0.000329108 2.63221 7.77716e-20)
(-0.0223608 2.58711 4.97446e-20)
(1.00196 0.0280639 2.47133e-21)
(1.06144 0.00334856 0)
(1.09433 0.0226442 0)
(0.0170216 1.85246 0)
(-0.0287636 2.58303 0)
(0.0281657 1.27496 0)
(0.291363 1.46873 -1.2457e-19)
(1.01126 -0.00965924 0)
(1.00939 -0.0149364 0)
(1.00235 0.00070592 6.94653e-19)
(1.00548 -0.00483232 -8.16826e-19)
(1.00119 -0.000988011 0)
(0.0400981 1.5551 0)
(0.0549881 1.37235 0)
(0.0598474 1.48752 0)
(0.039809 1.26081 0)
(0.017251 1.18745 0)
(0.00871926 1.15834 0)
(1.03444 -0.00647711 0)
(1.02062 0.0156918 -9.11028e-22)
(0.797099 1.26518 2.14507e-19)
(1.00226 0.000254651 -6.93393e-19)
(1.00406 0.00524774 8.101e-19)
(1.00118 0.00205807 0)
(1.01285 0.0102621 6.89335e-19)
(1.00802 0.00828022 -8.34283e-19)
(1.00858 0.0146683 0)
(-0.0315332 2.60551 0)
(-0.0326051 2.58686 1.81823e-20)
(-0.0323662 2.59818 -1.17218e-20)
(1.22305 0.252369 6.98307e-19)
(1.15518 0.0817572 0)
(0.0447492 3.07735 -1.00835e-18)
(0.0658598 2.85367 -7.31695e-20)
(0.142513 3.1934 1.53104e-18)
(0.137444 3.22239 -2.36483e-19)
(0.135623 3.23495 0)
(0.020512 3.13763 2.62658e-19)
(0.0771357 3.16069 9.95623e-19)
(0.0698511 3.18671 -4.94384e-19)
(0.023062 3.12965 0)
(0.649564 0.295858 0)
(0.571789 0.345744 0)
(1.11262 0.685964 2.1941e-19)
(1.10876 0.814054 -2.31193e-19)
(1.17301 0.570946 0)
(1.20346 0.508025 0)
(1.01615 0.013295 -1.28558e-18)
(1.01499 0.0142637 1.61378e-18)
(1.02518 -0.00995947 0)
(1.02323 -0.0119758 0)
(1.00646 0.00255602 0)
(1.01044 0.00369309 0)
(1.00462 0.00181377 0)
(1.0098 0.00615841 0)
(1.00781 0.00595243 0)
(1.00453 0.0046373 0)
(0.0878994 1.35149 0)
(0.0824801 1.32586 0)
(0.119507 1.38813 0)
(0.131455 1.39975 0)
(0.147082 2.60313 0)
(0.187381 2.66979 -4.63874e-19)
(0.102028 2.66122 0)
(0.0878715 2.66481 2.36348e-19)
(0.040021 2.68709 -2.17845e-19)
(0.0256128 1.31701 0)
(0.0239755 1.24208 0)
(0.0353605 1.32157 0)
(0.0283833 1.26238 0)
(-0.000854734 1.98739 -3.84609e-20)
(-0.02376 2.61496 3.40148e-20)
(-0.0117589 2.67537 7.06835e-20)
(-0.0196594 2.68941 0)
(-0.0274834 2.61958 -1.14897e-19)
(-0.0271272 2.61291 -6.34072e-20)
(0.00899573 1.98728 3.10403e-20)
(-0.0138713 2.41216 -4.56344e-20)
(-0.0173451 2.43087 -8.01446e-20)
(1.01122 0.0362171 1.30832e-18)
(1.00769 0.0165917 -1.61713e-18)
(1.00319 0.042192 -1.30994e-18)
(0.982107 0.021847 1.66785e-18)
(1.06265 0.00715917 0)
(1.0482 -0.00887483 0)
(1.09133 0.0326732 0)
(1.0724 0.0114863 0)
(1.07013 -0.00133732 0)
(1.1366 0.0782801 0)
(1.1081 0.0417064 0)
(1.11088 0.0296747 0)
(-0.041985 2.44633 -6.23252e-21)
(0.00490109 2.06273 0)
(-0.0226253 2.2571 0)
(-0.0297488 2.60347 1.39285e-20)
(-0.0259504 2.61467 -7.55336e-22)
(0.0116028 1.61849 4.4497e-20)
(0.0307764 1.57939 -4.49542e-20)
(0.0336113 1.40158 0)
(0.0447903 1.41544 0)
(0.0279711 1.42051 0)
(0.0142991 1.29094 0)
(0.00607091 1.20143 0)
(0.379025 1.4835 1.90817e-19)
(0.41769 1.4886 1.18663e-19)
(0.596711 2.44784 -2.48462e-19)
(0.402946 2.54348 7.36773e-19)
(0.353422 2.0665 8.67562e-20)
(1.02096 -0.00823124 0)
(1.01545 -0.00980892 0)
(1.01489 -0.0155319 0)
(1.00746 -0.00120765 0)
(1.00491 -0.000971278 0)
(1.00776 -0.00477341 0)
(1.00924 -0.00372577 0)
(1.01415 -0.00450224 0)
(1.02133 0.0160092 1.25924e-18)
(1.01809 0.0157311 -1.61416e-18)
(1.02179 0.0179554 -1.26807e-18)
(1.0197 0.0166807 1.58717e-18)
(0.76436 1.31377 0)
(0.699788 1.36664 1.90041e-19)
(0.873008 1.21017 4.97528e-20)
(0.915614 1.16369 -6.61633e-20)
(1.15605 2.60864 3.64509e-19)
(0.807248 0.104731 6.36587e-19)
(1.15775 0.101085 0)
(1.20216 0.182351 -5.60776e-19)
(1.18559 0.146951 -2.37218e-20)
(1.00389 0.14389 0)
(0.137008 2.9613 5.9801e-19)
(0.114182 2.867 -1.27415e-18)
(0.0249232 2.37141 8.60111e-19)
(0.0918211 -0.0126515 -3.86397e-19)
(0.340337 3.42119 -1.83956e-19)
(0.19457 3.31371 0)
(0.237303 3.35595 2.39572e-19)
(0.245958 3.03461 -1.94511e-18)
(0.340751 3.19392 0)
(0.0060443 3.12103 5.04726e-20)
(0.0160571 3.12981 -5.92643e-19)
(0.0143704 3.12584 8.72253e-19)
(0.0357744 3.14011 0)
(0.0343621 3.15066 0)
(1.21533 2.60826 0)
(0.536115 0.838246 -5.63032e-19)
(1.0367 0.98816 3.40615e-20)
(0.973306 1.06364 0)
(0.822987 0.965738 -1.34398e-19)
(1.06 0.878841 2.89677e-20)
(0.367824 0.399418 -9.93816e-19)
(0.694574 0.320748 -2.2256e-20)
(0.659931 0.237929 4.5601e-19)
(0.589796 0.376076 3.37002e-20)
(0.506249 0.347362 -1.35707e-18)
(0.664216 0.339207 0)
(0.703002 0.424458 7.73676e-19)
(0.711233 0.42128 0)
(0.624427 0.368663 0)
(0.598156 0.292388 0)
(0.797863 0.61598 4.63509e-19)
(1.22117 0.275274 -5.90878e-19)
(1.21538 0.413347 0)
(1.22697 0.354689 0)
(0.744841 0.187917 6.77665e-19)
(0.844554 0.535646 -4.23089e-19)
(0.744301 0.508875 7.49986e-19)
(0.947727 0.423042 -8.31064e-19)
(1.01975 0.0146619 8.65713e-19)
(1.01787 0.0142003 -8.70833e-19)
(1.01594 0.0155975 0)
(1.03588 -0.00603173 0)
(1.02955 -0.00863654 -8.17433e-19)
(1.02749 -0.0121622 8.0945e-19)
(1.02508 0.00972455 0)
(1.02365 0.0133862 0)
(1.01142 0.00405683 0)
(1.01429 0.00898186 0)
(1.01512 0.00392499 0)
(1.01422 0.00273848 0)
(0.0584007 1.33509 0)
(0.0631475 1.29509 0)
(0.143558 1.36095 -4.32461e-20)
(0.268089 1.46564 6.12162e-20)
(0.160538 1.43656 1.25412e-19)
(0.190743 1.44455 -2.0637e-19)
(0.163537 1.38513 0)
(0.131942 1.59143 -1.23338e-19)
(0.115576 1.56265 0)
(0.352859 2.01982 -1.26111e-19)
(0.347968 2.35199 6.74332e-19)
(0.188255 1.44668 1.07532e-19)
(0.261242 1.38001 1.20816e-21)
(0.199802 1.36584 -9.79542e-22)
(0.273737 1.32164 -1.52386e-19)
(0.241508 1.57537 0)
(0.262221 1.6158 1.50918e-19)
(0.0347335 2.27093 -5.1692e-20)
(0.0427286 2.67707 0)
(0.0668526 2.40883 1.83379e-19)
(0.0605486 2.43037 0)
(0.0710131 2.6783 -2.61626e-19)
(0.0505643 2.70654 0)
(0.0284675 1.40441 -2.50137e-20)
(0.0360391 1.45605 0)
(0.032632 1.37256 0)
(0.0252645 1.37509 2.82238e-20)
(-0.00128515 2.66088 -1.97831e-20)
(0.0284809 2.70619 2.52121e-19)
(0.0108657 2.73001 1.75104e-21)
(-0.000988971 1.83628 3.81008e-20)
(-0.00792858 1.67918 1.63606e-20)
(0.0252833 1.2917 0)
(0.0021693 1.22058 0)
(0.0493141 1.56653 4.15205e-20)
(0.030278 1.43895 3.87513e-20)
(0.0382371 1.50486 -4.75395e-20)
(0.0412908 1.59147 0)
(-0.036474 2.28534 5.72404e-21)
(-0.0424246 2.55535 -4.17919e-21)
(-0.0226698 2.45367 -1.00349e-20)
(-0.0155346 1.85234 -4.61562e-20)
(-0.0324159 2.50565 -1.63524e-20)
(-0.026683 2.44977 7.96498e-20)
(1.01977 0.0206342 -8.60566e-19)
(1.01602 0.0261806 8.6387e-19)
(1.0152 0.0162043 0)
(1.01119 0.0675629 1.21459e-18)
(0.991544 0.0561971 -1.35885e-18)
(0.952599 0.0421507 1.51972e-18)
(1.01448 0.10362 -1.62113e-19)
(1.04209 -0.00606534 0)
(1.05018 -0.00194752 7.81736e-19)
(1.03847 -0.0100875 -7.82948e-19)
(1.06956 0.0403194 -4.67061e-20)
(1.06329 0.0222144 4.01755e-19)
(1.06405 0.0533749 0)
(1.05108 0.0482745 -1.44209e-19)
(1.0332 0.0403498 0)
(1.0261 0.0366204 0)
(1.02784 0.0127198 0)
(1.02434 0.0155672 0)
(1.03972 0.0305988 2.96852e-19)
(1.03939 0.0259502 -6.5469e-19)
(1.05021 0.0321877 -3.15053e-19)
(1.04816 0.03203 -3.46504e-19)
(1.06918 0.0622005 6.80405e-19)
(1.0939 0.0496684 0)
(1.10177 0.0924064 0)
(-0.0411847 2.27832 -2.29569e-20)
(-0.0125524 2.04914 -8.25246e-21)
(-0.0176075 2.03272 0)
(-0.0291309 2.45761 2.46197e-20)
(-0.0222933 2.4035 1.42011e-20)
(-0.0528772 2.46787 -6.05579e-21)
(-0.0273613 2.6259 5.60704e-20)
(-0.0343701 2.56736 -4.06341e-21)
(-0.0300618 2.52102 1.62679e-20)
(-0.0232264 2.61999 -2.20699e-20)
(-0.0287159 2.62055 2.80897e-20)
(0.013509 1.5116 8.94254e-23)
(0.0123007 1.64779 4.40263e-20)
(0.367736 1.42431 -7.14887e-20)
(0.365879 1.36808 8.58566e-20)
(0.646419 1.41365 -1.8371e-19)
(0.515039 1.47834 -1.1523e-19)
(0.568043 1.45007 0)
(0.592272 2.42354 2.20962e-19)
(0.659488 2.41577 3.50403e-19)
(0.411146 2.51748 8.37898e-20)
(0.404765 2.54471 -6.77929e-19)
(0.512881 2.48942 6.55218e-19)
(0.551881 2.46159 0)
(0.489095 2.51761 -5.86674e-19)
(0.249366 2.59361 1.23883e-18)
(0.35414 2.56635 -8.22165e-20)
(0.285222 2.65535 -1.69182e-18)
(0.94328 2.37852 7.68992e-19)
(0.835267 2.38123 0)
(1.01094 0.000388519 2.82171e-20)
(1.01521 -0.00552759 -2.29096e-20)
(1.01763 -0.00365638 -4.18629e-19)
(1.01489 -0.00098029 4.20466e-19)
(1.0123 0.00101512 0)
(0.634149 1.28184 0)
(0.652123 1.17848 0)
(0.755783 1.08676 0)
(0.644421 1.14328 0)
(1.18571 2.62309 5.87723e-20)
(1.07356 2.36712 0)
(0.837486 2.1901 4.30733e-21)
(0.825022 2.44829 0)
(0.92176 2.5394 -4.69446e-19)
(0.957017 2.49562 3.12494e-19)
(0.816145 0.157383 0)
(0.783252 0.130589 1.7385e-19)
(0.925145 0.138753 1.01124e-18)
(0.840058 0.136701 -3.78837e-19)
(0.817246 0.0783698 -1.16139e-18)
(1.07651 0.223523 -9.96936e-19)
(0.99696 0.281699 -1.52481e-20)
(0.923317 0.279584 9.42526e-19)
(1.00468 0.212746 7.89738e-19)
(0.953273 0.181874 -1.34797e-18)
(0.91783 0.183039 1.68465e-19)
(0.95169 0.242379 -3.62465e-19)
(0.930424 0.205277 0)
(0.993378 0.178633 6.65661e-19)
(1.04416 0.177606 0)
(1.04364 0.20364 0)
(1.10515 0.112104 3.18746e-19)
(1.06883 0.165519 -1.39221e-20)
(1.07083 0.225081 -1.73814e-19)
(1.10147 0.192621 0)
(1.0229 0.0437299 6.68072e-19)
(1.04102 0.0565613 8.35058e-19)
(1.03429 0.0421464 -6.6279e-19)
(1.04176 0.0629234 -5.59658e-19)
(1.01861 0.0705145 -8.54165e-19)
(0.988524 0.150709 0)
(0.998471 0.0999383 0)
(0.968631 0.0643396 -5.41012e-19)
(0.919592 0.0867551 2.12387e-19)
(1.03717 0.0996293 7.73894e-19)
(1.06753 0.11536 -9.19013e-19)
(1.06987 0.146595 8.19666e-19)
(1.02928 0.137289 0)
(1.07337 0.105189 0)
(1.05498 0.0864336 -3.73659e-19)
(1.04411 0.0927252 -6.33912e-19)
(0.577924 1.07596 1.59825e-19)
(0.612484 1.41374 -6.1771e-20)
(1.15637 2.74198 -2.54999e-19)
(1.22319 3.08262 7.16565e-21)
(1.24848 2.72279 -1.93892e-19)
(1.2787 2.70677 -2.6986e-21)
(1.20658 2.34597 -1.00867e-20)
(1.21029 2.98644 -1.16448e-19)
(1.22954 2.95152 2.71083e-19)
(1.21434 3.23611 -1.34075e-19)
(1.37539 2.96772 1.85444e-19)
(1.36615 2.88572 0)
(0.541016 0.846186 -5.30108e-20)
(0.137887 1.25679 5.98019e-19)
(0.532123 0.455849 6.4164e-19)
(0.369079 0.207211 7.09054e-19)
(0.528822 0.381603 7.65859e-19)
(0.545101 0.476307 -1.23814e-18)
(0.546717 0.478874 1.01101e-18)
(0.496905 0.403721 -3.8715e-19)
(0.420773 0.337604 8.7805e-19)
(0.74802 0.247341 -3.87912e-19)
(0.713658 0.280835 0)
(0.698783 0.205148 9.56949e-21)
(0.729597 0.512801 4.07426e-19)
(0.700443 0.483254 -1.48476e-18)
(0.614618 0.470427 1.58286e-20)
(0.62546 0.458407 0)
(0.671958 0.732071 4.29322e-19)
(0.823592 0.771805 4.4745e-19)
(0.748041 0.853473 -5.22127e-19)
(0.865161 0.804676 -1.8024e-19)
(0.897918 0.849221 -4.7021e-20)
(0.905963 0.84992 4.81458e-20)
(0.838985 0.64417 -7.69177e-19)
(0.916555 0.701393 1.67434e-19)
(0.972727 0.715907 0)
(0.963584 0.692307 -2.3152e-19)
(1.02366 0.319623 2.41523e-19)
(1.13737 0.289103 3.41448e-19)
(1.06358 0.258867 4.07745e-19)
(1.01041 0.354653 -4.83659e-19)
(1.051 0.420337 0)
(1.10297 0.404388 0)
(0.9118 0.35056 5.93595e-21)
(0.8416 0.283194 0)
(0.87263 0.276523 4.42211e-19)
(0.906257 0.285236 -4.85315e-21)
(0.939914 0.426028 2.31928e-18)
(0.896187 0.48732 5.99667e-19)
(0.900449 0.450485 -6.33042e-19)
(0.820062 0.43361 6.78263e-19)
(0.802666 0.429396 4.05172e-19)
(0.773402 0.415428 -3.98173e-19)
(1.02738 -0.00043169 6.97837e-19)
(1.02002 -0.000146361 0)
(1.01849 0.000793272 4.54522e-19)
(1.02154 -0.00197437 -1.02973e-18)
(1.02224 0.00420245 5.00337e-19)
(1.02043 0.0110573 -1.04806e-18)
(1.0214 0.0104534 0)
(1.02074 0.0107084 -2.18269e-19)
(1.01601 0.00759613 5.47621e-19)
(1.01676 0.0103434 -2.73178e-19)
(1.01745 0.0096875 2.01238e-19)
(0.0316912 1.31098 0)
(0.0356372 1.34386 0)
(0.0401843 1.31161 0)
(0.044785 1.27434 0)
(0.0707896 1.37222 6.00585e-20)
(0.0771684 1.34535 -1.063e-20)
(0.109929 1.50031 -4.12083e-20)
(0.0932467 1.34957 2.27051e-20)
(0.0343251 1.4431 -6.60501e-20)
(0.0384817 1.4356 5.13709e-20)
(0.0621645 1.35508 -6.67279e-21)
(0.0549222 1.35621 -2.82483e-20)
(0.0475396 1.33283 -4.47305e-21)
(0.040135 1.35425 -7.27869e-21)
(0.109504 2.37881 -2.02738e-19)
(0.0971662 2.42438 0)
(0.173991 2.05309 1.29291e-19)
(0.112317 1.7104 6.24078e-20)
(0.232217 2.04674 -1.05853e-19)
(0.207594 2.44067 0)
(0.267563 2.39177 -6.60519e-19)
(0.30639 2.38964 4.68474e-19)
(0.23429 2.00609 -2.94728e-19)
(0.15606 2.16878 1.91448e-19)
(0.146182 2.28267 0)
(0.0181937 1.87688 -7.05203e-20)
(-0.00514444 2.4089 -1.30986e-19)
(0.00155015 2.16006 0)
(0.0121686 2.46743 -1.42051e-20)
(0.0268552 2.31146 4.68945e-20)
(0.0211748 1.39048 4.32013e-21)
(0.0148578 1.37632 -7.17965e-20)
(0.0151068 1.38118 1.90476e-20)
(0.0211788 1.37907 2.44313e-20)
(0.0268078 1.40844 0)
(0.0107834 1.36375 0)
(0.00583406 1.27898 3.07741e-20)
(0.00280322 1.35321 -1.05247e-20)
(0.0107553 1.35068 0)
(0.0101973 1.27786 1.96161e-20)
(0.0063819 1.19232 -4.14129e-20)
(1.03994 0.0109168 0)
(1.04621 0.00722577 -7.33188e-20)
(1.03868 0.0205145 -5.28018e-19)
(1.04787 0.0194378 0)
(1.05136 0.0193562 0)
(1.03641 0.0108482 -6.64408e-21)
(1.03097 0.0107091 8.46706e-19)
(1.03196 0.0157855 1.02763e-18)
(1.02596 0.0198105 0)
(1.02324 0.0202382 0)
(1.03525 0.0241816 5.26871e-19)
(1.02632 0.0255692 0)
(1.02461 0.0256253 0)
(-0.0322276 2.02963 0)
(0.00250644 1.65367 -7.21693e-21)
(-0.0144598 1.77034 -1.92934e-20)
(0.00434246 1.36039 0)
(-0.0130071 1.55836 2.47227e-20)
(0.00205858 1.45564 -1.65447e-20)
(0.0193439 1.38049 0)
(0.391221 1.6705 0)
(0.367833 1.2974 -1.55936e-19)
(0.304709 1.34214 0)
(0.423845 1.29559 1.12197e-19)
(0.467298 1.45352 0)
(0.448547 1.39948 -2.21131e-20)
(1.03503 2.68652 -1.6446e-20)
(0.964798 2.4092 -9.66491e-19)
(0.914578 2.18929 1.10638e-18)
(0.848722 2.3734 2.54451e-19)
(0.846431 2.49703 0)
(0.916499 2.49355 0)
(0.926667 2.37166 0)
(0.905059 2.35803 -9.8873e-19)
(0.689088 2.46536 -4.36802e-19)
(0.800836 2.45587 -1.06505e-19)
(0.811252 2.4297 8.1233e-20)
(0.694085 2.39028 0)
(0.798317 2.38559 0)
(0.757227 2.39817 -3.81884e-19)
(0.768719 2.4869 0)
(0.611825 1.09888 0)
(0.4827 0.928095 -5.44006e-19)
(0.549492 0.963019 -3.45614e-20)
(0.518703 1.05489 0)
(0.519533 1.00494 8.16912e-19)
(0.771613 0.879767 -1.49586e-19)
(0.781098 1.01549 0)
(0.754837 0.974045 2.22269e-19)
(0.641528 1.03501 0)
(0.64599 0.943558 0)
(1.16422 2.76313 -2.59292e-19)
(1.14182 2.82685 -1.1743e-19)
(0.931398 2.34761 1.34299e-19)
(0.899241 2.32531 -9.42596e-20)
(1.12897 2.73561 0)
(1.08237 2.70567 1.13463e-19)
(1.08886 2.48692 -3.40657e-19)
(0.982691 2.2342 -3.03586e-20)
(0.495437 1.35485 0)
(0.508552 1.07431 -1.40956e-19)
(0.561555 1.16396 0)
(0.860549 0.218211 0)
(0.789871 0.169238 0)
(0.736458 0.137972 0)
(0.855907 0.222114 -6.96044e-19)
(0.765002 0.209381 4.07447e-19)
(0.934391 0.0736535 -4.38689e-19)
(0.949302 0.119576 0)
(0.928552 0.1302 1.88063e-19)
(0.868915 0.10717 7.54087e-19)
(0.842451 0.0649745 -4.72002e-19)
(1.16191 3.36146 -7.02033e-19)
(1.20943 3.28081 0)
(1.16049 3.38937 -1.45243e-18)
(0.64802 3.55018 1.23299e-18)
(0.872936 3.11747 4.85839e-20)
(0.514177 0.853113 6.33734e-19)
(0.43133 0.846701 0)
(0.339653 0.491292 -1.60383e-19)
(0.451226 0.681004 9.13225e-19)
(0.535643 0.461277 -2.2154e-19)
(0.509466 0.514269 2.52029e-19)
(0.661988 0.530933 5.49135e-19)
(0.692287 0.554367 0)
(0.644251 0.612643 0)
(0.602049 0.550687 0)
(0.978177 0.601232 1.19294e-19)
(0.898439 0.536483 -5.83448e-19)
(0.922294 0.570522 4.50285e-19)
(0.958849 0.505432 -4.52544e-19)
(1.06231 0.479428 0)
(1.06948 0.570407 -1.1641e-19)
(0.844059 0.385208 -9.25169e-19)
(0.847577 0.371553 -1.14515e-18)
(0.79569 0.379647 7.21092e-19)
(0.791516 0.350216 -7.36118e-19)
(0.841671 0.306024 -5.75534e-19)
(0.794101 0.305256 7.07035e-19)
(1.02669 0.00550556 -5.35109e-19)
(1.02644 0.0057297 1.09115e-18)
(1.02914 -0.000255508 6.77183e-19)
(1.03329 0.000670335 -8.15822e-19)
(1.03338 0.00824195 0)
(1.03008 0.00880172 -1.32508e-18)
(0.064441 1.64068 3.42347e-20)
(0.0462682 1.56842 0)
(0.0866175 1.69221 2.22333e-19)
(0.0966027 1.67528 -1.98522e-19)
(0.087562 1.5202 7.73291e-20)
(0.0880805 1.50096 0)
(0.00431322 1.68455 0)
(-0.00241535 1.48995 -1.3441e-20)
(-0.00606785 1.42621 1.20786e-20)
(-0.00711545 1.54998 1.21507e-21)
(-0.00429326 1.89146 -2.32687e-20)
(-0.0225184 1.94347 1.32347e-20)
(0.494763 1.37259 -3.43625e-19)
(0.489058 1.37578 3.75926e-19)
(0.445257 1.29176 -8.48797e-20)
(0.433403 1.29299 1.16552e-20)
(0.625517 1.29814 0)
(0.544346 1.38536 5.06276e-20)
(0.560266 1.39325 -4.92749e-20)
(0.455838 1.27764 8.19234e-20)
(0.509108 1.23237 0)
(0.561642 1.19765 0)
(0.655733 2.42435 6.41671e-19)
(0.670102 2.4611 1.349e-18)
(0.715609 2.473 -9.29203e-19)
(0.614987 2.44862 -2.15449e-19)
(0.561424 2.5406 3.05849e-19)
(0.511282 2.51395 -8.11921e-19)
(0.975589 2.37864 -6.19738e-19)
(1.01165 2.39278 0)
(0.921148 2.16763 -7.15231e-19)
(1.05254 2.68466 0)
(1.05463 2.6713 0)
(0.613191 2.27672 -1.37955e-19)
(1.04239 3.16433 1.12981e-19)
(0.913635 3.03437 -1.58415e-20)
(0.281979 0.915173 0)
(0.323498 0.776628 -3.33826e-19)
(0.481704 0.732038 -3.39498e-19)
(0.392184 2.02381 0)
(0.467799 2.78617 -3.38201e-20)
(0.424709 2.55018 0)
(0.686668 0.679754 -9.11473e-19)
(0.768394 0.680146 1.24814e-18)
(0.788814 0.622657 -1.23673e-18)
(0.669936 0.642382 -1.17721e-19)
(0.726126 0.5965 -4.89073e-19)
(1.00435 2.76786 -8.59071e-20)
(1.04117 2.82487 -1.99417e-19)
(0.641606 2.15501 7.01517e-19)
(0.597182 1.71821 -4.97663e-19)
(0.699964 1.90996 -4.45541e-19)
(0.98984 2.45104 -1.17918e-19)
(0.994524 2.44563 3.34426e-19)
(0.661735 1.85089 3.06058e-20)
(0.451869 1.33648 1.62726e-19)
)
;

boundaryField
{
    wall-4
    {
        type            noSlip;
    }
    velocity-inlet-5
    {
        type            fixedValue;
        value           uniform (1 0 0);
    }
    velocity-inlet-6
    {
        type            fixedValue;
        value           uniform (0 3 0);
    }
    pressure-outlet-7
    {
        type            zeroGradient;
    }
    wall-8
    {
        type            noSlip;
    }
    frontAndBackPlanes
    {
        type            empty;
    }
}


// ************************************************************************* //
