/*--------------------------------*- C++ -*----------------------------------*\
  =========                 |
  \\      /  F ield         | OpenFOAM: The Open Source CFD Toolbox
   \\    /   O peration     | Website:  https://openfoam.org
    \\  /    A nd           | Version:  9
     \\/     M anipulation  |
\*---------------------------------------------------------------------------*/
FoamFile
{
    format      ascii;
    class       volScalarField;
    location    "4";
    object      p;
}
// * * * * * * * * * * * * * * * * * * * * * * * * * * * * * * * * * * * * * //

dimensions      [0 2 -2 0 0 0 0];

internalField   nonuniform List<scalar> 
2200
(
0.688213
0.66759
0.652351
0.638419
0.625606
0.614628
0.605606
0.598565
0.593576
0.591878
0.592021
0.594022
0.599277
0.606466
0.615591
0.626638
0.639496
0.653457
0.668712
0.689337
0.616935
0.614299
0.614327
0.61255
0.609134
0.604657
0.599834
0.595273
0.591543
0.58902
0.58921
0.592043
0.595994
0.600709
0.605641
0.610191
0.613658
0.615463
0.61546
0.61811
0.579245
0.580668
0.584543
0.585895
0.586771
0.586678
0.585453
0.583498
0.581421
0.57978
0.57999
0.581966
0.584296
0.58644
0.587793
0.587969
0.587144
0.585821
0.581956
0.580539
0.568775
0.569667
0.571461
0.571998
0.572694
0.57313
0.573246
0.572955
0.572401
0.571923
0.572146
0.572987
0.573826
0.574327
0.574348
0.574005
0.573375
0.572874
0.571129
0.570255
0.566402
0.567047
0.568587
0.570003
0.57137
0.572259
0.572694
0.572758
0.572599
0.572469
0.572718
0.573307
0.573822
0.574028
0.573772
0.57301
0.571731
0.570359
0.568864
0.568216
0.56609
0.566524
0.567424
0.568316
0.569279
0.570078
0.57061
0.570904
0.571063
0.571183
0.571468
0.571905
0.572215
0.572301
0.57202
0.571368
0.57049
0.569611
0.568704
0.568244
0.561253
0.561273
0.561501
0.561748
0.562092
0.562463
0.562944
0.563442
0.563875
0.56428
0.56469
0.565053
0.565176
0.565056
0.564849
0.564653
0.564409
0.564219
0.563952
0.563941
0.554852
0.554838
0.554868
0.554922
0.555027
0.555176
0.555416
0.555762
0.556181
0.556687
0.557117
0.557533
0.55781
0.557988
0.558094
0.558129
0.558139
0.558156
0.558179
0.558212
0.549294
0.549305
0.54937
0.549464
0.549598
0.549782
0.550022
0.55033
0.550765
0.551378
0.552171
0.552732
0.553085
0.553284
0.553411
0.5535
0.553543
0.553563
0.553572
0.553567
0.543979
0.544009
0.544057
0.544133
0.544268
0.544483
0.544787
0.545195
0.545756
0.546514
0.547434
0.548174
0.548674
0.549011
0.549207
0.549319
0.549375
0.549396
0.549399
0.54938
0.538073
0.538095
0.538151
0.53825
0.538411
0.538648
0.539
0.539514
0.540228
0.541168
0.542271
0.54322
0.543897
0.544344
0.544625
0.544795
0.544893
0.544944
0.544967
0.544962
0.531862
0.531878
0.531945
0.53206
0.532245
0.532536
0.532975
0.533615
0.534515
0.535716
0.537082
0.538278
0.539149
0.539732
0.540112
0.540353
0.5405
0.540584
0.540625
0.540628
0.525441
0.525454
0.525524
0.525662
0.525892
0.526255
0.526806
0.527614
0.528756
0.530289
0.532036
0.533544
0.534637
0.535386
0.535883
0.536202
0.536396
0.536507
0.53656
0.536564
0.518702
0.51872
0.518805
0.518971
0.519255
0.519709
0.520405
0.52143
0.522883
0.524837
0.527059
0.528967
0.53035
0.531305
0.531941
0.532348
0.532598
0.53274
0.532809
0.532815
0.511514
0.511536
0.511642
0.511852
0.512212
0.51279
0.513676
0.514986
0.516839
0.51933
0.522154
0.524568
0.526318
0.527528
0.528334
0.52885
0.529168
0.529349
0.529438
0.529446
0.503754
0.503782
0.503919
0.504189
0.504652
0.505393
0.506531
0.508209
0.51058
0.513759
0.517346
0.520401
0.52261
0.524137
0.525155
0.525807
0.526208
0.526437
0.526549
0.52656
0.495259
0.495296
0.495474
0.495824
0.496424
0.497383
0.498851
0.501012
0.504054
0.508114
0.512667
0.516527
0.519312
0.521235
0.522514
0.523335
0.523838
0.524127
0.524267
0.524281
0.485806
0.485858
0.486092
0.486552
0.487336
0.488584
0.490491
0.493286
0.4972
0.502388
0.50816
0.513026
0.516527
0.518941
0.520546
0.521574
0.522204
0.522566
0.522742
0.522758
0.475086
0.475155
0.475466
0.476074
0.477109
0.478752
0.48125
0.484888
0.489942
0.496574
0.503873
0.509987
0.514376
0.517399
0.519408
0.520696
0.521484
0.521936
0.522155
0.522174
0.46266
0.462766
0.463196
0.46402
0.465412
0.467601
0.470907
0.475676
0.482222
0.490689
0.499883
0.50753
0.513009
0.516785
0.519296
0.520905
0.521892
0.522459
0.522734
0.522758
0.447972
0.448108
0.44869
0.44982
0.451716
0.454694
0.45914
0.465457
0.473962
0.484749
0.496261
0.505764
0.512573
0.517283
0.520428
0.522452
0.523693
0.524404
0.524744
0.524769
0.429886
0.430163
0.431082
0.432733
0.435447
0.439603
0.445683
0.454112
0.465166
0.478833
0.493129
0.504839
0.513246
0.5191
0.523043
0.525601
0.527185
0.528102
0.528555
0.528604
0.407576
0.407899
0.409204
0.4117
0.41568
0.421688
0.430178
0.441518
0.455859
0.473033
0.490587
0.504856
0.515147
0.522405
0.527384
0.530678
0.53275
0.533955
0.534537
0.534572
0.377659
0.378632
0.381189
0.385322
0.391598
0.400515
0.412475
0.42771
0.446162
0.467474
0.488725
0.505875
0.518328
0.527258
0.533536
0.537827
0.540639
0.542373
0.543292
0.543445
0.338511
0.340088
0.344434
0.351843
0.362232
0.375773
0.392715
0.413031
0.436435
0.46244
0.487722
0.507981
0.522817
0.533688
0.541591
0.547249
0.551194
0.55377
0.555204
0.555306
0.286074
0.287518
0.297045
0.310826
0.327651
0.347783
0.37132
0.397839
0.42691
0.457991
0.487428
0.510856
0.528196
0.541205
0.551007
0.558371
0.563899
0.567942
0.57045
0.570279
0.210388
0.219495
0.240945
0.264723
0.290138
0.318519
0.3495
0.382686
0.417713
0.454123
0.487972
0.514937
0.535301
0.551109
0.563635
0.573719
0.581949
0.589027
0.593918
0.59526
0.120096
0.150377
0.184605
0.218169
0.253403
0.29055
0.329
0.368766
0.409561
0.451077
0.489274
0.519828
0.543271
0.56193
0.577184
0.589901
0.600565
0.608989
0.617856
0.622474
0.0647221
0.0945447
0.134207
0.176377
0.220491
0.26537
0.310706
0.356537
0.402445
0.448194
0.489665
0.522649
0.547955
0.568101
0.584494
0.598008
0.609246
0.618324
0.627052
0.631385
0.0271014
0.0559159
0.0982536
0.144706
0.194047
0.244175
0.294932
0.345696
0.395736
0.444695
0.488277
0.522526
0.548616
0.569221
0.585821
0.599337
0.610462
0.61961
0.627179
0.630966
-0.000955355
0.0280855
0.0732147
0.122167
0.174203
0.22762
0.282217
0.336622
0.389719
0.440841
0.485467
0.520047
0.546202
0.566738
0.58319
0.596511
0.607356
0.616387
0.62362
0.627514
-0.0226806
0.00612424
0.0542488
0.105248
0.159216
0.21517
0.272568
0.329591
0.384766
0.437043
0.481734
0.515887
0.541637
0.561852
0.578051
0.591165
0.601797
0.610708
0.617586
0.621796
-0.0405183
-0.0116746
0.0383957
0.0913699
0.147285
0.205617
0.265337
0.324352
0.380855
0.433404
0.477269
0.510329
0.535312
0.555053
0.570949
0.583856
0.594313
0.603146
0.609783
0.613789
-0.0562762
-0.0263421
0.0248242
0.079652
0.137464
0.19804
0.259848
0.320508
0.37782
0.429909
0.472123
0.503462
0.527374
0.546565
0.562186
0.574936
0.585268
0.594038
0.600604
0.604344
-0.0701869
-0.0389638
0.0132008
0.0697434
0.129349
0.192005
0.255733
0.317829
0.375586
0.426584
0.466324
0.495291
0.517857
0.536529
0.552025
0.564771
0.57509
0.583871
0.590483
0.594148
-0.0825576
-0.0500926
0.00309075
0.0612638
0.122617
0.187254
0.252793
0.316206
0.374162
0.423508
0.459886
0.485732
0.506655
0.524954
0.540655
0.553709
0.56423
0.573132
0.579978
0.583623
-0.0939255
-0.060189
-0.00599902
0.0538001
0.116919
0.183516
0.250841
0.315556
0.373584
0.420801
0.452817
0.474596
0.493478
0.511686
0.52819
0.542128
0.553296
0.562571
0.569738
0.573485
-0.104735
-0.0696834
-0.0144695
0.0469955
0.111928
0.180508
0.249677
0.315776
0.373879
0.418626
0.445171
0.461643
0.477842
0.496306
0.51457
0.530346
0.542845
0.552805
0.560616
0.564629
-0.115277
-0.0788959
-0.0226028
0.0405684
0.107369
0.177983
0.249101
0.316743
0.375057
0.417155
0.437046
0.446515
0.458929
0.478047
0.499518
0.518886
0.5339
0.545647
0.553768
0.558323
-0.125736
-0.0880435
-0.0305915
0.0343201
0.103041
0.175757
0.248953
0.318347
0.377139
0.416591
0.42875
0.42908
0.435851
0.455789
0.482812
0.508054
0.526836
0.542272
0.55133
0.556713
-0.13624
-0.0972585
-0.0385738
0.0281011
0.0987806
0.173668
0.249075
0.320452
0.380094
0.417075
0.420515
0.408906
0.406848
0.427714
0.462692
0.49896
0.524902
0.544022
0.55373
0.559504
-0.146879
-0.106632
-0.046655
0.0217881
0.0944488
0.171568
0.249316
0.32292
0.383877
0.418807
0.412918
0.386545
0.371142
0.392711
0.439573
0.490327
0.527101
0.55156
0.564765
0.572804
-0.157699
-0.116221
-0.0549118
0.0153004
0.0899512
0.169351
0.249566
0.325639
0.38842
0.421931
0.406288
0.361504
0.32607
0.347741
0.411093
0.485582
0.536634
0.568345
0.585532
0.592421
-0.168724
-0.126038
-0.0633724
0.00860105
0.0852315
0.166929
0.2497
0.328466
0.39356
0.426472
0.400964
0.333979
0.269733
0.289072
0.372408
0.486352
0.558811
0.60189
0.622317
0.628011
-0.179961
-0.136082
-0.0720397
0.00167979
0.0802477
0.164216
0.249592
0.331271
0.399187
0.432608
0.397806
0.303957
0.203263
0.210137
0.324595
0.485387
0.589567
0.65243
0.67712
0.67557
-0.191385
-0.146318
-0.0808947
-0.00546125
0.0749854
0.161171
0.249177
0.333964
0.405191
0.44024
0.396835
0.267726
0.123672
0.10555
0.256178
0.480275
0.637228
0.723666
0.747545
0.683416
-0.20287
-0.156721
-0.0899274
-0.0128415
0.0694201
0.157755
0.248407
0.336455
0.411513
0.449495
0.399559
0.232056
0.0185259
-0.0460806
0.143525
0.469958
0.697366
0.844079
0.940448
1.02019
-0.21432
-0.167337
-0.0992129
-0.0205511
0.0634071
0.153763
0.247012
0.338428
0.41794
0.460705
0.407927
0.195122
-0.118611
-0.281299
-0.0317567
0.388571
0.670486
0.803867
0.820528
0.805471
-0.225548
-0.178092
-0.108704
-0.0285451
0.0569237
0.149147
0.244889
0.339702
0.424093
0.473316
0.423384
0.157919
-0.31107
-0.647508
-0.330057
0.175661
0.456458
0.541662
0.500663
0.486606
-0.236598
-0.188827
-0.118312
-0.0368256
0.04993
0.143907
0.242008
0.340137
0.429601
0.486572
0.44349
0.127999
-0.507787
-1.08451
-0.754823
-0.186658
0.0641835
0.121092
0.109278
0.156134
-0.247642
-0.199502
-0.127988
-0.0453978
0.0424556
0.138072
0.238299
0.339532
0.434062
0.499949
0.462244
0.137861
-0.617849
-1.32573
-1.10578
-0.6124
-0.349438
-0.260251
-0.22191
-0.14081
-0.259057
-0.210475
-0.138064
-0.0545063
0.0343426
0.131451
0.233573
0.337704
0.437112
0.512478
0.483564
0.181342
-0.585441
-1.26243
-1.12557
-0.776105
-0.615986
-0.55041
-0.54465
-0.474216
-0.27152
-0.222425
-0.149154
-0.0646434
0.0252537
0.123783
0.227708
0.33457
0.438572
0.523202
0.513604
0.248851
-0.427
-1.00578
-0.945936
-0.78721
-0.783359
-0.810763
-0.859086
-0.814309
-0.285446
-0.235773
-0.161588
-0.076057
0.015056
0.115016
0.220698
0.330084
0.438247
0.53122
0.543562
0.330851
-0.204813
-0.693184
-0.763686
-0.784866
-0.909698
-1.04898
-1.18526
-1.19127
-0.300987
-0.250678
-0.175416
-0.0887599
0.00369529
0.105093
0.212451
0.324061
0.435656
0.535207
0.566553
0.415587
0.0253371
-0.396456
-0.624609
-0.803187
-1.04205
-1.30929
-1.64664
-1.78278
-0.31837
-0.267293
-0.190726
-0.102854
-0.00901287
0.093824
0.202743
0.316181
0.430311
0.534579
0.581634
0.488886
0.221364
-0.141479
-0.496957
-0.802885
-1.13256
-1.52862
-2.23997
-2.86499
-0.337925
-0.285837
-0.207741
-0.118518
-0.0232427
0.0810442
0.191384
0.306292
0.422232
0.529847
0.589185
0.540394
0.352845
0.0398266
-0.377507
-0.769121
-1.16108
-1.53556
-2.35243
-4.40548
-0.359955
-0.306618
-0.226774
-0.13604
-0.03926
0.0664896
0.178182
0.294368
0.411629
0.521776
0.590508
0.572902
0.436862
0.160691
-0.26581
-0.715289
-1.11939
-1.32624
-1.47753
-2.07391
-0.384675
-0.329977
-0.248264
-0.155924
-0.0575683
0.0496491
0.162642
0.279901
0.397971
0.509839
0.585853
0.58971
0.490369
0.246781
-0.133502
-0.588688
-1.0222
-1.23947
-1.26224
-1.40052
-0.412316
-0.356132
-0.272455
-0.178394
-0.0783641
0.0303365
0.144545
0.262621
0.381066
0.494129
0.575975
0.594028
0.522256
0.324865
0.0127968
-0.397806
-0.840889
-1.15907
-1.24151
-1.25325
-0.443138
-0.385145
-0.299382
-0.203512
-0.101718
0.00843838
0.123808
0.242592
0.361335
0.475389
0.562147
0.591861
0.541946
0.392638
0.133144
-0.202105
-0.589371
-0.919375
-0.996883
-0.946773
-0.477306
-0.416973
-0.329091
-0.231275
-0.127654
-0.0159335
0.10072
0.220351
0.339676
0.454653
0.545896
0.587731
0.56067
0.449465
0.244562
0.00479335
-0.242115
-0.469476
-0.519782
-0.482715
-0.514895
-0.451536
-0.361591
-0.261624
-0.155952
-0.0423784
0.0757296
0.196444
0.316636
0.433446
0.529499
0.582737
0.584075
0.521083
0.394003
0.249591
0.144294
0.0685424
0.0555706
0.0799322
-0.555531
-0.488639
-0.396673
-0.294087
-0.186113
-0.0703813
0.0493206
0.171478
0.293334
0.412538
0.514739
0.580207
0.608904
0.601012
0.560354
0.501037
0.49042
0.485973
0.492049
0.507645
-0.597538
-0.528146
-0.433664
-0.327896
-0.217478
-0.0993995
0.0221761
0.146452
0.271109
0.392884
0.502702
0.581689
0.630803
0.661454
0.678887
0.678683
0.700524
0.726422
0.7487
0.761652
-0.638644
-0.569153
-0.47138
-0.362243
-0.249397
-0.128867
-0.00508413
0.121732
0.249355
0.375812
0.492955
0.583396
0.64829
0.699911
0.747284
0.767739
0.807117
0.840803
0.866277
0.880786
-0.679129
-0.60982
-0.508291
-0.395942
-0.280949
-0.158048
-0.031842
0.0975789
0.227655
0.360097
0.483326
0.583243
0.660539
0.722722
0.776903
0.818287
0.859065
0.89388
0.91956
0.93447
-0.717525
-0.649122
-0.542923
-0.427979
-0.310989
-0.185834
-0.057081
0.0750367
0.208056
0.34498
0.474285
0.582204
0.667425
0.736293
0.794348
0.840908
0.882975
0.916722
0.943147
0.957288
-0.751991
-0.685206
-0.573479
-0.45705
-0.338222
-0.210676
-0.0795831
0.0549135
0.191342
0.331305
0.466363
0.579462
0.668743
0.741431
0.801506
0.850046
0.89089
0.923781
0.95108
0.964469
-0.779329
-0.713127
-0.599112
-0.481967
-0.360952
-0.231115
-0.0985724
0.0375332
0.17647
0.319237
0.45706
0.572669
0.664473
0.738905
0.799674
0.848658
0.888938
0.921374
0.949824
0.962395
-0.796468
-0.730238
-0.617288
-0.499594
-0.377168
-0.245767
-0.113234
0.0232433
0.163032
0.307052
0.445559
0.562323
0.654892
0.729462
0.790161
0.839359
0.8791
0.911398
0.939312
0.951981
-0.799676
-0.734978
-0.623733
-0.506034
-0.385077
-0.25354
-0.122546
0.0127971
0.151318
0.29431
0.431685
0.547512
0.639248
0.712953
0.772816
0.821672
0.861067
0.893065
0.920341
0.933146
-0.784016
-0.72228
-0.613147
-0.498955
-0.379879
-0.25312
-0.125909
0.00630189
0.141104
0.280636
0.414407
0.527069
0.616215
0.688265
0.746378
0.794571
0.833531
0.865363
0.892456
0.905558
-0.743739
-0.686817
-0.582795
-0.474928
-0.36117
-0.242139
-0.121385
0.00396776
0.132277
0.265518
0.393057
0.500082
0.584722
0.653357
0.709171
0.755471
0.793632
0.8249
0.851677
0.865249
-0.670532
-0.620855
-0.526876
-0.429503
-0.326791
-0.218643
-0.108404
0.00661004
0.125177
0.248741
0.366872
0.465497
0.543248
0.606225
0.657789
0.701004
0.7371
0.76747
0.793475
0.807952
-0.559751
-0.520098
-0.442201
-0.36013
-0.273546
-0.181172
-0.08577
0.0152448
0.120552
0.230844
0.33622
0.423475
0.491493
0.545905
0.590075
0.626778
0.657358
0.683304
0.705242
0.718985
-0.39423
-0.37205
-0.324442
-0.266196
-0.201837
-0.13139
-0.0547286
0.0292453
0.11892
0.214346
0.306293
0.382018
0.440047
0.485285
0.520821
0.549027
0.571413
0.589181
0.602935
0.611679
-0.211559
-0.204205
-0.185539
-0.154429
-0.118062
-0.0726502
-0.0171744
0.0477395
0.120762
0.201345
0.280526
0.345833
0.395278
0.43282
0.461088
0.482098
0.497194
0.507809
0.514168
0.517734
-0.0817736
-0.0782822
-0.0714853
-0.055988
-0.0400308
-0.0130861
0.0235806
0.0702227
0.126558
0.191928
0.25794
0.312529
0.353145
0.382848
0.403957
0.418397
0.427645
0.433506
0.43618
0.437476
-0.00327808
-0.00195098
0.00164845
0.010713
0.0186329
0.03562
0.0594695
0.0920871
0.134243
0.18559
0.239025
0.283469
0.316013
0.339042
0.354709
0.364935
0.371203
0.375185
0.376992
0.377903
0.0420051
0.0417178
0.0432417
0.0489431
0.0547652
0.0671442
0.084201
0.108077
0.139922
0.179919
0.22249
0.258131
0.284056
0.302191
0.314442
0.322474
0.327445
0.330601
0.332007
0.332588
0.0687727
0.0682656
0.069026
0.0724034
0.0768419
0.0859977
0.0989668
0.117378
0.142121
0.173584
0.207471
0.235997
0.256777
0.271346
0.281227
0.287705
0.291654
0.294012
0.294989
0.295321
0.086298
0.086153
0.0868013
0.0889168
0.092175
0.0986422
0.108328
0.122485
0.141828
0.166725
0.193773
0.216632
0.233299
0.244962
0.252813
0.257884
0.26093
0.262685
0.263441
0.263707
0.097939
0.0980153
0.0984509
0.100012
0.102544
0.107196
0.114369
0.125082
0.140047
0.159648
0.181178
0.199432
0.212706
0.221932
0.228083
0.232017
0.234383
0.235741
0.236355
0.236581
0.104586
0.104693
0.105148
0.106324
0.108331
0.111836
0.117279
0.12544
0.136989
0.152338
0.169384
0.183881
0.194396
0.201674
0.206511
0.209599
0.211466
0.212534
0.213021
0.213203
0.107568
0.10767
0.108036
0.108934
0.110516
0.113214
0.117426
0.123734
0.132703
0.144723
0.158178
0.169655
0.177976
0.18373
0.187554
0.189994
0.19147
0.192308
0.192689
0.19283
0.107842
0.107931
0.108222
0.108912
0.110144
0.112225
0.115492
0.120393
0.12739
0.136817
0.147431
0.156507
0.163088
0.167638
0.170659
0.172583
0.173745
0.174403
0.174701
0.174811
0.10606
0.106135
0.106366
0.106902
0.107863
0.109473
0.112007
0.115818
0.12128
0.128677
0.137044
0.144213
0.149411
0.153002
0.155383
0.156897
0.157812
0.158329
0.158562
0.158647
0.102674
0.102734
0.102916
0.103335
0.104085
0.105336
0.107308
0.110276
0.114542
0.120343
0.126932
0.132586
0.136685
0.139515
0.141391
0.142583
0.143303
0.143709
0.143892
0.143958
0.0980345
0.0980823
0.0982258
0.098553
0.0991385
0.100114
0.101652
0.103967
0.107303
0.11185
0.117032
0.121485
0.124714
0.126943
0.12842
0.129359
0.129925
0.130244
0.130386
0.130438
0.0924194
0.092457
0.0925692
0.0928243
0.0932811
0.0940422
0.0952423
0.0970509
0.0996587
0.103222
0.107293
0.110797
0.113338
0.115092
0.116254
0.116991
0.117436
0.117685
0.117796
0.117836
0.0860477
0.0860773
0.0861651
0.0863641
0.0867205
0.0873143
0.0882511
0.0896634
0.091702
0.0944924
0.0976873
0.10044
0.102437
0.103814
0.104726
0.105305
0.105653
0.105848
0.105935
0.105966
0.0790811
0.0791041
0.0791723
0.0793272
0.079605
0.0800677
0.0807977
0.0818991
0.0834907
0.085673
0.0881761
0.0903344
0.0918993
0.0929786
0.0936926
0.0941449
0.0944169
0.0945697
0.0946371
0.0946616
0.0716525
0.0716705
0.0717238
0.0718446
0.0720609
0.0724212
0.0729898
0.0738479
0.0750886
0.0767913
0.0787464
0.0804332
0.0816561
0.0824994
0.0830573
0.0834107
0.0836231
0.0837424
0.0837946
0.0838134
0.0638693
0.0638831
0.063924
0.0640173
0.0641846
0.0644635
0.064904
0.0655695
0.0665328
0.0678562
0.0693771
0.0706893
0.0716405
0.0722963
0.0727301
0.0730049
0.0731698
0.0732623
0.0733025
0.073317
0.0557982
0.0558086
0.0558398
0.0559111
0.0560395
0.0562541
0.0565935
0.0571064
0.0578487
0.0588688
0.060043
0.0610579
0.0617942
0.0623022
0.0626382
0.0628509
0.0629783
0.0630494
0.0630796
0.0630909
0.0475241
0.0475325
0.0475571
0.0476125
0.0477112
0.0478755
0.0481347
0.0485263
0.0490934
0.049873
0.0507697
0.0515441
0.0521055
0.0524923
0.0527476
0.0529085
0.0530045
0.0530577
0.0530803
0.0530881
0.0390827
0.0390879
0.0391044
0.0391438
0.0392158
0.0393369
0.039529
0.0398196
0.0402405
0.0408209
0.041492
0.0420728
0.0424937
0.0427836
0.042975
0.0430959
0.0431682
0.0432083
0.0432251
0.0432312
0.0305091
0.0305134
0.0305267
0.030556
0.0306086
0.0306962
0.0308348
0.0310443
0.0313472
0.0317637
0.0322457
0.0326657
0.0329707
0.0331807
0.0333189
0.0334057
0.0334568
0.0334844
0.0334948
0.0334988
0.0218665
0.0218702
0.0218791
0.021899
0.0219346
0.0219937
0.0220868
0.0222274
0.0224318
0.0227126
0.023033
0.0233102
0.0235111
0.0236499
0.0237416
0.0237993
0.0238339
0.0238534
0.0238623
0.0238656
0.0131485
0.0131499
0.0131526
0.0131611
0.0131781
0.0132077
0.0132559
0.0133298
0.0134387
0.0135914
0.013774
0.013935
0.0140519
0.0141331
0.0141882
0.0142244
0.0142475
0.0142616
0.0142689
0.0142723
0.00437428
0.00437323
0.00437308
0.00437534
0.00437926
0.00438613
0.00439812
0.00441852
0.00445245
0.00450703
0.00457255
0.0046254
0.00466461
0.00469212
0.00471084
0.00472317
0.00473088
0.00473546
0.00473683
0.00473827
-2.04966
-1.05883
-0.774136
-0.421033
-0.13701
0.135728
0.394742
0.658055
0.936956
1.06207
-0.908806
-0.377726
-0.291339
-0.0280596
0.1753
0.377964
0.565531
0.729922
0.811385
0.738213
-0.333253
-0.0386673
0.0550218
0.231673
0.379105
0.514804
0.632241
0.72375
0.748586
0.740349
0.0330785
0.22128
0.293497
0.41415
0.513007
0.606707
0.681057
0.731482
0.746817
0.75836
0.29145
0.408476
0.458547
0.547138
0.614606
0.680647
0.729817
0.762263
0.771872
0.798976
0.460523
0.554429
0.59466
0.66048
0.711509
0.755609
0.78809
0.813276
0.82482
0.848268
0.609724
0.681622
0.716684
0.76193
0.799619
0.828584
0.851784
0.869581
0.878172
0.901876
0.7376
0.786412
0.815824
0.843518
0.868465
0.887076
0.902583
0.917538
0.928261
0.951491
0.841582
0.871897
0.88873
0.904962
0.920999
0.936345
0.951358
0.967112
0.980888
1.00483
0.92343
0.944106
0.956166
0.969824
0.985373
1.00195
1.01764
1.03581
1.05022
1.07072
1.00846
1.02782
1.04363
1.0561
1.07072
1.08616
1.09966
1.11347
1.12284
1.13941
1.10872
1.12294
1.13856
1.15051
1.1611
1.17127
1.1801
1.1874
1.19159
1.20357
1.20528
1.21326
1.2255
1.23549
1.24249
1.24821
1.25486
1.26107
1.26313
1.27225
1.29651
1.30075
1.30931
1.31501
1.31881
1.32321
1.32962
1.33712
1.34104
1.35146
1.407
1.39542
1.38935
1.38443
1.38227
1.38435
1.39066
1.40281
1.41712
1.44456
1.5333
1.47798
1.44625
1.42738
1.41875
1.41868
1.42769
1.44756
1.47877
1.54851
)
;

boundaryField
{
    wall-4
    {
        type            zeroGradient;
    }
    pressure-outlet-7
    {
        type            fixedValue;
        value           uniform 0;
    }
    velocity-inlet-6
    {
        type            zeroGradient;
    }
    velocity-inlet-5
    {
        type            zeroGradient;
    }
    frontAndBackPlanes
    {
        type            empty;
    }
}


// ************************************************************************* //
