/*--------------------------------*- C++ -*----------------------------------*\
  =========                 |
  \\      /  F ield         | OpenFOAM: The Open Source CFD Toolbox
   \\    /   O peration     | Website:  https://openfoam.org
    \\  /    A nd           | Version:  9
     \\/     M anipulation  |
\*---------------------------------------------------------------------------*/
FoamFile
{
    format      ascii;
    class       volScalarField;
    location    "2";
    object      p;
}
// * * * * * * * * * * * * * * * * * * * * * * * * * * * * * * * * * * * * * //

dimensions      [0 2 -2 0 0 0 0];

internalField   nonuniform List<scalar> 
2200
(
1.16575
1.14625
1.13255
1.11965
1.10835
1.09863
1.09037
1.08358
1.07847
1.07551
1.07564
1.07883
1.08411
1.09101
1.09936
1.10913
1.12045
1.13338
1.1471
1.16661
1.0672
1.06617
1.06755
1.06504
1.06107
1.05599
1.05057
1.0455
1.0414
1.03896
1.03912
1.04182
1.04612
1.05133
1.05684
1.06199
1.066
1.06852
1.06716
1.06819
1.02551
1.02434
1.02396
1.02289
1.02153
1.01959
1.01712
1.01439
1.01189
1.01028
1.01047
1.01236
1.01506
1.01792
1.02048
1.02249
1.0239
1.02499
1.02538
1.02654
1.02709
1.0275
1.02878
1.02905
1.02883
1.02803
1.02673
1.02511
1.02352
1.02247
1.02267
1.02408
1.02594
1.02774
1.02915
1.03004
1.03031
1.03008
1.02883
1.02841
1.03266
1.03354
1.03429
1.03471
1.03486
1.03464
1.03408
1.03328
1.03244
1.03191
1.03213
1.03311
1.03427
1.03529
1.03599
1.03629
1.03619
1.0358
1.03507
1.03424
1.02497
1.02504
1.02518
1.02539
1.02562
1.02572
1.02561
1.02537
1.02506
1.0249
1.02524
1.02595
1.02667
1.02721
1.02746
1.02747
1.0273
1.0271
1.02696
1.02688
1.01515
1.01514
1.01512
1.0151
1.01508
1.01504
1.01506
1.01505
1.01499
1.01505
1.01529
1.01584
1.01641
1.01685
1.01714
1.01731
1.0174
1.01746
1.01749
1.01751
1.00737
1.00737
1.00738
1.0074
1.00744
1.0075
1.00752
1.00751
1.0076
1.00784
1.00839
1.00896
1.00945
1.00981
1.01005
1.01021
1.0103
1.01035
1.01038
1.01039
1.00027
1.00028
1.0003
1.00031
1.00035
1.00042
1.0005
1.00063
1.00088
1.00129
1.00196
1.00262
1.00315
1.00353
1.00379
1.00396
1.00406
1.0041
1.00411
1.0041
0.992738
0.992751
0.992783
0.992836
0.992904
0.993006
0.993172
0.993435
0.993842
0.994449
0.99525
0.996014
0.996597
0.997011
0.997289
0.997462
0.997561
0.997611
0.99763
0.997625
0.985019
0.985028
0.98506
0.985124
0.985233
0.985402
0.985662
0.986054
0.986632
0.987452
0.988456
0.989364
0.990039
0.990512
0.990826
0.991024
0.991142
0.991205
0.991233
0.991233
0.977171
0.977178
0.977217
0.977299
0.97744
0.977668
0.978024
0.978558
0.979332
0.980408
0.981679
0.982797
0.983618
0.984188
0.984566
0.984805
0.984948
0.985026
0.98506
0.98506
0.969107
0.969115
0.969163
0.969264
0.969445
0.969744
0.970211
0.970913
0.971926
0.973318
0.974935
0.976336
0.977356
0.978061
0.978527
0.978822
0.978998
0.979094
0.979137
0.979138
0.960728
0.960737
0.960799
0.96093
0.961164
0.961552
0.96216
0.963073
0.964384
0.966176
0.968235
0.970004
0.971284
0.972166
0.972748
0.973115
0.973335
0.973456
0.973511
0.973512
0.951943
0.951955
0.952034
0.952205
0.952509
0.953013
0.953801
0.954982
0.956674
0.958975
0.9616
0.96384
0.965454
0.966563
0.967294
0.967756
0.968032
0.968184
0.968252
0.968254
0.942628
0.942644
0.942748
0.94297
0.943366
0.944021
0.945043
0.946572
0.948754
0.951706
0.955053
0.957892
0.959931
0.961329
0.96225
0.96283
0.963178
0.963369
0.963455
0.963457
0.93262
0.932641
0.932778
0.933069
0.933588
0.934441
0.935772
0.937754
0.940572
0.944362
0.948626
0.952223
0.954797
0.956559
0.957717
0.958447
0.958884
0.959124
0.959232
0.959234
0.921697
0.921728
0.92191
0.922295
0.922977
0.924097
0.925838
0.928419
0.932065
0.936932
0.942358
0.946906
0.950151
0.952368
0.953824
0.954741
0.955289
0.95559
0.955725
0.955726
0.909555
0.909599
0.909844
0.910359
0.911268
0.912752
0.915047
0.918428
0.923162
0.929411
0.936301
0.942034
0.946113
0.948897
0.950724
0.951875
0.952562
0.952939
0.953107
0.953108
0.895772
0.895838
0.896176
0.896877
0.898104
0.900097
0.903157
0.90762
0.913789
0.921809
0.930523
0.937717
0.942826
0.946314
0.948605
0.950048
0.950909
0.951382
0.951593
0.951593
0.879712
0.879811
0.880287
0.881268
0.882969
0.885705
0.889854
0.895806
0.903873
0.914146
0.925103
0.934074
0.940442
0.944803
0.94768
0.949498
0.950586
0.951184
0.951449
0.951449
0.860425
0.860609
0.861337
0.862772
0.865216
0.869078
0.874811
0.882831
0.8934
0.906495
0.920155
0.931244
0.93913
0.94457
0.948191
0.950501
0.951891
0.952659
0.953005
0.953009
0.836453
0.836749
0.837871
0.840122
0.843827
0.849508
0.857626
0.868539
0.882374
0.898933
0.915766
0.92931
0.938992
0.945761
0.950357
0.953353
0.955197
0.956235
0.9567
0.956713
0.804797
0.805703
0.808002
0.811869
0.817882
0.826511
0.838161
0.853021
0.870993
0.891659
0.912087
0.928383
0.940117
0.948478
0.954312
0.958254
0.96079
0.962294
0.963065
0.963184
0.762891
0.764582
0.76867
0.776005
0.786167
0.799585
0.8164
0.836495
0.859512
0.884853
0.909162
0.928385
0.942364
0.95258
0.960001
0.965303
0.968988
0.971413
0.972743
0.973027
0.703848
0.706607
0.717224
0.73139
0.748537
0.769097
0.792852
0.819408
0.848222
0.878611
0.906874
0.929022
0.945314
0.957541
0.966798
0.973803
0.979072
0.983058
0.985764
0.986158
0.619345
0.633232
0.656907
0.681559
0.708307
0.737639
0.769221
0.802689
0.837509
0.873046
0.905317
0.930519
0.949401
0.964073
0.97577
0.98528
0.993118
0.999715
1.00529
1.00823
0.528172
0.562341
0.598528
0.632681
0.669513
0.707787
0.747172
0.787411
0.827997
0.868317
0.904215
0.932097
0.953204
0.969994
0.983799
0.995397
1.00526
1.01358
1.02122
1.02756
0.469736
0.507663
0.547431
0.589637
0.634703
0.680674
0.727201
0.773723
0.81952
0.86382
0.902191
0.931416
0.953384
0.970853
0.98522
0.997247
1.00742
1.01608
1.02276
1.02851
0.427019
0.467901
0.508527
0.55595
0.606071
0.657516
0.709721
0.761573
0.811832
0.859259
0.898922
0.928133
0.949653
0.966589
0.98043
0.99195
1.00163
1.00996
1.01612
1.02168
0.392148
0.435492
0.47763
0.529289
0.582903
0.638469
0.695185
0.751442
0.805395
0.855112
0.894961
0.922913
0.942876
0.958403
0.971107
0.981755
0.990784
0.998653
1.00448
1.00983
0.362133
0.407284
0.451328
0.506672
0.563284
0.622535
0.683202
0.74329
0.800383
0.851727
0.890795
0.916323
0.933691
0.947017
0.958041
0.967482
0.975666
0.982948
0.988402
0.993515
0.335211
0.381805
0.42793
0.486441
0.545885
0.608669
0.673059
0.736731
0.796703
0.849293
0.886832
0.908819
0.922499
0.932739
0.941452
0.949271
0.956362
0.962898
0.967907
0.972775
0.310154
0.358248
0.406488
0.467726
0.529967
0.596173
0.664184
0.731394
0.794236
0.847986
0.88351
0.900885
0.90965
0.915737
0.921346
0.927012
0.932684
0.938282
0.942749
0.947353
0.286123
0.335897
0.386211
0.449924
0.514994
0.584542
0.656148
0.726969
0.792863
0.847967
0.881292
0.893071
0.89552
0.896129
0.897601
0.90041
0.904227
0.908636
0.912429
0.916748
0.262533
0.31411
0.366448
0.432555
0.500493
0.573344
0.648572
0.723157
0.792428
0.84934
0.880637
0.886019
0.88057
0.874041
0.870011
0.869009
0.870382
0.873272
0.87621
0.880237
0.238973
0.292436
0.346769
0.415257
0.486078
0.562216
0.64112
0.719654
0.79272
0.852128
0.881965
0.88046
0.865406
0.849674
0.838334
0.832221
0.83035
0.831289
0.833099
0.83697
0.215201
0.270593
0.326915
0.397793
0.471473
0.550876
0.633495
0.716155
0.793477
0.856256
0.885624
0.877193
0.850815
0.823341
0.802321
0.789306
0.783114
0.7816
0.781456
0.786333
0.191119
0.248461
0.306759
0.380025
0.456511
0.539137
0.625471
0.712384
0.7944
0.861541
0.891855
0.87704
0.837785
0.795465
0.761711
0.739349
0.727397
0.723229
0.721585
0.724359
0.166727
0.226018
0.286261
0.361887
0.441099
0.526874
0.616868
0.708087
0.79515
0.867675
0.900738
0.880802
0.827486
0.766471
0.715953
0.680722
0.661064
0.65326
0.651503
0.653599
0.142083
0.203294
0.265443
0.343382
0.425219
0.514033
0.607583
0.703073
0.795406
0.874257
0.912165
0.889221
0.821273
0.73686
0.664043
0.610253
0.584028
0.573714
0.571114
0.572853
0.117312
0.180359
0.244387
0.324572
0.408916
0.50063
0.597582
0.697219
0.794876
0.880787
0.925769
0.902881
0.820737
0.707082
0.601713
0.527636
0.491945
0.480123
0.478756
0.482025
0.0925615
0.157357
0.223198
0.305537
0.392249
0.486683
0.586842
0.690434
0.793307
0.886715
0.9409
0.922007
0.827722
0.678937
0.527987
0.419591
0.380306
0.374097
0.377356
0.383629
0.0679573
0.134446
0.201992
0.286395
0.375331
0.472295
0.575443
0.682743
0.790603
0.891571
0.956689
0.946599
0.844887
0.653577
0.432072
0.260923
0.220151
0.244965
0.277278
0.303978
0.0436389
0.111707
0.180919
0.267325
0.358309
0.457603
0.563479
0.674165
0.786673
0.894909
0.971882
0.974863
0.872239
0.630119
0.292258
0.0187344
0.00170396
0.0987481
0.184477
0.2264
0.0198127
0.0892041
0.160109
0.24844
0.341263
0.442695
0.551013
0.664727
0.781454
0.896438
0.985382
1.0062
0.917143
0.61383
0.0885474
-0.405112
-0.340838
-0.0538685
0.140448
0.168465
-0.00313792
0.0670546
0.13961
0.229655
0.324145
0.427527
0.538005
0.654394
0.774872
0.896048
0.996513
1.03537
0.956743
0.608502
-0.247044
-1.08271
-1.02357
-0.398601
0.119073
0.435399
-0.0254061
0.0456009
0.119472
0.210929
0.306889
0.411931
0.524197
0.642783
0.766335
0.892688
1.00294
1.05948
1.00062
0.663909
-0.158238
-0.979261
-1.12704
-0.769967
-0.436319
-0.138471
-0.0472119
0.0249006
0.0997519
0.192414
0.289595
0.395946
0.509611
0.629873
0.755677
0.885748
1.00314
1.07489
1.05027
0.785682
0.118363
-0.502161
-0.633929
-0.544215
-0.391119
-0.202256
-0.0685172
0.00469747
0.0802638
0.17408
0.272233
0.3796
0.494342
0.615792
0.743035
0.87528
0.996732
1.0771
1.07348
0.880346
0.398767
-0.0611641
-0.191064
-0.219092
-0.243933
-0.191166
-0.0891077
-0.0150312
0.0610727
0.156059
0.254952
0.3631
0.478624
0.600808
0.728737
0.861627
0.983677
1.06535
1.06877
0.932016
0.610454
0.251009
0.0512741
-0.0432031
-0.137736
-0.154734
-0.109517
-0.0346926
0.0418709
0.137935
0.237387
0.346158
0.462251
0.58482
0.712792
0.844988
0.964972
1.04446
1.05072
0.944725
0.708642
0.387254
0.115834
-0.0151392
-0.121323
-0.182248
-0.131136
-0.0555016
0.0216571
0.11869
0.21876
0.328178
0.444772
0.567485
0.694964
0.825381
0.941144
1.01438
1.01615
0.917886
0.717151
0.415591
0.112982
-0.0788407
-0.211537
-0.284693
-0.154679
-0.0781109
-2.43075e-05
0.0979629
0.198828
0.308966
0.426002
0.548673
0.675287
0.803211
0.913331
0.97775
0.97092
0.866392
0.673346
0.385903
0.0518307
-0.218847
-0.406808
-0.521875
-0.180207
-0.102463
-0.0231874
0.0757685
0.177511
0.288417
0.405906
0.528514
0.654137
0.779236
0.883106
0.938012
0.923083
0.810375
0.613152
0.338435
-0.0174433
-0.419222
-0.806798
-0.9612
-0.207893
-0.128824
-0.0482281
0.0518657
0.154641
0.266477
0.384572
0.507198
0.631778
0.753865
0.851444
0.896959
0.875327
0.759246
0.552938
0.274038
-0.102576
-0.598368
-1.23406
-1.78822
-0.237887
-0.157366
-0.0753287
0.0262963
0.130348
0.243305
0.362137
0.484815
0.608344
0.727494
0.819466
0.856706
0.828932
0.714224
0.495706
0.1923
-0.185396
-0.606829
-1.3325
-3.37008
-0.270021
-0.188001
-0.10432
-0.000936414
0.104471
0.218629
0.338246
0.461017
0.583611
0.700096
0.787506
0.818731
0.785875
0.678474
0.470398
0.159067
-0.199844
-0.499805
-0.633326
-1.29863
-0.304533
-0.22089
-0.135455
-0.0303227
0.0764145
0.19186
0.312314
0.435271
0.557128
0.671413
0.755439
0.783794
0.750336
0.654461
0.489548
0.237627
-0.091521
-0.386501
-0.389447
-0.465405
-0.341805
-0.256266
-0.169003
-0.0621107
0.0460983
0.163043
0.284436
0.407753
0.529212
0.641937
0.724216
0.753707
0.727348
0.648697
0.529724
0.375373
0.141603
-0.171664
-0.264681
-0.321989
-0.381585
-0.293836
-0.204779
-0.0961296
0.0138161
0.132428
0.254855
0.378744
0.500198
0.612293
0.694957
0.729305
0.717297
0.666109
0.588749
0.506265
0.412367
0.236233
0.167928
0.16938
-0.423305
-0.333051
-0.242363
-0.131915
-0.0199444
0.100401
0.223999
0.348766
0.470857
0.583538
0.668471
0.710855
0.716399
0.696434
0.660562
0.625008
0.61401
0.579714
0.577485
0.59925
-0.466641
-0.373586
-0.281531
-0.169047
-0.0547951
0.0673339
0.192336
0.318404
0.441921
0.556553
0.645267
0.698903
0.720692
0.726541
0.724357
0.720765
0.7394
0.752014
0.783063
0.816797
-0.511474
-0.415045
-0.32199
-0.207092
-0.0903576
0.0335986
0.16029
0.288048
0.413388
0.531596
0.626347
0.690825
0.727449
0.752695
0.772943
0.791774
0.82114
0.84225
0.870512
0.897754
-0.556873
-0.457172
-0.363223
-0.24528
-0.126054
-0.00027315
0.128371
0.258172
0.38576
0.508167
0.611326
0.684526
0.735225
0.775006
0.809382
0.840754
0.873232
0.900398
0.926437
0.948613
-0.601351
-0.499365
-0.404302
-0.282535
-0.161197
-0.0336297
0.0972454
0.229458
0.360032
0.486858
0.59828
0.680503
0.74284
0.792979
0.836297
0.874431
0.909291
0.938853
0.964902
0.984466
-0.643597
-0.540036
-0.443761
-0.317591
-0.19507
-0.0656898
0.0676457
0.202475
0.336397
0.467821
0.586139
0.677765
0.748511
0.806023
0.854936
0.896769
0.933141
0.963948
0.989337
1.00801
-0.682311
-0.577313
-0.48022
-0.348882
-0.226802
-0.0955212
0.0404116
0.17765
0.314641
0.450501
0.574437
0.673706
0.75093
0.813788
0.866201
0.910129
0.947248
0.978585
1.00288
1.02305
-0.715928
-0.609297
-0.51196
-0.375385
-0.255235
-0.121669
0.0163996
0.155402
0.29478
0.434288
0.562951
0.667717
0.749728
0.816153
0.87071
0.915726
0.953298
0.985425
1.0077
1.03106
-0.741963
-0.63436
-0.536373
-0.396546
-0.279405
-0.141949
-0.00358602
0.136099
0.276944
0.418814
0.550871
0.659359
0.744372
0.812932
0.868843
0.914424
0.951311
0.985372
1.00622
1.02959
-0.757054
-0.651042
-0.548944
-0.411959
-0.295767
-0.155359
-0.0193393
0.120182
0.26108
0.403653
0.537141
0.647428
0.73391
0.803438
0.859856
0.906786
0.94163
0.976674
0.998391
1.01922
-0.755818
-0.654031
-0.548623
-0.419228
-0.300258
-0.162514
-0.0296197
0.10804
0.246938
0.388192
0.520924
0.63092
0.717224
0.787367
0.841974
0.890875
0.925033
0.958988
0.981987
1.00198
-0.736076
-0.637762
-0.532706
-0.411278
-0.291928
-0.161753
-0.0329035
0.0998096
0.234243
0.371623
0.501253
0.608856
0.693553
0.761973
0.817269
0.863397
0.899829
0.931793
0.955931
0.975451
-0.688674
-0.596077
-0.496842
-0.382989
-0.270397
-0.149415
-0.0284037
0.0961732
0.223172
0.35366
0.477222
0.579863
0.660821
0.726334
0.77993
0.824488
0.860962
0.892271
0.916546
0.936419
-0.606438
-0.522454
-0.433784
-0.332232
-0.231748
-0.124341
-0.0152826
0.0976559
0.213879
0.334093
0.448272
0.54299
0.617564
0.677912
0.727611
0.769221
0.804063
0.83422
0.858327
0.878685
-0.477125
-0.41069
-0.342609
-0.258888
-0.175686
-0.0864841
0.00646282
0.104155
0.206192
0.312719
0.414102
0.497634
0.562668
0.614628
0.656941
0.691985
0.721252
0.746393
0.76662
0.784659
-0.282334
-0.250276
-0.216064
-0.160067
-0.102969
-0.0373591
0.0353962
0.11509
0.201057
0.292736
0.380862
0.453121
0.508397
0.551342
0.585006
0.611533
0.632396
0.648943
0.660779
0.671184
-0.0977611
-0.0887747
-0.0794144
-0.0518606
-0.021381
0.0194901
0.0704062
0.131005
0.200429
0.27755
0.353359
0.415739
0.462867
0.498461
0.52512
0.544719
0.558621
0.568284
0.573312
0.577074
0.0110195
0.0144573
0.018182
0.0307329
0.0468646
0.0714984
0.105399
0.149299
0.203098
0.265775
0.329132
0.381521
0.420464
0.448871
0.469031
0.482805
0.491707
0.497232
0.499791
0.501539
0.0681615
0.0706408
0.0740097
0.0817101
0.0924931
0.109049
0.132635
0.164618
0.205717
0.255583
0.307367
0.350434
0.382047
0.404547
0.420031
0.430298
0.43681
0.440806
0.442858
0.44416
0.103404
0.104893
0.107455
0.11274
0.120756
0.132974
0.150491
0.174601
0.206296
0.245742
0.287528
0.322494
0.348038
0.366061
0.378379
0.386535
0.391727
0.394889
0.396564
0.39753
0.127427
0.12831
0.130071
0.133622
0.139405
0.148416
0.161613
0.180073
0.204726
0.235916
0.269426
0.297636
0.318236
0.332732
0.342606
0.349111
0.353222
0.35568
0.356985
0.357719
0.142802
0.143467
0.14477
0.147286
0.151486
0.158122
0.168038
0.182168
0.201349
0.225968
0.252728
0.27538
0.291924
0.303531
0.311398
0.316546
0.319778
0.321697
0.322724
0.323305
0.151577
0.152093
0.153094
0.154975
0.158126
0.163112
0.170633
0.18148
0.1964
0.215789
0.23708
0.255189
0.268419
0.277681
0.283939
0.288021
0.29058
0.292098
0.292914
0.293375
0.155488
0.155883
0.156651
0.158084
0.160488
0.164299
0.170071
0.178452
0.190081
0.205334
0.222224
0.236654
0.247204
0.254586
0.259568
0.262814
0.264848
0.266054
0.266703
0.267067
0.155778
0.156082
0.156673
0.157773
0.159621
0.162557
0.167019
0.173527
0.18261
0.194608
0.207982
0.219453
0.22785
0.233725
0.237688
0.240269
0.241886
0.242843
0.243358
0.243646
0.153313
0.153548
0.154006
0.154855
0.156285
0.158558
0.162022
0.167091
0.174198
0.183637
0.194213
0.203314
0.209985
0.214653
0.217801
0.21985
0.221133
0.221893
0.222301
0.222529
0.148723
0.148905
0.149261
0.149921
0.151032
0.1528
0.155498
0.159456
0.165025
0.17245
0.180805
0.188014
0.193304
0.197007
0.199505
0.201131
0.202149
0.202752
0.203075
0.203255
0.142488
0.142631
0.142908
0.143423
0.144289
0.145668
0.147774
0.150871
0.155238
0.16108
0.167673
0.173376
0.177564
0.180499
0.182478
0.183768
0.184575
0.185052
0.185309
0.185451
0.134977
0.135088
0.135305
0.135707
0.136383
0.137461
0.139108
0.141534
0.144961
0.149555
0.154754
0.15926
0.162573
0.164896
0.166463
0.167484
0.168122
0.1685
0.168702
0.168814
0.126471
0.126558
0.126727
0.127041
0.127569
0.128412
0.129702
0.131603
0.134292
0.137904
0.142
0.145556
0.148174
0.150009
0.151248
0.152054
0.152558
0.152856
0.153016
0.153105
0.117187
0.117254
0.117387
0.117632
0.118046
0.118705
0.119715
0.121204
0.123314
0.126152
0.129376
0.132178
0.134242
0.13569
0.136666
0.137301
0.137699
0.137934
0.13806
0.138129
0.107292
0.107345
0.107448
0.10764
0.107964
0.10848
0.10927
0.110436
0.112089
0.114316
0.116849
0.119053
0.120676
0.121815
0.122584
0.123084
0.123396
0.123581
0.123681
0.123735
0.0969253
0.0969668
0.0970477
0.0971976
0.0974501
0.097853
0.0984705
0.0993821
0.100676
0.102419
0.104403
0.106131
0.107404
0.108298
0.108901
0.109294
0.10954
0.109686
0.109763
0.109806
0.0861837
0.0862157
0.0862784
0.0863949
0.0865913
0.0869048
0.0873855
0.0880955
0.0891032
0.0904619
0.09201
0.0933588
0.0943538
0.0950524
0.0955244
0.0958319
0.0960243
0.0961383
0.0961993
0.0962331
0.0751588
0.075184
0.0752329
0.0753234
0.0754758
0.075719
0.0760917
0.0766421
0.0774229
0.0784754
0.0796746
0.0807201
0.0814919
0.0820341
0.0824006
0.0826395
0.0827888
0.0828772
0.0829243
0.0829501
0.0639124
0.0639313
0.0639682
0.0640372
0.0641536
0.0643395
0.0646243
0.0650449
0.065642
0.0664477
0.0673665
0.0681677
0.0687592
0.0691749
0.0694558
0.0696387
0.0697531
0.0698207
0.0698568
0.0698769
0.0524824
0.0524971
0.0525257
0.0525786
0.0526672
0.0528081
0.0530232
0.0533399
0.0537888
0.0543928
0.0550801
0.0556816
0.0561269
0.0564405
0.0566526
0.0567907
0.0568769
0.0569276
0.0569542
0.0569687
0.0409496
0.0409622
0.0409856
0.0410263
0.0410924
0.0411957
0.0413523
0.0415825
0.0419102
0.0423528
0.0428522
0.0432837
0.0436023
0.043826
0.0439771
0.0440752
0.0441365
0.0441727
0.0441921
0.0442025
0.0293069
0.0293149
0.0293286
0.0293544
0.0293965
0.0294623
0.0295625
0.0297114
0.0299241
0.0302155
0.0305547
0.0308498
0.0310659
0.0312172
0.03132
0.0313876
0.0314309
0.0314576
0.0314731
0.0314828
0.0175795
0.0175829
0.0175893
0.0176008
0.0176205
0.0176548
0.0177112
0.0177972
0.01792
0.0180854
0.0182769
0.0184474
0.0185739
0.0186633
0.0187242
0.0187649
0.0187913
0.0188077
0.0188171
0.0188245
0.00585149
0.00585237
0.00585267
0.00585306
0.0058584
0.0058719
0.0058956
0.00593139
0.00598
0.00604011
0.00610232
0.00615628
0.00619618
0.00622315
0.00624065
0.00625189
0.00625909
0.00626366
0.00626618
0.00626873
-1.2562
-0.450255
-0.486513
-0.195928
-0.178669
-0.0957511
-0.0631938
0.0661064
0.289768
0.671964
-0.561463
-0.183719
-0.271744
-0.050438
-0.0624215
0.0430727
0.106281
0.229266
0.306912
0.306392
-0.254043
-0.0481319
-0.098856
0.0588359
0.0573656
0.154134
0.193274
0.281341
0.296161
0.308455
-0.0576756
0.0698339
0.0543342
0.158448
0.159196
0.233656
0.254077
0.307072
0.30859
0.326756
0.095293
0.177435
0.165063
0.239427
0.240519
0.295301
0.301485
0.336687
0.332752
0.360468
0.204897
0.260167
0.250013
0.30362
0.301497
0.344601
0.342605
0.37295
0.369037
0.395675
0.281163
0.322979
0.321162
0.360446
0.358882
0.393085
0.394655
0.418313
0.414881
0.445072
0.354941
0.388565
0.390228
0.422397
0.425046
0.452316
0.455709
0.476027
0.478715
0.504649
0.430842
0.463774
0.464729
0.491114
0.493705
0.514727
0.518241
0.535615
0.540362
0.559344
0.503206
0.524722
0.527843
0.544129
0.549939
0.56303
0.566155
0.579517
0.581777
0.597249
0.549648
0.562898
0.571086
0.578623
0.587483
0.596434
0.603689
0.618202
0.622139
0.637176
0.596459
0.611159
0.622369
0.634092
0.648998
0.659843
0.673189
0.684553
0.689372
0.705731
0.694225
0.71104
0.728132
0.740607
0.754053
0.764451
0.773907
0.78035
0.78299
0.794102
0.830434
0.833382
0.844981
0.850155
0.852019
0.855867
0.860424
0.866626
0.869992
0.882005
0.943231
0.928638
0.921915
0.915438
0.910701
0.910693
0.9164
0.927594
0.941798
0.969847
1.05296
0.999087
0.967925
0.949179
0.941807
0.942176
0.951054
0.970254
1.00046
1.06816
)
;

boundaryField
{
    wall-4
    {
        type            zeroGradient;
    }
    pressure-outlet-7
    {
        type            fixedValue;
        value           uniform 0;
    }
    velocity-inlet-6
    {
        type            zeroGradient;
    }
    velocity-inlet-5
    {
        type            zeroGradient;
    }
    frontAndBackPlanes
    {
        type            empty;
    }
}


// ************************************************************************* //
