/*--------------------------------*- C++ -*----------------------------------*\
  =========                 |
  \\      /  F ield         | OpenFOAM: The Open Source CFD Toolbox
   \\    /   O peration     | Website:  https://openfoam.org
    \\  /    A nd           | Version:  9
     \\/     M anipulation  |
\*---------------------------------------------------------------------------*/
FoamFile
{
    format      ascii;
    class       volScalarField;
    location    "1.1";
    object      p;
}
// * * * * * * * * * * * * * * * * * * * * * * * * * * * * * * * * * * * * * //

dimensions      [0 2 -2 0 0 0 0];

internalField   nonuniform List<scalar> 
400
(
3.46187e-06
-0.00582411
-0.0129621
-0.0184146
-0.0204323
-0.0182387
-0.0117741
-0.00148387
0.0118373
0.0271491
0.0432445
0.0588232
0.072579
0.0833089
0.0900533
0.0922675
0.0900263
0.0842442
0.0768809
0.0710673
0.00578197
-0.000217294
-0.00580332
-0.00954218
-0.0105988
-0.00843272
-0.00297002
0.00547405
0.0163028
0.0287117
0.0417499
0.0543861
0.0655867
0.0744103
0.0801207
0.0823162
0.0810777
0.0770552
0.0712743
0.065318
0.0133362
0.00503452
-0.000994671
-0.00442268
-0.0052727
-0.00326389
0.00160227
0.00902747
0.018502
0.0293493
0.0407655
0.0518698
0.0617687
0.0696366
0.0748073
0.0768784
0.0758419
0.0720862
0.0658057
0.0575355
0.0201404
0.00869675
0.00122649
-0.00266805
-0.00372182
-0.00188521
0.00273122
0.00978443
0.0187802
0.029095
0.039992
0.0506541
0.0602331
0.0679161
0.0730034
0.0750017
0.073766
0.0694563
0.0616031
0.0501025
0.024503
0.00977388
0.000590391
-0.00398641
-0.00530185
-0.00350713
0.00117476
0.00833444
0.0174618
0.0279489
0.0390849
0.05007
0.060049
0.0681652
0.0736264
0.0757978
0.074369
0.0692898
0.0595255
0.044537
0.0251788
0.00715078
-0.00380143
-0.0090567
-0.0105117
-0.00849965
-0.00335665
0.00442942
0.0143132
0.0256788
0.0378137
0.0499033
0.0610482
0.0703032
0.0767347
0.0795169
0.0781389
0.0723335
0.0605392
0.0418899
0.0210944
-0.00026166
-0.012934
-0.0187089
-0.0200294
-0.0174135
-0.0113181
-0.00231954
0.00899042
0.0219761
0.0359095
0.0499443
0.0631121
0.0743453
0.0825219
0.0865695
0.0857207
0.079447
0.0656203
0.0430715
0.0111436
-0.0136176
-0.0278745
-0.0338538
-0.0346031
-0.0308571
-0.0232125
-0.0123449
0.001105
0.0164839
0.0330525
0.0499335
0.0660833
0.0802899
0.0912008
0.0974301
0.0978703
0.091636
0.0758962
0.0491164
-0.00596654
-0.0342659
-0.0498695
-0.0555482
-0.0550898
-0.0495142
-0.0395931
-0.026113
-0.00975682
0.00882317
0.028901
0.0495935
0.0697975
0.0881545
0.103048
0.112701
0.115551
0.110192
0.0928343
0.0614114
-0.0318567
-0.0638756
-0.0804164
-0.0850067
-0.0824197
-0.074078
-0.0609806
-0.0440363
-0.0239512
-0.0013366
0.0231458
0.0486611
0.0740957
0.0979723
0.118396
0.133126
0.139989
0.136818
0.118441
0.0819339
-0.068667
-0.104603
-0.121344
-0.12359
-0.117515
-0.105126
-0.087718
-0.0663252
-0.0416367
-0.0141552
0.0156059
0.0469535
0.078856
0.109794
0.137624
0.159586
0.172727
0.173778
0.155521
0.113571
-0.119402
-0.159357
-0.174914
-0.172756
-0.161147
-0.142928
-0.119759
-0.0927766
-0.062577
-0.0294472
0.00637357
0.0444739
0.0840556
0.123703
0.161137
0.193086
0.215668
0.224077
0.208051
0.160633
-0.188628
-0.232241
-0.243938
-0.233947
-0.213694
-0.187154
-0.156372
-0.122501
-0.0858973
-0.0464716
-0.00401385
0.0415395
0.0898428
0.13983
0.18932
0.23469
0.271075
0.291665
0.281743
0.229776
-0.283974
-0.329304
-0.331831
-0.308279
-0.274707
-0.236439
-0.195763
-0.153609
-0.109839
-0.0637443
-0.014437
0.0388644
0.0965553
0.158278
0.222375
0.285289
0.341398
0.381576
0.384915
0.331835
-0.419317
-0.45967
-0.442349
-0.395791
-0.342128
-0.287738
-0.234614
-0.182928
-0.131608
-0.0789835
-0.0232126
0.0374767
0.104555
0.178839
0.259863
0.344972
0.428618
0.499701
0.529676
0.485393
-0.62053
-0.636742
-0.578675
-0.494191
-0.411239
-0.335656
-0.267778
-0.205975
-0.147534
-0.0893809
-0.028424
0.0383503
0.113809
0.200474
0.299977
0.412027
0.533031
0.651777
0.732774
0.722397
-0.935922
-0.878513
-0.741739
-0.597946
-0.47439
-0.372657
-0.288866
-0.21776
-0.153951
-0.0924614
-0.0287149
0.0416981
0.123266
0.22072
0.338928
0.482157
0.651999
0.841344
1.01527
1.09751
-1.47642
-1.20663
-0.9205
-0.691385
-0.517302
-0.387541
-0.290058
-0.213334
-0.148121
-0.0872128
-0.024575
0.0454601
0.12894
0.233074
0.367106
0.542681
0.771296
1.05932
1.40329
1.73014
-2.53965
-1.63054
-1.04444
-0.710956
-0.495747
-0.35209
-0.254528
-0.18358
-0.126166
-0.0735925
-0.0192664
0.0427895
0.119215
0.218785
0.354815
0.547986
0.826395
1.23658
1.91168
2.9242
-4.36666
-2.04463
-0.973539
-0.563178
-0.357843
-0.240144
-0.170116
-0.12378
-0.0874785
-0.0535076
-0.0166519
0.0276631
0.0846099
0.161732
0.272414
0.442101
0.718221
1.22571
2.41104
4.84853
)
;

boundaryField
{
    movingWall
    {
        type            zeroGradient;
    }
    fixedWalls
    {
        type            zeroGradient;
    }
    frontAndBack
    {
        type            empty;
    }
}


// ************************************************************************* //
