/*--------------------------------*- C++ -*----------------------------------*\
  =========                 |
  \\      /  F ield         | OpenFOAM: The Open Source CFD Toolbox
   \\    /   O peration     | Website:  https://openfoam.org
    \\  /    A nd           | Version:  9
     \\/     M anipulation  |
\*---------------------------------------------------------------------------*/
FoamFile
{
    format      ascii;
    class       volScalarField;
    location    "40";
    object      p;
}
// * * * * * * * * * * * * * * * * * * * * * * * * * * * * * * * * * * * * * //

dimensions      [0 2 -2 0 0 0 0];

internalField   nonuniform List<scalar> 
2200
(
0.796382
0.774881
0.75897
0.743297
0.728681
0.716149
0.705778
0.697652
0.691926
0.688916
0.68934
0.693105
0.699381
0.707899
0.718548
0.731288
0.746051
0.761925
0.777943
0.799447
0.728806
0.725546
0.72262
0.7185
0.71303
0.706548
0.69992
0.693938
0.689395
0.686937
0.687353
0.690602
0.695733
0.702151
0.709099
0.715822
0.721463
0.72558
0.728461
0.731802
0.688928
0.689147
0.691196
0.692525
0.692899
0.692028
0.690022
0.68732
0.684738
0.683199
0.683677
0.686052
0.689276
0.692461
0.69478
0.695792
0.695517
0.694465
0.692749
0.692507
0.666456
0.667906
0.670496
0.672942
0.675378
0.677384
0.678516
0.67872
0.678309
0.677971
0.678527
0.67981
0.680939
0.681269
0.680544
0.67884
0.676654
0.674434
0.671836
0.670423
0.652116
0.654085
0.656904
0.659742
0.662594
0.665408
0.667847
0.669676
0.670849
0.671575
0.672217
0.672598
0.672288
0.671114
0.669202
0.666781
0.664195
0.661454
0.658663
0.656734
0.644868
0.646465
0.648663
0.651178
0.653818
0.65645
0.659001
0.661374
0.663327
0.664735
0.66549
0.665414
0.664499
0.662916
0.660958
0.658781
0.65643
0.654079
0.651973
0.650395
0.641545
0.642569
0.64383
0.645674
0.647792
0.649927
0.65207
0.654292
0.656435
0.658178
0.659075
0.65896
0.658065
0.65678
0.655323
0.653709
0.651968
0.650362
0.649232
0.648215
0.638943
0.639613
0.64024
0.641534
0.643137
0.644803
0.646512
0.648371
0.650337
0.652177
0.653269
0.653415
0.652973
0.652242
0.651373
0.650335
0.649212
0.648237
0.647764
0.647092
0.635813
0.636255
0.636653
0.637649
0.638907
0.640268
0.641713
0.643291
0.645005
0.646793
0.648125
0.648736
0.64886
0.64868
0.648284
0.647716
0.647049
0.646454
0.646234
0.645776
0.63196
0.632257
0.632613
0.633482
0.634587
0.63584
0.63723
0.638752
0.640416
0.642223
0.643858
0.644978
0.645567
0.645776
0.645686
0.645392
0.644985
0.644578
0.644412
0.644097
0.627462
0.627667
0.628042
0.628869
0.629957
0.631253
0.632762
0.634459
0.636332
0.638393
0.640404
0.641929
0.642844
0.643267
0.643363
0.643243
0.642981
0.642684
0.642527
0.6423
0.622425
0.622565
0.622943
0.623789
0.624974
0.626436
0.628153
0.630108
0.63231
0.634778
0.637239
0.639142
0.640339
0.640974
0.641218
0.641249
0.641101
0.64091
0.640779
0.64061
0.617119
0.617212
0.617585
0.618425
0.619681
0.6213
0.623255
0.625538
0.628172
0.631165
0.634201
0.636603
0.638143
0.639036
0.639465
0.639583
0.639603
0.639549
0.639462
0.639332
0.611556
0.611611
0.611995
0.612839
0.614152
0.615892
0.61807
0.620747
0.623953
0.627667
0.631388
0.634298
0.636225
0.637435
0.638168
0.638551
0.638779
0.638849
0.63881
0.638694
0.605492
0.605521
0.60593
0.606816
0.608266
0.610188
0.612604
0.615641
0.619438
0.623951
0.628493
0.632067
0.634564
0.636289
0.637467
0.638224
0.63865
0.638843
0.638853
0.638739
0.598864
0.598781
0.599232
0.600206
0.60186
0.604021
0.606719
0.610125
0.614428
0.619738
0.625327
0.629966
0.63335
0.635801
0.637503
0.638577
0.639202
0.639525
0.639585
0.639482
0.591591
0.591581
0.591964
0.593004
0.594895
0.597362
0.600498
0.604459
0.609508
0.615819
0.622713
0.628644
0.633047
0.636176
0.638344
0.639788
0.640701
0.641167
0.641279
0.641185
0.583403
0.583403
0.583827
0.585026
0.587237
0.59014
0.593942
0.598863
0.605098
0.612836
0.62125
0.628426
0.633737
0.637576
0.640294
0.642152
0.64334
0.643945
0.644112
0.644017
0.573939
0.573875
0.574423
0.575926
0.578479
0.581966
0.586653
0.592766
0.600574
0.610206
0.620435
0.629013
0.635354
0.639978
0.643337
0.645697
0.647199
0.647981
0.648215
0.648112
0.562718
0.562609
0.56324
0.565041
0.568122
0.572337
0.577987
0.585389
0.594929
0.60672
0.619224
0.629701
0.637572
0.643372
0.647595
0.650534
0.652436
0.653427
0.653726
0.6536
0.549428
0.549294
0.549998
0.552046
0.555666
0.560775
0.567696
0.576756
0.588377
0.602727
0.617975
0.630808
0.640418
0.647561
0.652821
0.656611
0.659071
0.660316
0.660692
0.66053
0.532877
0.532782
0.533734
0.536253
0.54076
0.547213
0.555966
0.567394
0.581864
0.599387
0.617683
0.63302
0.644515
0.65318
0.659605
0.664233
0.667261
0.668749
0.669178
0.668967
0.512084
0.511919
0.513209
0.51661
0.522564
0.531091
0.542548
0.557282
0.575444
0.596818
0.618604
0.636638
0.650157
0.660297
0.667847
0.673349
0.67694
0.678655
0.679129
0.678862
0.484775
0.484793
0.486873
0.491681
0.49994
0.51164
0.526903
0.545864
0.568492
0.594414
0.620258
0.641324
0.65703
0.668846
0.677684
0.684072
0.688176
0.690079
0.690567
0.690249
0.448064
0.448345
0.45192
0.459635
0.471811
0.488347
0.508797
0.533078
0.561005
0.592099
0.622402
0.646815
0.664962
0.678599
0.688838
0.696287
0.700956
0.70302
0.703496
0.703094
0.398626
0.399066
0.406133
0.419107
0.437708
0.461315
0.488663
0.519552
0.553713
0.590588
0.625702
0.653573
0.674173
0.689738
0.70153
0.71001
0.715106
0.717171
0.71749
0.717078
0.332707
0.335627
0.350936
0.372334
0.399865
0.432198
0.46762
0.506015
0.547173
0.590532
0.631047
0.663009
0.686812
0.70492
0.718611
0.728617
0.734503
0.736674
0.736811
0.736609
0.257514
0.267208
0.292756
0.324069
0.361704
0.403058
0.446648
0.492834
0.541402
0.591776
0.638442
0.675382
0.702943
0.72406
0.740391
0.752178
0.758994
0.761066
0.761077
0.761185
0.190467
0.205474
0.237465
0.277487
0.324599
0.374835
0.42641
0.480317
0.536176
0.593352
0.645926
0.687389
0.718527
0.742389
0.760545
0.773761
0.78135
0.784286
0.784823
0.784827
0.139545
0.153004
0.190321
0.236301
0.290631
0.348241
0.407215
0.468413
0.531204
0.595029
0.653167
0.698823
0.732869
0.75885
0.778673
0.793437
0.801471
0.804731
0.805237
0.805311
0.0975105
0.110113
0.151062
0.200945
0.260701
0.324155
0.38953
0.457229
0.526344
0.596185
0.659469
0.709027
0.745656
0.773407
0.794351
0.809825
0.818508
0.822101
0.822726
0.822843
0.0614042
0.0742412
0.117654
0.170394
0.23443
0.302575
0.373325
0.446605
0.521322
0.596825
0.665364
0.718177
0.756817
0.785868
0.807663
0.823381
0.832449
0.836366
0.837148
0.837256
0.029806
0.0428062
0.0882118
0.143485
0.211059
0.283087
0.35838
0.436536
0.516421
0.597324
0.669916
0.725545
0.766061
0.796181
0.818293
0.834209
0.843809
0.847966
0.848931
0.84902
0.00146826
0.0145041
0.0615925
0.119202
0.189799
0.265139
0.344357
0.426755
0.511117
0.596365
0.672948
0.731624
0.773548
0.804423
0.827205
0.843383
0.853336
0.857766
0.858839
0.858909
-0.0243656
-0.0113794
0.0369867
0.0968349
0.170062
0.248272
0.330856
0.416886
0.505295
0.595006
0.676041
0.736835
0.780201
0.811984
0.835176
0.851563
0.861827
0.866266
0.867415
0.867311
-0.0486044
-0.0352896
0.0138766
0.075813
0.151366
0.232113
0.317657
0.406995
0.499241
0.593084
0.677272
0.741044
0.786305
0.818755
0.842513
0.85903
0.868954
0.873534
0.874581
0.874407
-0.0713604
-0.0578398
-0.00797673
0.0557825
0.133351
0.2164
0.304616
0.396935
0.492459
0.58986
0.678125
0.7454
0.791912
0.82535
0.84916
0.865672
0.875582
0.879982
0.881141
0.881029
-0.0928096
-0.0793394
-0.0287746
0.0365391
0.115824
0.200934
0.291507
0.386396
0.484906
0.586122
0.678666
0.748398
0.797305
0.831687
0.855739
0.872201
0.881936
0.886268
0.887288
0.887214
-0.113412
-0.0997635
-0.0486842
0.0179035
0.0986324
0.18556
0.278231
0.375511
0.47698
0.581722
0.677882
0.751196
0.802632
0.83809
0.86256
0.878805
0.888335
0.892385
0.89336
0.893252
-0.133637
-0.119391
-0.0679087
-0.000231475
0.0817234
0.170251
0.264835
0.364373
0.468546
0.576485
0.676501
0.753699
0.807641
0.844868
0.869837
0.885786
0.894706
0.898475
0.899202
0.899082
-0.153533
-0.138447
-0.0866101
-0.0179622
0.0650511
0.155016
0.251357
0.352929
0.459441
0.570259
0.674014
0.755086
0.812489
0.852037
0.877846
0.893343
0.90141
0.904304
0.904801
0.904638
-0.172985
-0.157137
-0.10487
-0.0352928
0.048655
0.139877
0.237758
0.341104
0.449692
0.563255
0.670801
0.755806
0.81701
0.859526
0.88694
0.90208
0.908534
0.909951
0.909946
0.909812
-0.191848
-0.175438
-0.122681
-0.0522143
0.0325597
0.124848
0.224021
0.32893
0.439513
0.555644
0.666125
0.755123
0.820723
0.867357
0.897441
0.912805
0.917187
0.915144
0.914439
0.915217
-0.210098
-0.193273
-0.139988
-0.06869
0.0168083
0.10998
0.210235
0.316541
0.428912
0.54704
0.660015
0.753345
0.823706
0.875099
0.909335
0.926364
0.929196
0.922922
0.917488
0.915706
-0.2277
-0.210528
-0.156727
-0.084685
0.00144553
0.0953522
0.196508
0.303981
0.41778
0.537568
0.653032
0.749897
0.824926
0.882374
0.922409
0.943561
0.949096
0.936766
0.934439
0.938815
-0.244665
-0.227143
-0.17284
-0.100144
-0.0134625
0.0810524
0.182931
0.291307
0.406216
0.527509
0.645048
0.744642
0.824517
0.887996
0.935543
0.964077
0.975776
0.948619
0.906025
0.867639
-0.260925
-0.243124
-0.18836
-0.115127
-0.0280046
0.0669659
0.16935
0.278346
0.394086
0.516597
0.635614
0.73737
0.821004
0.890819
0.947346
0.987161
1.01352
1.00326
1.02011
1.07518
-0.276443
-0.258527
-0.20338
-0.129768
-0.0423565
0.0528672
0.155501
0.26481
0.381023
0.504282
0.624311
0.727412
0.813566
0.888077
0.949434
0.993114
1.01288
0.998588
0.96094
0.973224
-0.291186
-0.27332
-0.217858
-0.144014
-0.0564454
0.0388538
0.141526
0.250883
0.367194
0.490666
0.611066
0.714379
0.800446
0.875397
0.936432
0.978171
0.972997
0.924144
0.862467
0.850958
-0.305154
-0.2875
-0.231795
-0.157874
-0.0702779
0.0249263
0.127451
0.236607
0.352625
0.475741
0.595789
0.69811
0.781677
0.851259
0.905741
0.920082
0.888536
0.815175
0.74227
0.723343
-0.318379
-0.301058
-0.245205
-0.171371
-0.0838799
0.0110713
0.113274
0.221984
0.337336
0.459522
0.578364
0.678351
0.756107
0.813379
0.843351
0.833848
0.78124
0.681467
0.595205
0.574932
-0.331316
-0.314406
-0.258486
-0.184877
-0.0976088
-0.00302953
0.098711
0.206769
0.321147
0.441862
0.558592
0.654777
0.725501
0.766653
0.762526
0.729808
0.62323
0.502562
0.396303
0.370826
-0.344863
-0.328326
-0.272332
-0.199016
-0.112042
-0.0178671
0.0833376
0.19061
0.30377
0.422491
0.536129
0.627199
0.690214
0.708233
0.674473
0.589693
0.435351
0.284065
0.156235
0.129958
-0.359548
-0.343244
-0.287073
-0.214026
-0.127362
-0.0335786
0.0670521
0.17344
0.285183
0.40146
0.511131
0.596728
0.648384
0.639328
0.585838
0.43828
0.238709
0.0263283
-0.153413
-0.200555
-0.375472
-0.359233
-0.302759
-0.229929
-0.143547
-0.0501349
0.0498868
0.155299
0.265455
0.378908
0.483592
0.563755
0.600594
0.559989
0.472683
0.284519
0.0517886
-0.238425
-0.561464
-0.707227
-0.392719
-0.376407
-0.319516
-0.24681
-0.160645
-0.0675948
0.0317764
0.136111
0.244525
0.354872
0.453669
0.527788
0.547513
0.475893
0.339666
0.132017
-0.105184
-0.452488
-1.0444
-1.61901
-0.411352
-0.394834
-0.337401
-0.264726
-0.178676
-0.0859465
0.0127704
0.115984
0.222592
0.329758
0.42261
0.489065
0.491121
0.401155
0.210289
-0.0268183
-0.233864
-0.473885
-1.03962
-2.57738
-0.431386
-0.414614
-0.356524
-0.2838
-0.197793
-0.105384
-0.00736487
0.0946372
0.199294
0.303136
0.390076
0.447244
0.429966
0.342307
0.115229
-0.127778
-0.279613
-0.321079
-0.317101
-0.7103
-0.452734
-0.435853
-0.377038
-0.304325
-0.218399
-0.126396
-0.0292296
0.0713487
0.173753
0.273717
0.355211
0.402202
0.369079
0.293733
0.0636876
-0.144131
-0.258622
-0.268507
-0.216887
-0.258342
-0.475294
-0.458457
-0.398953
-0.326359
-0.240552
-0.149094
-0.052966
0.0459501
0.145717
0.241206
0.318081
0.355358
0.315094
0.241739
0.0302946
-0.136206
-0.220084
-0.227712
-0.275431
-0.281262
-0.499002
-0.482192
-0.422155
-0.349889
-0.264249
-0.173492
-0.0786021
0.0184083
0.115227
0.206116
0.278457
0.306403
0.267776
0.181398
0.00238285
-0.126531
-0.199674
-0.172196
-0.194253
-0.196019
-0.523673
-0.506669
-0.446578
-0.374824
-0.289311
-0.199488
-0.106035
-0.0111357
0.0824417
0.168784
0.236572
0.254331
0.225764
0.114007
-0.0323341
-0.121456
-0.166661
-0.208697
-0.18513
-0.193146
-0.548908
-0.531556
-0.472035
-0.400957
-0.315531
-0.226913
-0.135073
-0.0424599
0.0475069
0.129538
0.193158
0.200983
0.18335
0.0518995
-0.0700887
-0.137104
-0.122981
-0.182207
-0.160136
-0.1653
-0.574015
-0.556448
-0.498387
-0.427911
-0.342534
-0.255484
-0.165387
-0.075187
0.0107325
0.0888435
0.149865
0.149581
0.132416
-0.0018121
-0.100737
-0.155721
-0.136739
-0.159525
-0.163041
-0.162695
-0.598427
-0.581056
-0.524746
-0.454921
-0.370005
-0.284822
-0.196551
-0.108874
-0.0272946
0.0469848
0.10648
0.10135
0.0764053
-0.0471613
-0.117568
-0.152788
-0.179342
-0.16203
-0.167977
-0.16435
-0.621349
-0.60469
-0.55017
-0.481201
-0.397505
-0.31433
-0.227953
-0.142886
-0.0656555
0.00438323
0.063284
0.0561038
0.0204688
-0.0857413
-0.137971
-0.134516
-0.195136
-0.158149
-0.167159
-0.160814
-0.641915
-0.62637
-0.573598
-0.505742
-0.424613
-0.343223
-0.258851
-0.176485
-0.103241
-0.0383543
0.0197766
0.0121599
-0.0299598
-0.106493
-0.155033
-0.129472
-0.185554
-0.147681
-0.152046
-0.148714
-0.658822
-0.644839
-0.594399
-0.528129
-0.450206
-0.370394
-0.288327
-0.208795
-0.138952
-0.0803094
-0.0230127
-0.032301
-0.0740363
-0.110455
-0.141998
-0.135684
-0.139945
-0.140258
-0.140246
-0.137906
-0.671018
-0.659038
-0.61148
-0.547395
-0.472688
-0.394904
-0.315407
-0.238714
-0.171694
-0.119712
-0.0639991
-0.0757644
-0.124661
-0.113629
-0.0792309
-0.077528
-0.0950574
-0.128939
-0.137046
-0.139966
-0.677327
-0.667632
-0.623909
-0.562441
-0.490627
-0.415487
-0.33883
-0.265006
-0.200283
-0.154461
-0.0999924
-0.115862
-0.189633
-0.174219
-0.0745227
-0.0891981
-0.102048
-0.130245
-0.141245
-0.146498
-0.677298
-0.669662
-0.629946
-0.571596
-0.503009
-0.430951
-0.357253
-0.285983
-0.223417
-0.181064
-0.131557
-0.147382
-0.260225
-0.36275
-0.393915
-0.473355
-0.478452
-0.449562
-0.422991
-0.407588
-0.670023
-0.662763
-0.628033
-0.573819
-0.508781
-0.440008
-0.369262
-0.300067
-0.238215
-0.196337
-0.153998
-0.167217
-0.345652
-0.644314
-1.06477
-1.29611
-1.32798
-1.27728
-1.16165
-1.07274
-0.651313
-0.64353
-0.615669
-0.56744
-0.507046
-0.441876
-0.373913
-0.305694
-0.242144
-0.196146
-0.159625
-0.153975
-0.338752
-0.664082
-1.02944
-1.15974
-1.13087
-1.02228
-0.93762
-0.893857
-0.614238
-0.607143
-0.591797
-0.552941
-0.497783
-0.436016
-0.370486
-0.301654
-0.232925
-0.176418
-0.131046
-0.0780117
-0.0515253
-0.00678114
0.00934945
0.0940881
0.201013
0.289283
0.372854
0.444856
-0.568805
-0.565117
-0.561014
-0.530766
-0.482688
-0.424211
-0.359336
-0.288543
-0.211443
-0.13359
-0.0593497
0.0746576
0.281665
0.620093
0.932901
1.19969
1.40453
1.52702
1.58632
1.60427
-0.538097
-0.538389
-0.531737
-0.509179
-0.466476
-0.409237
-0.342497
-0.268148
-0.181992
-0.0810445
0.0277707
0.188006
0.473525
0.880405
1.28095
1.61371
1.84035
1.96737
2.02099
2.0383
-0.506234
-0.507199
-0.500652
-0.49023
-0.452367
-0.395126
-0.325044
-0.246971
-0.156377
-0.0469233
0.0715094
0.196209
0.462628
0.800153
1.13139
1.41628
1.62922
1.75676
1.81435
1.83138
-0.477263
-0.475908
-0.475107
-0.472622
-0.438271
-0.382017
-0.310001
-0.229143
-0.13889
-0.0333007
0.0784344
0.161086
0.377843
0.656655
0.920455
1.14968
1.33309
1.4458
1.49614
1.50944
-0.467476
-0.465242
-0.469651
-0.463133
-0.429339
-0.370139
-0.296961
-0.21614
-0.130999
-0.0386249
0.0651865
0.121701
0.280586
0.507661
0.714547
0.888161
1.02811
1.11736
1.15729
1.16805
-0.452572
-0.451531
-0.459103
-0.452253
-0.419025
-0.356092
-0.28344
-0.205607
-0.127648
-0.050216
0.046105
0.0927281
0.197333
0.375322
0.538542
0.667991
0.769597
0.837424
0.867346
0.873853
-0.416963
-0.417676
-0.423916
-0.417912
-0.388077
-0.329313
-0.263039
-0.191942
-0.121702
-0.0580848
0.0285557
0.0729255
0.13722
0.270009
0.396192
0.492246
0.565023
0.613824
0.634208
0.640407
-0.34696
-0.349133
-0.354144
-0.349997
-0.326
-0.281053
-0.229094
-0.170492
-0.109377
-0.0583185
0.0152196
0.0575045
0.0975193
0.196568
0.28972
0.357724
0.409852
0.445284
0.460345
0.46552
-0.248476
-0.250788
-0.253283
-0.251647
-0.237504
-0.2112
-0.178397
-0.138032
-0.0896973
-0.0504325
0.00746622
0.0451458
0.0717888
0.148313
0.214989
0.261125
0.299528
0.326187
0.336757
0.339712
-0.148642
-0.1501
-0.151774
-0.15216
-0.147086
-0.13617
-0.120114
-0.0970592
-0.0650923
-0.0367456
0.00503244
0.0348197
0.0544955
0.114445
0.161921
0.192865
0.218686
0.235514
0.242928
0.245065
-0.0655126
-0.0665095
-0.0681208
-0.070658
-0.0720488
-0.071272
-0.0667763
-0.0566976
-0.0391502
-0.021365
0.00642219
0.0290195
0.0428595
0.0881523
0.120715
0.142696
0.158037
0.166877
0.170077
0.170216
-0.00687304
-0.00756521
-0.00908733
-0.013112
-0.0188137
-0.0237556
-0.0259321
-0.0240859
-0.0166228
-0.00774332
0.00937246
0.0264241
0.0378044
0.0680235
0.0888459
0.102485
0.110708
0.113845
0.113712
0.112601
0.0276231
0.0270985
0.0256976
0.0211777
0.0135113
0.00596644
0.000217869
-0.00260263
-0.000799308
0.00287603
0.0127411
0.024309
0.0334969
0.0508458
0.0633082
0.070285
0.0735656
0.0734482
0.0715613
0.0701967
0.0439018
0.0434927
0.0422503
0.038128
0.0305685
0.0225604
0.0153952
0.010266
0.00917294
0.0104131
0.0165197
0.0231825
0.0287429
0.03737
0.0435306
0.0466172
0.0477074
0.0467753
0.0449794
0.0433872
0.0492658
0.048925
0.047877
0.0444742
0.038168
0.0311605
0.0242122
0.0184454
0.0159018
0.0153642
0.0193842
0.0220107
0.0238227
0.0282209
0.0302833
0.0314886
0.0317661
0.0305526
0.0288912
0.0271648
0.0488183
0.0485492
0.0477425
0.0452553
0.0406129
0.0351457
0.0293508
0.0238904
0.0206781
0.0184176
0.0203713
0.0211796
0.0197763
0.0220677
0.0229964
0.0231869
0.0221724
0.0196994
0.0177272
0.0163462
0.0460152
0.0458141
0.045228
0.0434536
0.0401103
0.0359892
0.0314522
0.0266631
0.0234853
0.0202836
0.0208302
0.0203366
0.0186215
0.0200719
0.0208713
0.0201972
0.0188489
0.0170877
0.0156274
0.0142961
0.0421079
0.0419813
0.0415648
0.0403603
0.0379128
0.0347693
0.0312316
0.0272682
0.0246016
0.021415
0.021299
0.0200857
0.0195291
0.0210277
0.0223308
0.0223068
0.0209992
0.0198596
0.0191872
0.0180477
0.0375912
0.0375004
0.0371704
0.0363579
0.0346043
0.0323295
0.0296563
0.0265314
0.0244706
0.021824
0.0215632
0.0214557
0.021704
0.023377
0.024605
0.0258295
0.0257895
0.0254989
0.0253425
0.0244694
0.0328688
0.0327882
0.0325363
0.0320235
0.030771
0.0292388
0.0272907
0.0249699
0.0235813
0.0212994
0.0218167
0.0221857
0.0227244
0.0259164
0.0274675
0.0288057
0.031709
0.0333343
0.0334843
0.0324864
0.0283398
0.0282539
0.0280289
0.0276445
0.0268407
0.0259071
0.0245863
0.0229901
0.0221094
0.0202964
0.0212995
0.0216765
0.0232134
0.0262878
0.0299202
0.0330146
0.0359101
0.0384838
0.0400293
0.0384796
0.0243563
0.0242665
0.0241403
0.0238654
0.0232816
0.0227258
0.0218618
0.0205225
0.0198975
0.0185906
0.0197302
0.0199651
0.0229797
0.0253705
0.0300206
0.0356753
0.0383303
0.0399257
0.041442
0.0404154
0.0207293
0.0206258
0.0205265
0.0203467
0.01998
0.0195922
0.0190979
0.0180852
0.0175223
0.016222
0.0169131
0.0169125
0.0196588
0.0233723
0.0288255
0.0339163
0.0389646
0.0408517
0.0414127
0.0407326
0.0173734
0.0172654
0.0172283
0.0170726
0.0168027
0.0165781
0.0161593
0.015383
0.0151581
0.0135303
0.0132968
0.0122528
0.0141005
0.0173591
0.0250196
0.0306021
0.0351662
0.0381075
0.0389821
0.0377467
0.0142024
0.0140556
0.0140547
0.0140032
0.0138944
0.0134036
0.0132084
0.01226
0.0116252
0.0102098
0.00944602
0.00940027
0.00878811
0.0114595
0.0189624
0.0254432
0.0293324
0.0327921
0.0348696
0.0336953
0.010821
0.0107176
0.0107025
0.0106112
0.0104569
0.00989301
0.00983336
0.00906696
0.00897755
0.00802527
0.00572042
0.00545282
0.00239945
0.00966135
0.0160874
0.0207328
0.0274438
0.0313442
0.0324309
0.0312313
0.00734092
0.00709578
0.00690144
0.00688154
0.00664544
0.00604713
0.00553957
0.00561609
0.0067362
0.00796182
0.00698358
0.0025816
-0.00482566
0.00378266
0.0102981
0.0144713
0.019264
0.0204958
0.0207735
0.0203701
0.00355385
0.00356043
0.0034389
0.00296095
0.00161107
0.00140467
0.00107677
0.00256541
0.00543756
0.00751069
0.0110999
0.00427356
-0.00243699
-0.000449587
-0.000404511
-0.00151887
-0.00323813
-0.00381384
-0.00224445
-0.00201839
-1.0675
-0.217929
0.0524269
0.331663
0.517028
0.676721
0.808001
0.941471
1.08619
1.16581
-0.0786207
0.332348
0.351918
0.542301
0.669942
0.784135
0.882788
0.970293
0.998494
0.95573
0.30464
0.521157
0.559174
0.696993
0.785333
0.867201
0.934568
0.985046
0.987651
1.0012
0.538161
0.683754
0.719705
0.824
0.881117
0.940791
0.986259
1.01901
1.02832
1.05183
0.71924
0.822638
0.852409
0.922079
0.966403
1.00871
1.04125
1.06573
1.07571
1.10715
0.864567
0.934493
0.965021
1.00888
1.04532
1.07594
1.10056
1.12138
1.13571
1.16389
0.984947
1.03617
1.06194
1.09034
1.1184
1.14242
1.16259
1.18192
1.19695
1.22337
1.08948
1.12674
1.14805
1.16897
1.19003
1.20961
1.22713
1.24532
1.26024
1.28389
1.18393
1.21318
1.22965
1.24508
1.26141
1.27762
1.29325
1.31023
1.32384
1.34615
1.2725
1.293
1.30797
1.32131
1.33504
1.34891
1.36243
1.37702
1.38856
1.4082
1.35816
1.37412
1.38806
1.39994
1.41191
1.42355
1.43467
1.44633
1.45398
1.47079
1.44379
1.45648
1.47024
1.48192
1.49252
1.50226
1.51103
1.51925
1.5228
1.53407
1.53274
1.54385
1.55734
1.56657
1.57399
1.58118
1.58834
1.59485
1.5959
1.6033
1.63128
1.63593
1.64396
1.64848
1.65179
1.65626
1.66228
1.67
1.67386
1.68374
1.74432
1.73079
1.72346
1.71788
1.71523
1.7166
1.72302
1.73541
1.7502
1.77986
1.86573
1.80989
1.77897
1.76181
1.75364
1.75361
1.76238
1.78196
1.81388
1.8831
)
;

boundaryField
{
    wall-4
    {
        type            zeroGradient;
    }
    pressure-outlet-7
    {
        type            fixedValue;
        value           uniform 0;
    }
    velocity-inlet-6
    {
        type            zeroGradient;
    }
    velocity-inlet-5
    {
        type            zeroGradient;
    }
    frontAndBackPlanes
    {
        type            empty;
    }
}


// ************************************************************************* //
