/*--------------------------------*- C++ -*----------------------------------*\
  =========                 |
  \\      /  F ield         | OpenFOAM: The Open Source CFD Toolbox
   \\    /   O peration     | Website:  https://openfoam.org
    \\  /    A nd           | Version:  9
     \\/     M anipulation  |
\*---------------------------------------------------------------------------*/
FoamFile
{
    format      ascii;
    class       volScalarField;
    location    "32";
    object      p;
}
// * * * * * * * * * * * * * * * * * * * * * * * * * * * * * * * * * * * * * //

dimensions      [0 2 -2 0 0 0 0];

internalField   nonuniform List<scalar> 
918
(
0.525594
1.17618
0.0179595
0.524877
-0.0180112
1.14322
-0.533172
0.696492
0.505709
-0.118522
-0.0568944
0.499627
1.00391
0.771672
-1.16075
0.0613837
0.647511
-0.410587
0.504702
-0.157385
0.729273
0.512321
0.515358
0.505948
0.565932
0.75189
0.885011
-0.0637862
0.00506715
-0.0362988
-0.0594651
-0.0681303
-0.0477193
1.02685
1.07796
1.10065
0.474178
0.30049
-0.392068
-0.463861
-0.454842
-0.582015
0.68817
0.69021
-0.199992
0.696998
0.706844
0.492968
0.505072
0.505968
0.507077
0.506018
0.507421
0.384595
-0.127153
-0.156582
-0.0968504
-0.0895681
0.0608264
-0.0582612
-0.0634157
-0.0559173
-0.0654212
0.426118
0.495894
0.492984
0.504255
0.511788
1.11573
1.08764
1.11378
1.02753
1.04399
0.981857
0.954468
0.791048
0.812708
0.758474
0.745408
-1.59902
-2.56227
-0.564367
-0.309613
-0.0489902
0.0785739
0.0683656
0.638181
0.638447
0.648301
0.660731
1.04716
-0.406484
-0.532438
0.504846
0.503635
0.512023
0.512714
0.508723
0.507818
-0.158988
-0.140735
-0.125903
-0.156346
-0.140836
0.718026
0.716964
0.506493
0.503513
0.519279
0.539211
0.531352
0.260514
0.57093
0.585776
0.573546
0.740239
0.735686
0.743801
0.858539
0.822751
0.921984
0.945103
-0.0394102
-0.0412064
0.0912729
0.0273694
0.0573466
0.470146
0.462913
0.488759
0.477519
0.479923
0.215686
0.0800461
0.386904
0.412393
-0.302656
-0.365888
-0.466825
-0.485858
-0.597383
0.569191
0.676311
0.677258
-0.219519
-0.139925
-0.277558
-0.0664902
-0.128217
0.483424
0.490288
0.485376
0.500708
0.495223
0.497157
0.509293
0.506381
0.507936
0.447605
0.571844
0.311618
0.278416
-0.270938
-0.175192
-0.272601
-0.078198
-0.0724548
0.0653313
0.0832531
0.0533056
0.0434515
-0.0705524
-0.0648957
-0.0700541
-0.0755408
-0.0821187
0.419006
0.408489
0.438087
0.445037
0.486645
0.487678
0.490602
0.489298
0.905135
0.927545
0.935141
0.90885
-3.56439
-6.36976
0.0198685
0.158982
-0.09229
-0.101129
-0.0528813
-0.0657162
-0.0483329
-0.0175641
0.0345259
0.030509
0.0438243
0.054416
0.622982
0.622896
0.963995
0.960611
0.948327
0.89853
0.492876
0.495009
0.500573
0.496418
-0.0993024
-0.127559
-0.110581
0.70505
0.712333
0.712062
0.224367
0.140346
0.308543
0.335771
0.608773
0.591205
0.60581
0.635403
0.67342
0.952572
0.970883
0.969029
0.977461
1.02144
1.0378
1.00326
0.450498
0.459958
0.455221
0.492036
0.489682
0.490657
0.485945
0.487577
0.485297
-0.0724775
-0.456906
0.471473
0.487361
0.46159
0.471002
0.645421
0.716839
0.659911
0.668639
0.669059
-0.00043246
-0.0579814
0.233918
0.200668
0.362003
0.396476
0.376579
0.876406
0.836762
0.886842
0.860083
0.821253
0.847072
-0.408852
-1.92406
-1.03452
0.515315
0.325679
0.41488
0.0306441
0.021677
0.032104
0.952492
1.03216
0.628546
0.791737
0.802113
0.708989
0.738991
0.796888
0.724521
0.757973
0.790551
0.769174
0.526603
0.484028
0.48677
0.784679
0.839848
0.11382
0.0600347
0.0157227
0.102505
0.158233
0.135929
0.999027
0.897059
0.969189
0.503258
0.503946
-0.118869
-0.141126
0.508056
0.508077
-0.0808933
-0.0428982
0.39645
-0.870502
0.102576
0.496499
0.486834
0.503715
-0.105947
0.34098
-0.0586061
0.0550252
0.0182845
0.496941
0.435754
0.397535
-0.191527
0.0299339
-0.145954
-0.233719
0.500931
0.499243
0.503181
0.504189
0.504841
-0.233425
-0.188014
-0.170854
-0.199624
-0.184997
-0.177254
0.46857
0.485458
-0.187196
0.503298
0.505443
0.505251
0.498403
0.504057
0.502302
-0.0155917
-0.0233795
0.0185197
0.210306
0.328116
0.643939
0.739909
0.609016
0.382146
0.143184
0.543466
0.60909
0.511335
0.670186
0.669653
0.688113
0.165031
0.017271
0.173276
0.116697
0.494372
0.493027
0.485084
0.482204
0.498589
0.496682
0.501229
0.498176
0.50114
0.502581
-0.061826
-0.0799017
-0.103433
-0.161328
0.299643
0.559884
0.235349
0.267373
0.138551
-0.048959
-0.052882
-0.0587031
-0.0676825
-0.0121488
-0.00391984
0.0461015
0.0563841
0.0383033
0.0140216
-0.0127635
-0.016145
-0.0222696
0.490883
0.489717
0.495609
0.503591
0.444823
0.448747
0.415351
0.435038
0.420938
0.362382
0.396757
0.371874
-0.0855408
-0.162507
-0.0982963
0.0080615
0.0249544
-0.214637
-0.265227
-0.22781
-0.206185
-0.225216
-0.129109
-0.133083
-0.194254
-0.308498
0.950882
0.892094
0.0885443
0.490159
0.496542
0.493364
0.498133
0.50122
0.502099
0.499848
0.49638
0.486087
0.487881
0.484202
0.484751
-0.12711
-0.264253
-0.0886797
-0.155826
0.109227
0.601394
0.341611
0.282585
0.276195
0.496713
0.891954
0.688532
0.686376
0.709854
-0.374856
0.0216724
-0.307707
0.310092
0.13278
0.642431
0.69185
0.713794
0.661675
0.613422
-0.143305
0.515794
-0.0757014
-0.0310982
0.160798
0.0536832
0.687351
0.652963
0.65814
0.675368
0.694029
0.658659
0.637737
0.632356
0.671874
0.677292
0.471551
0.243118
0.198518
0.160293
0.636792
0.512755
0.570891
0.484234
0.489264
0.492097
0.490672
0.473265
0.480483
0.476245
0.481947
0.485104
0.494305
0.494641
0.490082
0.492258
-0.0662337
-0.0709672
-0.0470546
-0.15871
-0.146025
-0.203849
-0.0878963
0.0462911
0.0132864
0.202783
0.309517
0.0213094
-0.091785
-0.0615243
-0.0329555
0.147033
0.172487
0.056365
0.154501
0.133258
0.120855
0.221508
0.230232
-0.0348408
-0.0392661
-0.0484741
-0.0465721
0.0219076
0.0903493
0.103048
-0.0204229
-0.0125212
-0.0467292
-0.0653154
-0.0355733
-0.0396221
-0.0348723
0.00144934
-0.120667
-0.033521
-0.0213098
-0.0183551
0.00040837
-0.0061542
0.484733
0.486549
0.486369
0.493464
0.509668
0.52443
0.48636
0.466632
0.457707
0.460684
0.434881
0.444681
0.441267
0.453477
0.47359
0.481782
0.480145
0.482616
0.465971
0.46752
0.455163
0.458434
0.435399
0.417042
0.405616
-0.14464
-0.133826
-0.149777
-0.102544
-0.102829
-0.0848718
0.0172833
0.0121992
0.00924582
0.0117361
0.014605
-0.176845
-0.180128
-0.104928
-0.0276872
-0.212632
-0.245179
-0.315343
0.856943
0.973172
0.783165
0.561489
0.569401
0.806769
0.894932
0.525312
0.704425
0.730899
0.541362
0.800663
0.49496
0.494504
0.492147
0.491638
0.492862
-0.0395095
0.060154
0.0709719
0.124902
0.241469
0.355585
0.274864
0.146786
0.280944
0.287122
0.596087
0.612234
0.558855
0.582722
0.580254
0.408504
0.485819
0.541478
0.494184
0.53995
0.562256
0.522792
0.553179
0.499221
0.456421
0.455159
0.401414
0.422165
0.400289
0.382494
0.484476
0.462536
0.472933
0.463522
0.483167
0.509521
0.50423
0.530842
0.542193
0.468635
0.428896
0.438494
0.466723
0.427394
0.44025
0.455834
0.192312
0.0926496
0.176599
-0.116037
-0.0351194
-0.0506069
-0.0973961
-0.0516534
0.234723
-0.464421
-0.437833
-1.07108
0.45646
0.923466
0.641536
0.612644
0.689597
0.66797
0.670634
0.693598
0.700929
0.626517
0.644104
0.64844
0.60299
0.627016
0.648855
0.647409
0.489132
0.364184
0.355092
0.316077
0.192292
0.225321
0.428035
0.350025
0.27734
0.28185
0.444161
0.333834
0.399865
0.438098
0.369832
0.325126
0.527543
0.594462
0.584866
0.560435
0.475901
0.488408
0.513986
0.549764
0.576904
0.608763
0.481752
0.487582
0.48885
0.486396
0.483546
0.486415
0.486459
0.489007
0.489876
0.492793
0.491778
-0.0635694
-0.0530162
-0.0581874
-0.0669108
-0.0373959
-0.0449672
0.00055014
-0.0118674
-0.0243839
-0.016467
-0.0445241
-0.0495951
-0.0407949
-0.0329208
0.0764699
0.0917686
0.0771597
0.0334433
0.215331
0.348061
0.41573
0.295118
0.188665
0.2128
0.238499
-0.0257444
0.0117599
-0.00663285
0.0341469
0.0176804
-0.0462379
-0.0545693
-0.0613642
-0.0293006
-0.025989
-0.0718723
-0.113998
-0.085998
-0.082345
-0.0695313
-0.0946604
0.468838
0.462449
0.463678
0.457818
0.456657
0.470199
0.474359
0.476097
0.48131
0.483113
0.473859
0.479198
0.482625
-0.04905
-0.128569
-0.0949986
-0.0815194
-0.113573
-0.138792
-0.118579
0.0828863
0.00881323
0.0148359
-0.0265015
-0.150155
-0.0944927
0.449007
0.448583
0.454768
0.674427
0.52638
0.446717
0.543522
0.647791
0.229861
0.430376
0.262221
0.843922
0.735488
0.880043
0.500396
0.204678
0.359444
0.409042
0.218469
0.291275
0.295496
0.18552
0.217597
0.24864
0.348011
0.228711
0.20353
-0.0392817
0.148012
0.265624
0.246285
0.376059
0.440247
0.220957
0.143646
0.0975387
0.588379
0.608219
0.627308
0.597002
0.621788
0.544123
0.535848
0.553888
0.561812
0.555886
-0.799177
-0.506788
-1.45175
-0.766919
-0.31706
0.486511
0.450829
0.724778
0.614726
0.679834
0.665447
0.626311
0.592255
0.603811
0.636318
0.337733
0.447362
0.421895
0.428036
0.330859
0.264279
0.563119
0.55673
0.592875
0.617121
0.584256
0.617749
0.479564
0.479236
0.478665
0.475301
0.473881
0.475941
0.0401256
0.0114203
0.0430538
0.0206388
-0.00141859
-0.0106768
-0.0220036
-0.0358931
-0.0524964
-0.0703623
-0.0458038
-0.0215169
0.124331
0.0664952
-0.009807
0.0198366
-0.0374003
-0.102514
-0.121588
-0.0231685
0.0678311
0.0594414
0.362271
0.613326
0.435836
0.604986
0.44346
0.499264
0.445567
0.43611
0.466319
0.344663
0.422245
0.186748
-0.316675
-0.225594
0.740986
0.759705
0.543165
0.356757
0.127201
0.315894
0.516384
0.453406
0.492288
0.560855
0.553079
-0.0268722
0.0401068
0.301552
0.529854
0.197622
0.188325
0.183665
0.358337
0.282338
)
;

boundaryField
{
    wall-4
    {
        type            zeroGradient;
    }
    velocity-inlet-5
    {
        type            zeroGradient;
    }
    velocity-inlet-6
    {
        type            zeroGradient;
    }
    pressure-outlet-7
    {
        type            fixedValue;
        value           uniform 0;
    }
    wall-8
    {
        type            zeroGradient;
    }
    frontAndBackPlanes
    {
        type            empty;
    }
}


// ************************************************************************* //
