/*--------------------------------*- C++ -*----------------------------------*\
  =========                 |
  \\      /  F ield         | OpenFOAM: The Open Source CFD Toolbox
   \\    /   O peration     | Website:  https://openfoam.org
    \\  /    A nd           | Version:  9
     \\/     M anipulation  |
\*---------------------------------------------------------------------------*/
FoamFile
{
    format      ascii;
    class       surfaceScalarField;
    location    "32";
    object      phi;
}
// * * * * * * * * * * * * * * * * * * * * * * * * * * * * * * * * * * * * * //

dimensions      [0 3 -1 0 0 0 0];

internalField   nonuniform List<scalar> 
1300
(
3.75095
5.62643
-3.83888
3.75095
-4.76896
5.62643
-4.44953
4.44953
-1.03078
1.03078
1.87645
1.87451
-2.98192
2.98192
-2.43259
2.43259
-2.56209
2.56209
-5.24646
5.24646
-5.06835
5.06835
4.66817
-4.66817
-5.43386
5.43386
-1.39683
1.39683
-3.84279
3.84279
3.16976
-3.16976
-2.29411
2.29411
-0.272055
0.272055
-0.553537
4.30449
3.19742
3.19742
-2.07075
2.07075
-4.86318
4.86318
6.2182
-6.2182
5.36916
-5.36916
-1.53028
-2.99863
0.932729
-10.1506
-3.83623
-3.83623
-8.4404
8.4404
-2.81397
2.81246
2.94323
-2.94323
-1.78255
1.78255
-4.39201
-0.0575191
-4.39201
4.4392
0.0103247
4.4392
-1.13169
0.100911
-1.13169
3.94298
-3.94298
0.880373
0.150408
0.880373
3.06466
-3.06466
-1.87706
3.7535
1.8739
-1.87186
6.17635
-1.87909
3.7536
-5.93084
5.93084
-3.19247
0.210549
-3.19247
2.77961
0.20231
2.77961
-6.71268
6.71268
-2.41931
-0.0132796
-2.41931
2.39143
0.0411548
2.39143
2.86538
-2.86538
-2.66012
0.0980346
-2.66012
2.45315
0.108934
2.45315
0.353543
5.27289
-5.97997
8.79243
-5.27289
0.0264242
5.20845
0.0380099
5.20845
-5.10591
0.0375581
-5.10591
5.01141
0.0569364
5.01141
4.7589
-0.0907343
4.7589
-4.78304
0.11487
-4.78304
-3.13367
-5.44761
-5.97268
0.53882
-5.97268
-1.39993
0.00309585
-1.39993
1.35585
0.0409776
1.35585
-3.57907
3.57907
-4.22016
0.377375
-4.22016
3.12421
0.0455577
3.12421
1.86852
1.88244
5.61947
-5.61947
2.44971
-2.29138
-0.00272794
-2.29138
-2.33631
-3.03285
2.33631
-0.042203
-0.540589
0.268534
-0.540589
3.15924
0.0381782
3.15924
2.29985
0.153304
-2.29985
0.229101
3.20137
-3.20137
1.44408
0.62667
1.44408
-5.56694
5.56694
4.95331
0.0580963
-4.95331
0.0901398
6.15663
0.0615705
6.15663
-6.19955
-0.0186554
-6.19955
1.58549
-4.58412
-3.79219
4.67423
0.759632
-4.67423
0.837997
2.91357
0.0296509
2.91357
-2.9212
2.9212
-2.98293
0.0397065
-2.98293
-2.18397
0.401423
-2.18397
1.48163
0.300919
1.48163
-4.26636
-0.12565
-4.26636
-4.36024
0.140077
4.36024
0.0789609
1.07822
-1.07822
-1.2374
0.105712
-1.2374
-4.09665
-0.169705
4.09665
-0.153675
-3.81709
-0.125892
-3.81709
-3.02333
0.0403975
3.02333
0.0413352
3.11253
0.046709
-3.11253
0.0478644
-1.87084
3.75328
-1.88011
3.75401
-5.54656
-0.38428
-5.54656
6.24186
-0.311023
6.24186
3.53285
0.309937
-3.53285
0.340379
2.616
0.163614
2.616
-6.69975
-0.0129273
-6.69975
6.67138
0.041297
6.67138
2.4942
0.121799
-2.4942
0.0748937
2.33492
0.0565102
2.33492
2.87962
-0.0142349
2.87962
-2.86359
-0.00179302
-2.86359
2.80222
-2.80222
2.73527
0.0669504
-2.73527
0.0751459
-11.1329
11.1143
-0.0352109
-11.0977
5.17324
5.17324
4.1881
0.570804
4.1881
-4.9973
0.214255
-4.9973
2.12228
-5.91447
5.00156
-8.13523
5.38118
-15.5318
3.69476
-9.14237
6.4771
-6.4771
6.26713
0.209966
-6.26713
0.294447
-1.42264
0.0227098
-1.42264
-2.97155
-0.607516
-2.97155
4.23572
-0.656648
4.23572
-3.0292
3.0292
-3.07802
0.0488244
3.07802
0.0461828
2.25121
0.0837127
-2.25121
-0.0401741
0.713643
0.16673
-0.713643
0.173054
3.40552
-0.204147
3.40552
-3.01967
-0.181703
-3.01967
-1.43567
0.0130289
1.43567
0.00841311
-5.81619
0.249249
-5.81619
-11.1907
0.0929772
-11.1527
-6.10657
-6.10657
2.33383
11.1263
-2.88605
0.0224601
2.88605
0.027526
2.97631
0.0528858
-2.97631
0.055115
-2.86346
0.0612428
2.86346
0.0577367
-2.56129
0.377323
-2.56129
-1.0728
1.0728
-1.24687
0.174065
1.24687
0.234761
1.32261
-0.244387
1.32261
1.30675
0.0491025
-1.30675
0.0693474
-3.70671
-0.110372
-3.70671
6.46837
-0.226504
6.46837
-2.92689
-0.0927764
2.92689
-0.047278
-0.0333208
11.1476
-5.13992
0.034016
5.13992
-11.2092
11.2432
-3.23499
0.673692
3.23499
0.953114
5.28813
0.278811
-5.28813
0.290835
6.60372
0.0676594
-6.60372
0.126627
-2.48074
-0.490813
-2.48074
-4.96476
-0.581799
4.96476
-0.729042
-11.4757
-0.202464
11.6781
-11.4187
6.01866
0.137979
-6.01866
11.3812
-1.00238
-0.0758424
1.00238
0.0704264
1.63542
-0.312813
1.63542
3.59827
-0.192746
-3.59827
-0.108447
-6.62037
-0.0793851
6.62037
-0.151999
-2.04296
-0.437778
2.04296
-0.407544
-4.26698
4.30516
1.90937
-1.37448
-3.20964
-4.40732
1.85206
1.90121
4.30177
-10.1926
-5.33921
-9.35456
7.26636
-6.97552
-9.27108
9.18035
7.61098
-7.73687
-5.78538
5.83157
6.48189
-6.44055
1.87869
1.87481
7.88738
-7.67683
-15.6985
15.3143
7.42626
-7.43954
15.7864
-15.7993
-17.8007
17.8683
-5.72462
5.82265
-6.72524
6.72345
-6.93146
6.88418
-2.40839
-5.72684
13.1924
-12.6536
7.24751
-7.25024
-8.50174
8.87911
3.38242
0.922738
3.42913
-1.88231
3.761
-1.87129
3.78066
4.02769
-6.43608
1.88679
-5.09643
3.30986
3.93765
-3.26765
-1.13967
-5.9186
5.94825
-5.82203
5.87977
8.9515
-9.00902
-1.88512
3.75994
-1.86889
3.7701
-3.42522
-2.36017
3.37966
0.922109
7.59309
5.59935
-8.35272
-1.00183
-7.852
7.65925
-8.12562
7.94391
-0.441918
5.82081
-5.37889
4.42126
-1.55787
7.37868
5.70849
5.92275
5.86674
-5.58792
1.10879
-6.48768
-6.39754
-2.54022
2.64593
2.48889
-2.33848
5.98198
1.62899
5.82831
-5.57312
-2.16375
-5.6835
3.82127
2.0103
3.87009
4.07667
2.40522
4.11707
3.03075
-3.0357
0.00494378
-3.05628
6.08703
0.72424
-5.41645
-4.49434
4.92588
2.9615
5.12819
-5.47891
-2.19793
-5.13853
-9.56842
-6.13013
-10.1502
10.125
5.18926
9.81398
-11.9797
11.8277
4.67707
2.74919
4.71823
-4.91047
-2.52907
-4.83557
11.625
-2.54505
-9.07995
-10.3095
-7.49121
10.2682
5.51824
10.9146
6.95378
11.0412
4.42124
7.20376
-9.93948
2.44827
-3.86972
-1.8549
-3.79457
3.69599
2.12666
3.80493
-4.21298
-2.51226
-4.19052
-4.28444
-2.64702
4.29868
2.42477
-4.38935
-3.73627
4.48213
2.40206
5.22657
-10.5658
3.9158
-9.64264
-9.19218
-3.46144
-8.89773
4.59663
2.69579
-7.29242
-1.83944
8.07554
-4.13789
6.93587
-4.29377
-2.95646
-4.33395
-6.79316
-1.70858
-6.65308
-8.8978
8.40698
-9.20891
8.55226
12.6795
-5.71293
-6.96655
-3.96804
-2.47251
3.92018
-0.491046
-3.71121
3.71615
0.0497946
3.83045
4.75319
4.26215
-3.88733
-1.93471
-3.83221
3.83296
2.04681
3.89421
6.73863
2.21287
6.74895
-6.45745
-2.55157
-6.5831
9.07461
-8.67319
2.90885
-2.89582
5.28624
2.65767
-5.08209
-2.76991
6.2044
-3.13602
-3.06837
-12.2111
10.5595
1.65154
-4.83239
-0.411136
-0.13908
-5.4993
-3.77179
5.38443
0.538318
11.0978
7.32606
-5.51244
5.76169
6.16568
6.22377
-0.173767
5.83417
-5.16048
5.32544
-2.42236
-2.90308
5.32001
-5.48971
-1.26309
-5.33364
4.07054
0.338597
1.73009
-1.46155
-2.01047
-0.529748
-1.94112
1.48077
1.00813
1.6475
0.959208
1.68672
-2.94875
0.550851
2.3979
-1.98954
-1.78763
-3.69303
-1.02506
4.71809
5.58253
2.07673
-5.47408
-0.209419
2.70328
-2.66231
-0.788822
-2.90421
2.1163
-2.90512
-3.61266
-1.89304
5.5057
-3.37085
-0.461356
3.31797
0.552121
-3.825
-2.0936
3.78529
0.33178
-3.12489
6.18995
-3.06506
-5.05959
2.52885
3.55819
4.53915
-4.79007
2.44616
2.34391
-1.23189
4.21778
0.910406
4.3814
-6.71804
4.52011
5.73623
3.14289
-6.04616
0.907637
-5.8104
8.46466
-7.27356
-1.1911
4.0886
4.37605
7.17219
5.50729
-5.74031
12.9125
-1.14987
-6.12369
6.96027
-3.81739
4.76628
-8.58367
-10.2736
4.14989
-9.24442
10.9985
-1.7541
-3.61645
-8.36324
12.8609
-1.22424
-11.6366
8.58975
-4.23057
-4.29983
8.5304
-6.77563
6.8289
-1.99957
-4.82934
-10.114
-5.68532
10.1934
1.63428
-9.91157
12.3598
-2.70781
3.7953
0.922926
3.85181
3.27411
-5.40658
2.13247
3.50152
-5.50108
2.08393
-7.49051
-7.20428
12.9151
-5.71084
-10.6657
-9.71161
-0.954114
2.50505
9.85479
-9.45883
7.35818
2.10065
3.31031
0.583897
-3.37726
-0.417313
0.263498
4.54728
-4.81078
4.06842
4.22173
3.37385
1.17343
3.83938
2.10887
-3.86691
-0.323614
-4.15309
1.50607
-1.72832
-3.65347
5.15954
-4.06614
0.412677
-2.73011
-3.50949
6.23959
-4.58501
3.03965
3.1503
5.08645
-4.90953
1.40005
-2.39987
-2.50966
2.6661
-4.39442
1.94373
3.21581
4.34579
0.60952
6.79201
6.12311
-9.48779
-0.154853
11.7225
-10.7206
2.55491
8.48628
-9.91309
0.201488
-8.69624
1.42242
-5.56031
-5.87
5.08452
-6.7931
-3.49915
6.13559
0.613362
-6.21455
-0.438533
-6.04477
-2.85303
-6.48254
-3.06352
-6.14539
-8.80383
-1.65408
-7.14976
6.75291
-6.69475
-3.45547
7.42379
1.12847
-7.41041
7.33456
-7.49544
7.18263
0.094762
3.62139
4.35691
1.8844
-2.3895
4.2739
-5.07007
7.28294
-8.57827
3.5082
4.05426
-6.60583
-4.52401
5.03875
4.03586
5.33967
8.94616
-10.4457
1.4995
-10.7675
12.1041
-1.33661
-16.5505
5.78305
-7.60439
2.64547
0.263387
2.66817
0.659052
2.42792
-3.08697
-2.23677
-2.22836
-2.34841
-3.42733
5.77574
1.1571
-3.42799
2.27089
-3.48987
4.64697
-0.0724951
-3.35549
5.28738
-2.85946
5.55077
-3.56237
1.9884
3.34493
5.7039
-2.35897
4.35395
-1.69627
1.84329
-4.20226
-1.58404
-2.97019
5.09685
-3.26941
3.68208
-0.286068
3.96815
-4.08718
0.951159
-0.71333
3.5084
3.7375
4.29069
-3.11726
2.97994
-4.67622
-1.22232
-4.0667
-0.85089
-0.294551
-3.77668
4.07123
6.04096
-6.33551
-5.25708
9.5647
-4.30762
7.71878
-5.40225
-2.31653
-4.27252
-4.40067
3.8952
1.93897
9.65775
0.21028
-5.61253
-4.95019
-3.99708
3.21465
2.11079
-1.92668
3.57822
2.06576
-0.335673
0.572213
1.07528
1.8569
-1.28468
0.213216
1.64368
-1.24834
1.98529
0.717992
-2.0344
0.093271
-1.36619
3.48248
1.03171
-2.03984
0.755157
1.06671
-3.48907
4.84239
-2.48607
-2.35632
5.9091
1.16141
-3.64748
4.17223
-3.83363
2.33353
-3.35859
-1.31395
-5.14758
-3.51859
-2.53574
4.80663
-3.24
5.31673
1.19397
-5.10731
6.30128
-3.57471
1.68167
-3.06962
3.78762
-1.07226
-1.99737
2.79869
2.70701
-2.93684
0.0326319
-0.138146
2.33163
-2.46978
-0.573486
-2.56303
-4.571
4.90278
-2.10811
4.55427
2.16578
-1.91423
6.46851
1.81169
-3.72592
-3.2479
-3.70926
-1.38201
3.15714
-0.571812
-4.26376
-5.40115
4.14196
0.239437
-6.86756
7.66846
-0.800903
-3.90605
-0.614057
4.70266
-5.98153
0.480444
-3.8976
3.77086
4.68127
4.9207
-11.4491
-0.187531
-6.25984
1.15432
-7.41417
5.53038
-3.60842
7.75831
-10.4326
6.97709
-9.30408
6.56721
-0.846961
6.25467
-4.12221
2.82527
-8.5106
-6.87632
5.48589
-2.7367
6.40881
-3.0859
9.49471
-5.79371
5.02697
4.46774
-0.689751
-3.6442
-5.3183
4.62855
-0.291327
3.56048
4.97352
-2.86466
4.64991
2.25677
-4.65664
-2.13765
-6.49827
1.84163
-3.34797
-1.91497
3.75659
3.17149
3.75538
1.24694
-3.33807
7.59674
-8.55085
-1.8859
-3.9841
5.28077
-0.652222
3.236
-7.2201
-2.32431
4.87531
-0.805092
-4.07022
0.837614
-4.33676
1.65509
-5.99185
5.13801
-5.57654
2.20709
-9.81147
-5.20332
-5.13289
-2.24662
-5.24883
-7.6244
5.37779
-1.84135
5.49321
-8.6066
7.80151
-3.49751
8.8753
-5.44071
-1.04183
5.84826
1.33437
10.2097
0.177022
-4.70103
-1.88744
3.95608
-2.06864
1.32721
-3.59965
0.356424
2.47438
3.43472
-6.54492
-0.0609027
-4.76193
-3.92477
7.96063
5.63993
11.6809
1.23524
9.15282
-1.19219
10.3881
4.14748
4.38224
-3.06104
4.56054
1.01018
4.51838
-0.838415
2.82682
1.82976
1.83286
0.829452
2.30863
1.42887
3.25978
0.172813
-2.05554
4.63738
-8.63446
-0.975151
-8.06366
1.11669
5.7274
-4.61071
3.10506
-0.994273
1.03643
0.10639
-1.62165
1.51526
-2.79669
-1.95733
-0.313648
-1.60488
2.36004
1.8776
-2.04639
-0.750296
0.318529
-3.83712
3.04006
-3.00743
-0.300419
6.00086
-2.74785
0.278073
-1.06618
-2.28496
-2.8147
2.72143
6.17691
0.291594
3.11185
5.19437
3.10077
0.236115
3.92142
-5.67552
-3.56908
-5.86305
-0.332673
4.36999
1.6614
8.19339
6.12913
5.47691
-1.74318
-10.294
6.59509
-2.03455
5.25848
-1.18826
-4.80359
4.96577
2.31718
-5.57913
0.00258818
-4.801
-6.83555
-0.529374
8.33088
-9.68029
8.63846
5.78543
1.36433
-4.40942
-0.723475
4.23535
0.146891
10.5349
-1.12883
-6.81456
7.94339
-4.59857
3.62342
0.836293
2.74193
2.35156
1.35728
-5.45728
-10.068
-1.90898
-1.58009
-4.2653
0.452788
-2.33039
6.25071
-2.62729
3.93418
5.31611
6.35254
-2.15663
-4.17888
6.46425
-2.53007
3.82246
)
;

boundaryField
{
    wall-4
    {
        type            calculated;
        value           uniform 0;
    }
    velocity-inlet-5
    {
        type            calculated;
        value           uniform -3.75095;
    }
    velocity-inlet-6
    {
        type            calculated;
        value           uniform -5.62643;
    }
    pressure-outlet-7
    {
        type            calculated;
        value           nonuniform List<scalar> 8(3.83888 4.76896 4.52891 9.21785 8.58128 5.37768 7.12384 9.07594);
    }
    wall-8
    {
        type            calculated;
        value           uniform 0;
    }
    frontAndBackPlanes
    {
        type            empty;
        value           nonuniform List<scalar> 0();
    }
}


// ************************************************************************* //
