/*--------------------------------*- C++ -*----------------------------------*\
  =========                 |
  \\      /  F ield         | OpenFOAM: The Open Source CFD Toolbox
   \\    /   O peration     | Website:  https://openfoam.org
    \\  /    A nd           | Version:  9
     \\/     M anipulation  |
\*---------------------------------------------------------------------------*/
FoamFile
{
    format      ascii;
    class       volVectorField;
    location    "32";
    object      U;
}
// * * * * * * * * * * * * * * * * * * * * * * * * * * * * * * * * * * * * * //

dimensions      [0 1 -1 0 0 0 0];

internalField   nonuniform List<vector> 
918
(
(0.985167 -0.000495929 0)
(0.00501105 2.96625 0)
(-0.0520322 1.02193 0)
(0.979699 0.00215269 0)
(-0.041525 1.27071 6.35421e-20)
(-0.00704143 2.94879 -2.44666e-18)
(0.833405 1.17759 4.6909e-19)
(0.342665 0.157206 -1.54507e-20)
(0.999906 -0.000292867 0)
(0.0543152 0.852864 0)
(0.00686159 0.679715 0)
(0.734439 -0.0107236 0)
(0.0110954 2.93037 0)
(0.00239702 2.79466 0)
(-0.0176296 3.1575 8.11085e-19)
(-0.110152 1.71665 -6.27929e-20)
(0.420057 0.052244 1.00995e-18)
(0.189738 1.19499 3.44367e-19)
(0.96278 0.00503214 0)
(-0.0228701 0.64753 0)
(0.0817375 0.196555 -7.29056e-19)
(1.00198 -0.00498377 0)
(1.00022 -0.00979992 0)
(0.975713 -0.0064391 0)
(0.590228 -0.0414976 0)
(0.0161326 2.63814 0)
(-0.0149229 2.91006 8.98712e-19)
(-0.0902288 0.898413 0)
(-0.197911 1.2062 0)
(-0.0705124 0.947517 0)
(-0.201199 2.45842 0)
(-0.0306944 1.42271 -4.99953e-20)
(-0.0743661 1.13511 0)
(-0.0206202 2.98759 -8.78748e-23)
(-0.0166929 3.0053 1.90164e-18)
(0.00210319 3.00019 0)
(0.870392 -0.00945499 0)
(0.404309 0.938385 1.58281e-19)
(0.814681 1.19348 -5.39737e-19)
(0.964467 1.03256 5.75505e-19)
(0.684389 1.28681 -1.084e-19)
(0.683313 1.27119 6.27253e-19)
(0.383213 0.244021 1.50735e-20)
(0.361691 0.127407 0)
(1.14395 0.556435 0)
(0.345939 0.244899 6.89568e-20)
(0.303659 0.163859 -7.15613e-20)
(0.919661 -0.00746635 0)
(1.00027 0.000132822 0)
(0.99991 0.000327632 0)
(1.00364 -0.00778012 0)
(1.00096 -0.00092786 0)
(1.00017 2.72667e-05 0)
(0.0776115 1.78909 -7.36208e-19)
(0.0298013 1.00852 0)
(0.0839487 0.912609 0)
(0.0285237 0.953448 0)
(0.0275834 0.78236 0)
(0.0288271 2.00511 0)
(-0.0204285 0.816401 0)
(0.0106347 0.672594 0)
(-0.00853764 0.809236 0)
(-0.00570604 0.666507 0)
(0.835947 -0.0148279 0)
(0.851653 0.0269481 0)
(0.768396 -0.00112781 0)
(0.825949 0.0355769 0)
(0.701863 -0.0150899 0)
(0.0146927 3.0004 9.06614e-19)
(0.0115097 3.00796 0)
(0.00612516 3.0028 0)
(0.0135346 2.99734 1.02814e-23)
(0.00798544 2.95848 -1.34745e-18)
(0.014479 2.98206 0)
(0.0108094 2.90364 0)
(0.0248488 2.93067 2.0547e-24)
(0.00445042 2.82478 0)
(0.0306835 2.91607 0)
(-0.00568315 2.74491 0)
(0.308527 3.55444 0)
(-0.131932 3.63601 0)
(0.139704 3.24794 -7.54809e-19)
(-0.0124113 2.98301 0)
(-0.319746 2.28838 0)
(-0.117691 1.87704 6.47486e-20)
(-0.0843146 1.86381 -5.12991e-20)
(0.503386 0.149914 -3.49257e-19)
(0.418723 0.0302398 -3.37463e-19)
(0.488107 0.173477 -1.0522e-18)
(0.40439 0.0741717 -6.95411e-19)
(0.216528 0.929266 0)
(0.271543 1.33301 -4.02639e-19)
(0.378847 1.2781 6.71755e-19)
(0.987485 0.00853545 0)
(0.941939 0.00584703 0)
(1.0003 0.000574138 0)
(1.00287 0.00930015 0)
(1.00303 0.00846172 -2.58356e-18)
(0.991918 0.00969816 1.95104e-18)
(-0.00133141 0.773548 0)
(-0.00828175 0.626343 0)
(-0.0797 0.90055 0)
(-0.0139457 0.77623 0)
(0.00773819 0.653737 0)
(0.128172 0.204243 2.25476e-19)
(0.183853 0.182759 0)
(0.993531 -0.00839538 0)
(0.954388 -0.0065304 0)
(0.779127 0.043086 0)
(0.720771 0.052236 0)
(0.659528 -0.0315009 0)
(0.948807 -0.00808601 0)
(0.643691 0.0643991 0)
(0.475611 -0.0205257 1.45172e-18)
(-0.0366937 2.86372 6.54575e-19)
(0.0422487 2.90904 0)
(0.0546092 2.88487 0)
(-0.00457921 2.69884 0)
(-0.0132849 2.98521 8.5019e-19)
(-0.01802 2.89523 0)
(-0.0153684 2.98812 -2.63782e-18)
(-0.0133669 2.9252 9.03137e-19)
(-0.271973 1.22141 0)
(-0.295843 1.43414 0)
(-0.137593 1.69992 -1.57872e-21)
(-0.14855 1.50868 0)
(-0.108007 1.46556 0)
(0.93765 -0.00761609 0)
(0.855851 -0.0095731 0)
(0.863661 0.00678633 0)
(0.94895 -0.00805819 0)
(0.883472 -0.00812401 0)
(0.516501 1.1322 -2.01173e-19)
(0.566066 1.1837 0)
(0.368129 0.882712 3.07474e-20)
(0.310302 0.742663 0)
(0.923964 1.07069 -1.58318e-19)
(1.03694 0.873658 3.16484e-19)
(0.373551 1.37967 0)
(0.536351 1.35018 0)
(0.546151 1.30391 0)
(0.109114 0.18197 -2.81618e-19)
(0.417962 0.226146 0)
(0.385598 0.11553 1.96307e-19)
(1.00681 0.927801 0)
(1.07211 0.775307 0)
(1.09772 0.717172 -2.43713e-19)
(1.12386 0.61656 0)
(1.16904 0.400229 5.54554e-20)
(0.957364 -0.00890564 0)
(0.962278 -0.0101157 0)
(0.90134 -0.00798915 0)
(0.98415 -0.00918599 0)
(0.974593 -0.00937749 0)
(0.937008 -0.00641226 0)
(1.00019 0.00233281 0)
(1.00091 0.00140457 0)
(0.999911 0.000847154 0)
(0.0353691 2.0533 4.09579e-19)
(0.119876 1.72946 0)
(0.0153966 2.16748 6.2321e-19)
(0.0538827 1.84969 -5.17427e-19)
(0.110151 1.19622 -2.82522e-19)
(0.0458544 1.08068 0)
(0.141856 1.06083 0)
(0.0174804 0.909939 0)
(0.0232679 0.723852 0)
(-0.0113762 2.18818 -8.46152e-22)
(0.0382796 1.99862 0)
(-0.0117061 2.1619 -4.2141e-20)
(0.0254388 2.00107 7.4233e-20)
(0.0205226 0.865268 0)
(0.000633615 0.8287 0)
(0.0164121 0.691316 0)
(-0.0102528 0.793017 0)
(-0.0274044 0.648881 0)
(0.933791 0.00847182 0)
(0.843063 -0.0151018 0)
(0.924444 -0.000426278 0)
(0.838612 -0.0119256 0)
(0.813194 0.00291462 0)
(0.903097 0.0189048 0)
(0.880744 0.0230427 0)
(0.790001 0.00166864 0)
(0.00582734 3.06495 -8.43778e-21)
(0.0166101 3.05777 0)
(0.0146981 2.96908 0)
(0.00865116 2.87629 0)
(0.925711 3.97108 0)
(1.24053 3.30318 9.42473e-19)
(0.0703777 3.07512 0)
(-0.0280254 2.90583 0)
(-0.324833 1.54209 0)
(-0.355647 2.19949 0)
(-0.354369 1.89945 0)
(-0.24164 2.48853 -6.00486e-20)
(-0.281418 2.44374 0)
(-0.254247 2.41927 0)
(0.00159994 1.97626 -3.86443e-21)
(-0.0371252 2.05284 2.85209e-20)
(-0.0728762 1.99461 5.17444e-20)
(-0.0230543 1.93268 0)
(0.530686 0.122702 5.22588e-19)
(0.434097 0.00694917 -5.12965e-19)
(0.261189 1.56188 0)
(0.265044 0.705383 -3.00621e-19)
(0.178094 1.64751 -1.01437e-18)
(0.225974 1.17627 1.01701e-18)
(0.902415 0.00662819 0)
(0.967571 0.0109485 0)
(0.974647 0.0107362 0)
(0.923538 0.00653065 0)
(0.00174624 0.780093 0)
(-0.00714368 0.773101 0)
(-0.00806285 0.621129 0)
(0.29329 0.239068 6.32779e-19)
(0.239697 0.218117 -7.4916e-19)
(0.253375 0.175923 0)
(1.07448 0.0843079 2.54069e-20)
(1.05578 0.0389147 0)
(0.992727 0.0381293 0)
(0.889974 -0.007139 0)
(0.554228 0.0957094 0)
(0.584293 0.0727343 -2.32558e-18)
(0.450588 -0.00313383 8.75224e-19)
(0.00920687 2.98172 7.09089e-19)
(-0.0321078 2.86665 4.86568e-20)
(0.00363421 3.05025 -1.7876e-20)
(0.0201331 3.04338 6.36023e-19)
(-0.0149989 2.99657 2.96712e-20)
(-0.0129476 2.94944 -1.19439e-22)
(-0.0172627 3.01197 -5.49549e-19)
(0.0148279 3.02393 3.97753e-19)
(0.00734845 3.0368 -6.29774e-19)
(0.932022 -0.00255317 0)
(0.938076 -0.00389521 0)
(0.843349 -0.0085866 0)
(0.956869 0.0115912 0)
(0.943303 0.0127931 0)
(0.881986 0.00628552 0)
(0.918849 0.0155753 0)
(0.926947 0.0142868 0)
(0.83925 0.00469334 0)
(0.720103 1.41108 7.35953e-20)
(0.753763 1.52035 0)
(0.195202 0.340587 6.78554e-20)
(0.212491 0.650541 5.4644e-19)
(0.257683 0.717802 -3.15075e-19)
(0.268965 0.5457 6.24035e-19)
(0.322416 0.767759 1.48359e-18)
(0.126767 0.214469 3.49344e-19)
(0.463532 0.197315 7.39014e-19)
(0.439919 0.213336 1.90721e-19)
(0.396385 0.0993838 3.67738e-19)
(1.15847 0.4583 5.59184e-20)
(1.16943 0.252853 5.18718e-20)
(0.00466628 2.20672 2.38168e-19)
(0.0518528 1.91858 0)
(0.958182 0.0267082 0)
(0.935992 0.0117604 0)
(0.857018 -0.0184095 0)
(0.0112053 3.07432 0)
(0.0198063 2.9442 1.16207e-18)
(0.0164523 2.95634 0)
(0.00631005 2.85059 -1.15253e-18)
(0.00634344 3.09185 2.81766e-19)
(0.00713978 3.08248 0)
(0.786878 1.82322 -1.69769e-19)
(1.24828 2.50184 4.38943e-19)
(0.769031 1.96312 -1.27055e-18)
(0.020158 2.98192 -6.05835e-19)
(0.035966 3.00226 0)
(-0.0336903 2.87867 0)
(-0.00984544 2.13826 -4.84483e-21)
(-0.0172956 2.10336 -4.82958e-20)
(0.0198404 1.99324 -3.91804e-21)
(0.27505 1.36863 9.7982e-19)
(0.218429 0.488396 -6.72313e-19)
(0.0626749 1.97713 7.42979e-19)
(0.136697 1.86635 -8.82556e-19)
(0.178664 1.46981 8.86469e-20)
(0.00533295 3.11793 -1.59312e-18)
(0.0147007 3.11838 1.71684e-18)
(-0.00909907 2.98061 7.82192e-19)
(-0.00343509 2.97734 -7.38246e-19)
(-0.0215316 2.88142 -7.96644e-19)
(0.00860028 3.09866 -2.09251e-18)
(0.00186709 3.10667 2.06882e-18)
(0.267161 0.674662 0)
(0.226137 0.663122 -1.12508e-18)
(0.100646 0.221837 4.98476e-19)
(0.340951 0.891175 1.0427e-18)
(0.181278 0.256196 -1.60708e-18)
(1.15954 0.172757 6.00636e-20)
(1.17029 0.307335 0)
(1.14689 0.120583 -6.98054e-21)
(-0.00832474 2.20517 -1.42627e-21)
(-0.000684285 2.21185 0)
(0.0390805 1.96227 0)
(0.337261 1.2727 -3.54018e-19)
(0.361436 1.09958 -7.61148e-19)
(0.194083 0.350028 1.34994e-18)
(1.00587 -0.0108751 0)
(1.00766 -0.00766414 4.76597e-19)
(-0.223574 1.23938 0)
(-0.151239 1.04282 0)
(1.00222 0.00347136 1.77717e-21)
(1.00365 0.00941901 9.73028e-19)
(-0.246006 2.50347 7.8541e-20)
(-0.248974 2.48685 0)
(0.0364377 3.17938 3.92193e-19)
(0.395681 3.49284 0)
(1.13379 0.652383 -5.82519e-20)
(1.01298 0.0130227 -2.15109e-21)
(1.02118 -0.0105096 0)
(1.00169 0.000116096 6.29034e-23)
(0.096739 1.35278 0)
(0.146642 2.58346 0)
(0.0249596 1.30136 0)
(-0.000347555 2.62219 3.20784e-20)
(-0.0295415 2.57335 2.24715e-20)
(1.00414 0.0273631 2.47577e-21)
(1.06166 0.00285083 0)
(1.09188 0.0175542 0)
(-0.294216 2.15806 0)
(-0.108135 2.54651 0)
(0.00278803 1.11773 0)
(0.281867 1.46364 -1.87902e-19)
(1.01124 -0.00968027 0)
(1.00939 -0.0149503 0)
(1.00235 0.000699809 6.08237e-19)
(1.00547 -0.00485259 -7.15795e-19)
(1.00117 -0.00102586 0)
(-0.233463 1.83663 0)
(-0.205595 1.2939 0)
(-0.270836 1.60277 0)
(-0.00653871 1.07688 0)
(-0.0231646 1.00015 0)
(-0.00682494 0.939128 0)
(1.03415 -0.00672436 0)
(1.0209 0.0157183 -9.74449e-22)
(0.794887 1.25859 2.74145e-19)
(1.00232 0.000274401 -6.08201e-19)
(1.00406 0.00521551 7.10304e-19)
(1.00117 0.00205356 0)
(1.01283 0.0102726 6.03012e-19)
(1.00807 0.00828139 -7.31351e-19)
(1.00861 0.0146918 0)
(-0.173102 2.57932 0)
(-0.237785 2.53844 -2.04314e-20)
(-0.206785 2.51376 2.6687e-21)
(1.20963 0.26014 5.5432e-19)
(1.14756 0.0781001 0)
(0.0456688 3.0779 -9.0232e-19)
(0.0659032 2.85366 -6.62926e-20)
(0.142925 3.19416 1.37731e-18)
(0.137849 3.22287 -1.87053e-19)
(0.136419 3.23566 0)
(0.0197925 3.13762 2.30599e-19)
(0.0770184 3.161 8.8965e-19)
(0.0699151 3.18696 -4.35238e-19)
(0.0228575 3.12952 0)
(0.659013 0.302762 0)
(0.576023 0.360512 0)
(1.10497 0.683801 1.32991e-19)
(1.10171 0.815091 -1.16425e-19)
(1.1631 0.570467 0)
(1.19269 0.512363 0)
(1.01621 0.0132255 -1.12387e-18)
(1.01499 0.0142172 1.41005e-18)
(1.02508 -0.0100204 0)
(1.02314 -0.0119256 0)
(1.00643 0.00262406 0)
(1.01038 0.0036617 0)
(1.00454 0.00188381 0)
(1.00988 0.00603154 0)
(1.0079 0.00602298 0)
(1.00446 0.00461113 0)
(0.0880399 1.34846 0)
(0.0800773 1.31925 0)
(0.11436 1.3828 0)
(0.127152 1.40093 0)
(0.145113 2.60693 0)
(0.185937 2.66947 -4.11865e-19)
(0.0983338 2.66383 0)
(0.0878973 2.66481 1.85665e-19)
(0.0407826 2.68026 -1.46468e-19)
(0.0277814 1.29256 0)
(0.0331529 1.22624 0)
(0.0180062 1.32244 0)
(0.0396023 1.26995 0)
(-0.0117867 1.98747 1.05523e-20)
(-0.0333689 2.60262 -9.80382e-21)
(-0.00985796 2.66521 9.52678e-21)
(-0.0230952 2.67496 0)
(-0.0404618 2.60742 -3.92225e-20)
(-0.036047 2.60203 -1.97354e-20)
(-0.00601603 1.98823 -7.95851e-21)
(-0.0290951 2.41227 1.31449e-20)
(-0.0232509 2.43066 -1.08081e-20)
(1.01297 0.0346726 1.13831e-18)
(1.00844 0.0170461 -1.40973e-18)
(1.00528 0.0414734 -1.14536e-18)
(0.98406 0.0227649 1.45588e-18)
(1.0625 0.00655459 0)
(1.04776 -0.00901024 0)
(1.08982 0.0287029 0)
(1.07146 0.00980445 0)
(1.06876 -0.0011446 0)
(1.13052 0.0709519 0)
(1.10381 0.0357636 0)
(1.10558 0.0240118 0)
(-0.239031 2.52715 1.42848e-20)
(-0.261884 2.39645 0)
(-0.278737 2.4519 0)
(-0.10577 2.58 -8.32455e-21)
(-0.0423032 2.5713 -8.28604e-22)
(-0.0228575 1.92384 -2.8329e-19)
(-0.113454 1.80748 2.86464e-19)
(0.0494328 1.34971 0)
(-0.026006 1.36361 0)
(-0.108036 1.35676 0)
(0.0402167 1.12387 0)
(-0.0183312 0.997332 0)
(0.374558 1.47766 3.22439e-19)
(0.411226 1.48572 1.61366e-19)
(0.594944 2.45276 -2.27521e-19)
(0.404832 2.54631 6.66755e-19)
(0.355143 2.07767 5.68471e-20)
(1.02084 -0.00827367 0)
(1.0154 -0.00982995 0)
(1.01484 -0.0156394 0)
(1.00744 -0.00126464 0)
(1.00494 -0.000985546 0)
(1.00775 -0.00480007 0)
(1.00922 -0.00383766 0)
(1.0141 -0.00454921 0)
(1.02159 0.0158776 1.09796e-18)
(1.01825 0.0158056 -1.40944e-18)
(1.02209 0.0177375 -1.1051e-18)
(1.01974 0.0164244 1.38576e-18)
(0.762918 1.30718 0)
(0.696609 1.36209 2.75135e-19)
(0.871346 1.20488 1.09118e-19)
(0.914648 1.15938 -1.45223e-19)
(1.15819 2.60881 1.88886e-19)
(0.8166 0.0950256 5.72764e-19)
(1.14742 0.0965141 0)
(1.18966 0.185091 -4.44025e-19)
(1.1746 0.150706 -1.86627e-20)
(1.00622 0.134453 0)
(0.139137 2.96257 5.00408e-19)
(0.115839 2.86856 -1.14378e-18)
(0.0272916 2.37002 7.78254e-19)
(0.0931316 0.00840463 -3.46901e-19)
(0.340476 3.42185 -2.36162e-19)
(0.195209 3.31444 0)
(0.237661 3.35672 3.07561e-19)
(0.24702 3.03575 -1.69435e-18)
(0.341567 3.19452 0)
(0.00610258 3.12091 4.54069e-20)
(0.0171049 3.12953 -5.36513e-19)
(0.0148687 3.12558 7.89651e-19)
(0.0356071 3.13992 0)
(0.0339962 3.1508 0)
(1.21623 2.60863 0)
(0.531275 0.842825 -4.98129e-19)
(1.03313 0.98825 -1.06254e-20)
(0.971924 1.0588 0)
(0.816908 0.958899 -9.7642e-20)
(1.05643 0.876219 2.95609e-20)
(0.368249 0.41368 -8.99579e-19)
(0.701184 0.328207 -2.28407e-20)
(0.683247 0.25234 4.13373e-19)
(0.591622 0.393992 3.06585e-20)
(0.510654 0.369409 -1.23606e-18)
(0.672951 0.339794 0)
(0.700824 0.426483 6.98765e-19)
(0.708103 0.4257 0)
(0.629918 0.374973 0)
(0.60753 0.301526 0)
(0.785603 0.617161 3.99553e-19)
(1.20615 0.280175 -4.73612e-19)
(1.20199 0.416328 0)
(1.21377 0.364342 0)
(0.761074 0.194675 6.1638e-19)
(0.831387 0.537672 -3.7921e-19)
(0.737134 0.51445 6.65191e-19)
(0.932076 0.420261 -7.28921e-19)
(1.0199 0.0145796 7.56252e-19)
(1.01797 0.0140858 -7.61244e-19)
(1.01596 0.0156399 0)
(1.03558 -0.00627814 0)
(1.02941 -0.00886373 -7.11266e-19)
(1.02728 -0.0123609 7.04216e-19)
(1.02512 0.00964649 0)
(1.02378 0.0130365 0)
(1.01138 0.00401983 0)
(1.01432 0.00886887 0)
(1.01507 0.00382165 0)
(1.01418 0.00270629 0)
(0.0648479 1.33297 0)
(0.0668187 1.29419 0)
(0.14679 1.3432 3.13225e-20)
(0.260943 1.46162 9.91501e-20)
(0.151678 1.43201 2.05704e-19)
(0.182321 1.44095 -3.37649e-19)
(0.162806 1.37122 0)
(0.129305 1.58949 -3.80801e-20)
(0.108543 1.55839 0)
(0.352864 2.03243 -8.26197e-20)
(0.350721 2.3651 5.81426e-19)
(0.184639 1.43925 3.3214e-20)
(0.26119 1.36732 4.0606e-20)
(0.19415 1.35257 -3.28456e-20)
(0.269735 1.30745 -5.11415e-20)
(0.23855 1.57343 0)
(0.261216 1.61528 7.35124e-20)
(0.0288665 2.27762 -2.07889e-20)
(0.037854 2.67321 0)
(0.0625361 2.41345 1.11179e-19)
(0.0570133 2.43434 0)
(0.067384 2.67839 -2.05735e-19)
(0.0493608 2.70224 0)
(0.0247522 1.42077 4.14249e-20)
(0.02229 1.46369 0)
(0.023134 1.38607 0)
(0.0233402 1.39153 -4.67457e-20)
(-0.0025637 2.65128 -2.16844e-20)
(0.0258344 2.69785 1.6363e-19)
(0.0113621 2.71992 1.13722e-21)
(0.00612245 1.85681 -1.39243e-20)
(-0.0134658 1.65763 -4.72306e-21)
(0.0653382 1.24082 0)
(0.0430416 1.1216 0)
(0.0352309 1.57367 -4.58334e-20)
(0.021626 1.44715 -5.05575e-20)
(0.0294361 1.51201 6.37924e-20)
(0.0328798 1.59598 0)
(-0.10466 2.41703 2.15533e-19)
(-0.123655 2.57364 -1.02037e-19)
(-0.0503325 2.50893 8.19438e-21)
(-0.0158452 1.86475 1.67475e-20)
(-0.0616315 2.49645 3.36403e-21)
(-0.0215717 2.44359 1.69828e-20)
(1.0204 0.020314 -7.50987e-19)
(1.01698 0.0254649 7.53381e-19)
(1.01512 0.0163121 0)
(1.01674 0.0642902 1.03144e-18)
(0.995478 0.0554933 -1.18864e-18)
(0.957441 0.0430441 1.33139e-18)
(1.01748 0.0990892 -1.41268e-19)
(1.0418 -0.00637411 0)
(1.04975 -0.00230592 6.77038e-19)
(1.03802 -0.0104982 -6.79498e-19)
(1.06938 0.0375103 -4.02431e-20)
(1.06329 0.0203476 3.4763e-19)
(1.06148 0.048451 0)
(1.05439 0.0423346 -1.24757e-19)
(1.0324 0.0384571 0)
(1.02636 0.0349094 0)
(1.02767 0.0125193 0)
(1.02439 0.015331 0)
(1.03859 0.0293279 2.57303e-19)
(1.03864 0.0250572 -5.68695e-19)
(1.05055 0.0311219 -2.73196e-19)
(1.0471 0.0311449 -3.00036e-19)
(1.06878 0.0543964 5.86466e-19)
(1.09081 0.0423778 0)
(1.0976 0.0866558 0)
(-0.0996688 2.4317 1.64786e-19)
(-0.199891 2.34973 1.93198e-20)
(-0.153415 2.34518 0)
(-0.179642 2.52573 -1.64533e-19)
(-0.238492 2.52764 -3.17981e-20)
(-0.209648 2.53076 1.52738e-20)
(-0.0423688 2.60945 1.78628e-20)
(-0.0765002 2.5512 -1.00974e-21)
(-0.049099 2.52746 4.76304e-21)
(-0.0547738 2.59419 -8.47846e-21)
(-0.0477501 2.59927 1.02507e-20)
(0.104971 1.59462 8.6652e-21)
(0.0618222 1.89495 -1.98878e-19)
(0.364545 1.41694 -1.41704e-19)
(0.362412 1.35742 -1.95319e-20)
(0.643958 1.40749 -2.66048e-19)
(0.510617 1.47218 -1.5606e-19)
(0.562531 1.4456 0)
(0.590699 2.42776 2.0115e-19)
(0.657781 2.41873 3.23801e-19)
(0.410818 2.52245 8.14795e-20)
(0.405355 2.5554 -5.69832e-19)
(0.515242 2.50461 5.64206e-19)
(0.549549 2.46626 0)
(0.488255 2.5192 -5.37711e-19)
(0.247738 2.59604 1.10721e-18)
(0.353414 2.57121 -8.25889e-20)
(0.28455 2.65671 -1.5268e-18)
(0.938563 2.38268 6.67849e-19)
(0.832305 2.38754 0)
(1.011 0.000340415 2.46512e-20)
(1.01535 -0.00557261 -2.00818e-20)
(1.01755 -0.00369244 -3.65517e-19)
(1.01491 -0.00114554 3.67808e-19)
(1.01234 0.000868702 0)
(0.632133 1.27513 0)
(0.653257 1.17053 0)
(0.753586 1.07819 0)
(0.644265 1.1378 0)
(1.1865 2.62378 5.92417e-20)
(1.0767 2.36828 0)
(0.842028 2.18899 3.16748e-21)
(0.828126 2.45734 0)
(0.923218 2.54536 -3.67063e-19)
(0.959714 2.49991 2.44467e-19)
(0.827481 0.146966 0)
(0.798699 0.130061 1.57693e-19)
(0.924794 0.124606 9.02065e-19)
(0.846965 0.120418 -3.41528e-19)
(0.82667 0.062611 -1.03995e-18)
(1.06702 0.222283 -8.59605e-19)
(0.986778 0.277776 -1.55923e-20)
(0.913292 0.273337 8.41701e-19)
(1.00028 0.205506 6.97095e-19)
(0.94906 0.165497 -1.19661e-18)
(0.918078 0.170183 1.50066e-19)
(0.946964 0.233283 -3.20227e-19)
(0.925952 0.194236 0)
(0.995647 0.166761 5.89317e-19)
(1.04314 0.171488 0)
(1.03981 0.198046 0)
(1.09615 0.107342 2.73986e-19)
(1.07014 0.16189 -1.35928e-20)
(1.06099 0.225914 -1.49313e-19)
(1.09224 0.193678 0)
(1.02291 0.0427815 5.82213e-19)
(1.04234 0.0526427 7.23463e-19)
(1.033 0.0402946 -5.77786e-19)
(1.0432 0.0576027 -4.84783e-19)
(1.01763 0.065692 -7.30029e-19)
(0.99183 0.139837 0)
(1.0021 0.0943615 0)
(0.973237 0.0602901 -4.74307e-19)
(0.925447 0.0779213 1.87589e-19)
(1.04095 0.093687 6.71985e-19)
(1.06926 0.108762 -7.91455e-19)
(1.07414 0.140904 7.07988e-19)
(1.03442 0.130971 0)
(1.07449 0.0954724 0)
(1.05968 0.0784272 -3.21906e-19)
(1.04818 0.086722 -5.49954e-19)
(0.584334 1.08396 1.12553e-19)
(0.614207 1.4125 -1.44774e-20)
(1.15739 2.74092 -1.88473e-19)
(1.22375 3.08223 -7.58333e-21)
(1.24961 2.72295 -4.8374e-20)
(1.27966 2.70684 -6.80259e-20)
(1.20796 2.34702 -1.00192e-20)
(1.211 2.98601 -5.78123e-20)
(1.23051 2.95102 1.7981e-19)
(1.2148 3.23604 -1.59815e-19)
(1.376 2.96772 2.21042e-19)
(1.36667 2.88606 0)
(0.538526 0.849765 -4.5369e-20)
(0.13929 1.26155 5.50593e-19)
(0.527622 0.469873 5.83061e-19)
(0.361872 0.221213 6.4176e-19)
(0.530705 0.399123 6.96693e-19)
(0.539108 0.487749 -1.14427e-18)
(0.542161 0.494433 9.35604e-19)
(0.496331 0.419336 -3.51565e-19)
(0.424983 0.357358 8.0072e-19)
(0.764477 0.251525 -3.52103e-19)
(0.724535 0.289594 0)
(0.719914 0.222751 9.91622e-21)
(0.717454 0.51365 3.67193e-19)
(0.689415 0.484831 -1.33932e-18)
(0.60979 0.487114 1.65467e-20)
(0.623925 0.46879 0)
(0.665898 0.738836 3.7462e-19)
(0.813495 0.769847 3.69903e-19)
(0.742408 0.85363 -4.33614e-19)
(0.855395 0.801509 -1.488e-19)
(0.889022 0.843397 -3.53516e-20)
(0.89737 0.844842 3.61847e-20)
(0.825202 0.643156 -6.64551e-19)
(0.901966 0.69727 1.38252e-19)
(0.959912 0.711375 0)
(0.949403 0.68753 -1.91252e-19)
(1.01214 0.318761 2.08266e-19)
(1.12029 0.290181 2.79574e-19)
(1.05162 0.260542 3.51233e-19)
(0.993785 0.35235 -4.20317e-19)
(1.03386 0.419058 0)
(1.08726 0.405968 0)
(0.901123 0.349039 4.64282e-21)
(0.838918 0.282646 0)
(0.862778 0.275491 3.98251e-19)
(0.897762 0.279754 -6.2061e-21)
(0.923521 0.423499 2.02983e-18)
(0.879655 0.484956 5.23161e-19)
(0.885357 0.449602 -5.61054e-19)
(0.814861 0.436598 6.00822e-19)
(0.796974 0.431132 3.63314e-19)
(0.769 0.418001 -3.57137e-19)
(1.02698 -0.000757704 6.08349e-19)
(1.02001 -0.000377201 0)
(1.01855 0.000547435 3.96798e-19)
(1.02143 -0.00200397 -8.98666e-19)
(1.02238 0.00393255 4.36551e-19)
(1.02051 0.0108214 -9.14287e-19)
(1.02153 0.0102408 0)
(1.02079 0.0105622 -1.90598e-19)
(1.01605 0.00740817 4.78139e-19)
(1.01678 0.0101996 -2.38519e-19)
(1.01748 0.00955398 1.75713e-19)
(0.0349896 1.31861 0)
(0.0365751 1.35588 0)
(0.0517415 1.31469 0)
(0.0418554 1.276 0)
(0.0739656 1.36836 -8.86533e-20)
(0.0791682 1.34041 3.39908e-20)
(0.107421 1.49225 4.24665e-22)
(0.0857376 1.33704 -1.58983e-20)
(0.0321291 1.45076 3.08221e-20)
(0.0365447 1.44113 -2.32934e-20)
(0.067184 1.35094 -7.23865e-21)
(0.0604211 1.35305 6.28781e-20)
(0.0521547 1.33075 8.72571e-21)
(0.0390235 1.35492 5.11996e-21)
(0.104356 2.38717 -1.22288e-19)
(0.0925308 2.43001 0)
(0.166344 2.06421 9.49086e-20)
(0.110029 1.71038 2.79342e-20)
(0.229629 2.05788 -7.63598e-20)
(0.209642 2.45457 0)
(0.268769 2.40651 -5.38584e-19)
(0.305301 2.40501 3.82819e-19)
(0.229721 2.01661 -2.12139e-19)
(0.151172 2.18382 1.46477e-19)
(0.146251 2.30492 0)
(0.012207 1.88616 2.77029e-20)
(-0.0153468 2.40348 -3.27534e-20)
(-0.000558827 2.16325 0)
(0.00487342 2.46586 -1.39482e-20)
(0.0167557 2.31525 -2.2594e-21)
(0.030099 1.41281 -9.00108e-21)
(0.0688639 1.38092 1.67641e-19)
(0.0784079 1.41853 -5.9412e-20)
(0.0223721 1.41413 -4.3336e-20)
(0.0271457 1.42652 0)
(0.0770746 1.39798 0)
(0.0460428 1.15086 -1.16295e-19)
(0.109894 1.3735 3.45905e-20)
(0.112014 1.37325 0)
(0.056661 1.18856 -6.8243e-20)
(0.045696 0.98693 1.55274e-19)
(1.0403 0.0107233 0)
(1.04563 0.00708068 -6.36186e-20)
(1.03833 0.0203039 -4.58004e-19)
(1.04753 0.0192676 0)
(1.05188 0.0190384 0)
(1.03616 0.0104736 -6.41857e-21)
(1.03133 0.0103337 7.35104e-19)
(1.0318 0.01524 8.93533e-19)
(1.02597 0.0192029 0)
(1.02343 0.0197972 0)
(1.03493 0.0234313 4.57291e-19)
(1.02628 0.0248104 0)
(1.02516 0.0245768 0)
(-0.00165129 2.09376 0)
(0.0346976 1.88687 2.79138e-20)
(0.0391064 1.95817 -5.74062e-20)
(0.0881524 1.38054 0)
(0.121262 1.67292 -6.33175e-20)
(0.12434 1.51552 6.76857e-20)
(0.0895419 1.40341 0)
(0.395992 1.68765 0)
(0.363188 1.28468 1.92205e-20)
(0.306328 1.33814 0)
(0.418844 1.28454 -9.01519e-20)
(0.462853 1.44523 0)
(0.444209 1.38979 6.37216e-20)
(1.03357 2.69173 -1.41907e-20)
(0.961169 2.41323 -8.39857e-19)
(0.909125 2.18653 9.74965e-19)
(0.84523 2.37953 2.27295e-19)
(0.84603 2.50541 0)
(0.916409 2.49941 0)
(0.921872 2.37655 0)
(0.89938 2.36265 -8.81907e-19)
(0.693036 2.47703 -3.44945e-19)
(0.802219 2.46826 -8.63798e-20)
(0.813958 2.43968 6.60083e-20)
(0.692487 2.39467 0)
(0.796342 2.39137 0)
(0.755236 2.40336 -3.49068e-19)
(0.769913 2.49671 0)
(0.613761 1.09344 0)
(0.484558 0.930574 -4.42796e-19)
(0.553686 0.96503 -2.83329e-20)
(0.52521 1.06059 0)
(0.523946 1.00944 6.65258e-19)
(0.766426 0.879274 -1.17487e-19)
(0.778382 1.01044 0)
(0.751105 0.966793 1.66682e-19)
(0.640224 1.03332 0)
(0.644877 0.943942 0)
(1.16527 2.76202 -1.99417e-19)
(1.14302 2.82571 -7.27956e-20)
(0.933872 2.34678 5.75284e-20)
(0.901325 2.32609 -6.99951e-20)
(1.13023 2.73578 0)
(1.08347 2.70622 8.43046e-20)
(1.08975 2.48871 -2.92101e-19)
(0.985374 2.23496 -3.06995e-20)
(0.504578 1.36523 0)
(0.517541 1.08065 -9.93469e-20)
(0.561691 1.15932 0)
(0.860243 0.212409 0)
(0.805102 0.168047 0)
(0.760791 0.146621 0)
(0.854794 0.221899 -6.26774e-19)
(0.781975 0.213671 3.69439e-19)
(0.93635 0.0641908 -3.87198e-19)
(0.950235 0.108876 0)
(0.927351 0.114641 1.67496e-19)
(0.871578 0.0910556 6.72246e-19)
(0.852339 0.0518543 -4.19989e-19)
(1.16204 3.3617 -7.55903e-19)
(1.20969 3.2809 0)
(1.16046 3.38989 -1.54748e-18)
(0.647742 3.55079 1.31666e-18)
(0.872461 3.11834 1.13678e-19)
(0.512282 0.854909 5.55131e-19)
(0.43077 0.849224 0)
(0.339176 0.503269 -1.44607e-19)
(0.442328 0.687219 8.0768e-19)
(0.530179 0.476026 -1.99816e-19)
(0.505127 0.526871 2.26663e-19)
(0.651716 0.541389 4.95122e-19)
(0.679196 0.558635 0)
(0.633004 0.623647 0)
(0.590458 0.56075 0)
(0.959714 0.596466 8.78745e-20)
(0.882776 0.534849 -5.08806e-19)
(0.905574 0.566729 3.82625e-19)
(0.940749 0.502043 -3.93787e-19)
(1.04466 0.476847 0)
(1.05461 0.565413 -9.5926e-20)
(0.838385 0.386578 -8.27323e-19)
(0.842529 0.371404 -1.01722e-18)
(0.790704 0.386618 6.45796e-19)
(0.785943 0.355808 -6.67041e-19)
(0.838004 0.309219 -5.18012e-19)
(0.79265 0.308002 6.36708e-19)
(1.02682 0.00543752 -4.71677e-19)
(1.02639 0.0058209 9.67142e-19)
(1.02927 -0.000494165 5.89168e-19)
(1.03317 0.000653696 -7.09915e-19)
(1.03284 0.00778681 0)
(1.03002 0.0086433 -1.1494e-18)
(0.0543647 1.64289 1.48645e-20)
(0.0398792 1.56874 0)
(0.076841 1.69375 7.17537e-20)
(0.0900341 1.6783 -6.01871e-20)
(0.0777888 1.51546 -7.96708e-22)
(0.0841615 1.50133 0)
(0.0393831 1.73638 0)
(0.0501006 1.58123 1.44942e-20)
(0.0810106 1.49167 -1.30492e-20)
(0.0642539 1.6564 2.0789e-20)
(0.023753 1.95833 3.3968e-20)
(0.0105273 1.96822 -2.72276e-21)
(0.500636 1.37741 -1.86964e-19)
(0.494461 1.38362 2.06427e-19)
(0.441214 1.2828 2.24906e-20)
(0.437193 1.2953 3.8365e-21)
(0.625231 1.28827 0)
(0.539969 1.37603 1.46847e-19)
(0.558468 1.38448 -1.43018e-19)
(0.448427 1.27179 -2.1661e-20)
(0.507366 1.22485 0)
(0.563129 1.19559 0)
(0.659608 2.43658 5.06831e-19)
(0.670085 2.47111 1.17247e-18)
(0.717351 2.48552 -8.06901e-19)
(0.618828 2.46559 -1.96119e-19)
(0.563584 2.55547 2.60703e-19)
(0.512781 2.52832 -6.95407e-19)
(0.974454 2.3793 -5.44203e-19)
(1.01243 2.3945 0)
(0.920465 2.16588 -6.33437e-19)
(1.05302 2.68618 0)
(1.05528 2.67306 0)
(0.612633 2.2783 -6.83349e-20)
(1.04246 3.16466 1.81825e-19)
(0.91351 3.03512 -9.34485e-20)
(0.283329 0.92047 0)
(0.322778 0.781905 -2.97771e-19)
(0.479081 0.73562 -2.87584e-19)
(0.390332 2.02678 0)
(0.468774 2.78749 -7.91421e-20)
(0.424053 2.55157 0)
(0.677063 0.686053 -7.93508e-19)
(0.757968 0.681006 1.08317e-18)
(0.777139 0.624887 -1.07234e-18)
(0.657907 0.64806 -1.038e-19)
(0.713734 0.600283 -4.30929e-19)
(1.00458 2.76827 -1.38254e-19)
(1.04174 2.82403 -1.07773e-19)
(0.639985 2.15296 5.88111e-19)
(0.59722 1.72097 -4.23851e-19)
(0.700518 1.91057 -3.43575e-19)
(0.990399 2.45124 -1.09453e-19)
(0.995366 2.44393 2.41797e-19)
(0.660468 1.84968 2.40217e-20)
(0.452416 1.33988 1.18691e-19)
)
;

boundaryField
{
    wall-4
    {
        type            noSlip;
    }
    velocity-inlet-5
    {
        type            fixedValue;
        value           uniform (1 0 0);
    }
    velocity-inlet-6
    {
        type            fixedValue;
        value           uniform (0 3 0);
    }
    pressure-outlet-7
    {
        type            zeroGradient;
    }
    wall-8
    {
        type            noSlip;
    }
    frontAndBackPlanes
    {
        type            empty;
    }
}


// ************************************************************************* //
