/*--------------------------------*- C++ -*----------------------------------*\
  =========                 |
  \\      /  F ield         | OpenFOAM: The Open Source CFD Toolbox
   \\    /   O peration     | Website:  https://openfoam.org
    \\  /    A nd           | Version:  9
     \\/     M anipulation  |
\*---------------------------------------------------------------------------*/
FoamFile
{
    format      ascii;
    class       volScalarField;
    location    "1.3";
    object      p;
}
// * * * * * * * * * * * * * * * * * * * * * * * * * * * * * * * * * * * * * //

dimensions      [0 2 -2 0 0 0 0];

internalField   nonuniform List<scalar> 
400
(
3.18151e-06
-0.00582457
-0.0129626
-0.0184151
-0.0204328
-0.0182392
-0.0117747
-0.00148447
0.0118367
0.0271486
0.043244
0.0588228
0.0725785
0.0833083
0.0900527
0.0922669
0.0900257
0.0842438
0.0768805
0.071067
0.00578149
-0.000217825
-0.00580384
-0.00954266
-0.0105993
-0.0084332
-0.00297056
0.00547345
0.0163022
0.0287111
0.0417494
0.0543857
0.0655862
0.0744098
0.0801201
0.0823156
0.0810771
0.0770546
0.0712738
0.0653176
0.0133357
0.00503397
-0.000995239
-0.00442321
-0.00527318
-0.00326432
0.00160181
0.00902694
0.0185014
0.0293486
0.0407649
0.0518693
0.0617683
0.0696362
0.0748068
0.0768778
0.0758413
0.0720855
0.0658051
0.0575351
0.0201399
0.00869621
0.0012259
-0.00266865
-0.00372236
-0.00188566
0.00273081
0.00978398
0.0187797
0.0290943
0.0399913
0.0506535
0.0602326
0.0679157
0.073003
0.0750012
0.0737654
0.0694556
0.0616024
0.0501019
0.0245025
0.00977339
0.000589836
-0.00398702
-0.00530247
-0.00350766
0.00117432
0.00833404
0.0174614
0.0279484
0.0390843
0.0500693
0.0600484
0.0681647
0.073626
0.0757974
0.0743686
0.0692893
0.0595249
0.0445364
0.0251783
0.00715032
-0.00380192
-0.00905727
-0.0105124
-0.00850028
-0.00335718
0.00442899
0.0143128
0.0256784
0.0378131
0.0499026
0.0610475
0.0703026
0.0767342
0.0795164
0.0781385
0.072333
0.0605386
0.0418893
0.0210938
-0.000262123
-0.0129344
-0.0187093
-0.02003
-0.0174142
-0.0113187
-0.00232007
0.00898999
0.0219757
0.0359091
0.0499437
0.0631115
0.0743447
0.0825213
0.086569
0.0857202
0.0794466
0.0656198
0.043071
0.011143
-0.0136181
-0.027875
-0.0338542
-0.0346036
-0.0308577
-0.0232132
-0.0123455
0.00110447
0.0164835
0.0330521
0.0499331
0.0660828
0.0802893
0.0912001
0.0974295
0.0978698
0.0916356
0.0758958
0.0491159
-0.00596717
-0.0342665
-0.04987
-0.0555486
-0.0550902
-0.0495147
-0.0395938
-0.0261136
-0.00975746
0.00882262
0.0289006
0.0495931
0.069797
0.088154
0.103047
0.112701
0.11555
0.110191
0.0928338
0.0614109
-0.0318573
-0.0638763
-0.080417
-0.0850072
-0.0824201
-0.0740784
-0.0609811
-0.0440369
-0.0239518
-0.00133725
0.0231452
0.0486607
0.0740952
0.0979719
0.118396
0.133125
0.139988
0.136818
0.11844
0.0819334
-0.0686675
-0.104604
-0.121345
-0.12359
-0.117516
-0.105127
-0.0877184
-0.0663257
-0.0416373
-0.0141559
0.0156053
0.0469529
0.0788555
0.109793
0.137624
0.159585
0.172727
0.173778
0.15552
0.113571
-0.119402
-0.159357
-0.174915
-0.172757
-0.161148
-0.142929
-0.119759
-0.092777
-0.0625775
-0.0294478
0.00637293
0.0444733
0.084055
0.123703
0.161136
0.193086
0.215668
0.224077
0.20805
0.160632
-0.188628
-0.232242
-0.243939
-0.233948
-0.213694
-0.187154
-0.156372
-0.122501
-0.0858977
-0.0464721
-0.00401441
0.0415389
0.0898422
0.139829
0.189319
0.234689
0.271075
0.291664
0.281743
0.229776
-0.283974
-0.329304
-0.331831
-0.30828
-0.274708
-0.236439
-0.195764
-0.153609
-0.10984
-0.0637447
-0.0144374
0.0388638
0.0965547
0.158277
0.222375
0.285288
0.341398
0.381575
0.384914
0.331835
-0.419318
-0.45967
-0.44235
-0.395791
-0.342128
-0.287738
-0.234615
-0.182929
-0.131608
-0.0789839
-0.023213
0.0374763
0.104554
0.178839
0.259862
0.344971
0.428617
0.499701
0.529676
0.485392
-0.620531
-0.636742
-0.578676
-0.494191
-0.411239
-0.335657
-0.267779
-0.205976
-0.147535
-0.0893815
-0.0284245
0.0383498
0.113808
0.200473
0.299976
0.412026
0.533031
0.651776
0.732773
0.722397
-0.935922
-0.878513
-0.74174
-0.597946
-0.474391
-0.372657
-0.288866
-0.217761
-0.153951
-0.092462
-0.0287154
0.0416976
0.123265
0.22072
0.338928
0.482156
0.651998
0.841343
1.01527
1.09751
-1.47642
-1.20663
-0.920501
-0.691386
-0.517303
-0.387542
-0.290059
-0.213335
-0.148122
-0.0872134
-0.0245756
0.0454595
0.128939
0.233073
0.367105
0.54268
0.771295
1.05932
1.40329
1.73014
-2.53965
-1.63055
-1.04444
-0.710956
-0.495748
-0.352091
-0.254528
-0.183581
-0.126167
-0.073593
-0.019267
0.0427889
0.119214
0.218785
0.354814
0.547986
0.826395
1.23658
1.91168
2.92419
-4.36666
-2.04463
-0.97354
-0.563178
-0.357844
-0.240144
-0.170117
-0.123781
-0.087479
-0.0535081
-0.0166524
0.0276626
0.0846094
0.161731
0.272413
0.442101
0.718221
1.22571
2.41104
4.84853
)
;

boundaryField
{
    movingWall
    {
        type            zeroGradient;
    }
    fixedWalls
    {
        type            zeroGradient;
    }
    frontAndBack
    {
        type            empty;
    }
}


// ************************************************************************* //
