/*--------------------------------*- C++ -*----------------------------------*\
  =========                 |
  \\      /  F ield         | OpenFOAM: The Open Source CFD Toolbox
   \\    /   O peration     | Website:  https://openfoam.org
    \\  /    A nd           | Version:  9
     \\/     M anipulation  |
\*---------------------------------------------------------------------------*/
FoamFile
{
    format      ascii;
    class       volScalarField;
    location    "34";
    object      p;
}
// * * * * * * * * * * * * * * * * * * * * * * * * * * * * * * * * * * * * * //

dimensions      [0 2 -2 0 0 0 0];

internalField   nonuniform List<scalar> 
918
(
0.604992
1.25728
0.0128128
0.604296
-0.000197254
1.22429
-0.450792
0.773647
0.585118
-0.0429563
0.02096
0.579668
1.08508
0.851261
-1.08035
0.112082
0.724558
-0.333086
0.584118
-0.0220131
0.807386
0.59172
0.594755
0.585345
0.646511
0.831074
0.966107
-0.0231975
-0.0144288
-0.0146692
0.0519981
0.0526257
0.0693627
1.10793
1.15902
1.18171
0.55354
0.37902
-0.311619
-0.38282
-0.378392
-0.480467
0.765036
0.76718
-0.121261
0.77477
0.784386
0.572367
0.58448
0.585368
0.586477
0.58542
0.58682
0.461172
-0.0496303
-0.0817861
-0.0222181
-0.0120605
0.129983
0.0202191
0.0164311
0.023523
0.0243011
0.504941
0.575693
0.572825
0.584598
0.592616
1.19683
1.16874
1.19487
1.10861
1.12506
1.06305
1.03558
0.871599
0.893496
0.836934
0.823066
-1.51852
-2.48154
-0.484032
-0.22952
-0.0285462
0.0984964
0.106808
0.715579
0.714911
0.725763
0.738147
1.12865
-0.328117
-0.450406
0.584253
0.583048
0.591438
0.592133
0.588144
0.587239
-0.0143511
-0.00581855
-0.045582
-0.0273136
-0.0307094
0.796577
0.795267
0.58589
0.582912
0.599903
0.620352
0.612256
0.338206
0.650812
0.664249
0.653293
0.818582
0.814876
0.82288
0.93979
0.903254
1.00305
1.02636
-0.041352
-0.0628624
0.115668
0.0917294
0.102899
0.549499
0.542266
0.568234
0.55689
0.55929
0.294506
0.1593
0.464949
0.49037
-0.223089
-0.285661
-0.387635
-0.405078
-0.512019
0.652948
0.754453
0.754778
-0.141219
-0.0624762
-0.198203
0.0106834
-0.0499281
0.562793
0.569693
0.564762
0.580109
0.574627
0.576567
0.588703
0.585782
0.587343
0.525311
0.649338
0.387783
0.355395
-0.193952
-0.100639
-0.196207
5.90895e-05
0.0059946
0.137645
0.160633
0.118316
0.109702
0.0097154
0.0164908
0.0121506
0.0267564
0.0247336
0.498032
0.487556
0.517105
0.524195
0.566219
0.567286
0.570361
0.569013
0.986383
1.00887
1.01627
0.989904
-3.48347
-6.28778
0.0999195
0.239155
-0.100276
-0.0830641
-0.0483732
0.0348855
-0.0152732
-0.000374635
0.0907619
0.085026
0.094216
0.0969938
0.700097
0.699372
1.04564
1.04345
1.02944
0.97843
0.572313
0.574435
0.580007
0.575844
0.0197721
-0.00170261
0.0130376
0.783636
0.790824
0.790277
0.301712
0.216642
0.386838
0.414174
0.685609
0.669149
0.682916
0.716047
0.752333
1.03384
1.05203
1.05028
1.05855
1.10252
1.11887
1.08429
0.529687
0.539271
0.53447
0.571467
0.569139
0.570094
0.5655
0.567049
0.564794
0.00704432
-0.376883
0.546694
0.563116
0.539447
0.54772
0.730452
0.80346
0.737559
0.746823
0.746439
0.0764733
0.0196188
0.312697
0.278398
0.440802
0.475309
0.455414
0.957665
0.917712
0.967857
0.941287
0.9024
0.928958
-0.328671
-1.8431
-0.953742
0.595174
0.406049
0.49519
0.0945436
0.0887749
0.0916477
1.03712
1.11651
0.705172
0.870259
0.880207
0.787962
0.818425
0.877186
0.801901
0.837451
0.872175
0.850992
0.609652
0.559951
0.566992
0.871559
0.926586
0.19065
0.136502
0.0924731
0.181695
0.233915
0.210401
1.08221
0.983051
1.05452
0.582657
0.583346
-0.0580136
-0.0495394
0.587465
0.587505
0.0425934
0.0662041
0.476695
-0.790344
0.179976
0.575936
0.566248
0.583128
-0.0253236
0.419958
0.0154515
0.122192
0.0874954
0.576949
0.515009
0.476347
-0.0955637
0.0978573
-0.00796106
-0.155486
0.580331
0.578642
0.582591
0.583586
0.584242
-0.104944
-0.0631075
-0.110526
-0.0361292
-0.0396089
-0.0337575
0.547952
0.564985
-0.107761
0.582704
0.584843
0.584651
0.577805
0.58349
0.581705
0.0812114
0.0673349
0.10652
0.28695
0.406637
0.723726
0.819171
0.68944
0.462518
0.223363
0.623555
0.688994
0.591448
0.749807
0.747684
0.766749
0.242908
0.0954204
0.251017
0.193582
0.573802
0.572452
0.56448
0.561598
0.577991
0.576091
0.58063
0.577577
0.580564
0.581989
0.013962
-0.00726289
-0.0245397
-0.0849034
0.376493
0.636289
0.313523
0.344428
0.214831
0.0285181
0.0260005
0.0135656
0.00981297
0.0692843
0.0696373
0.119066
0.126188
0.105966
0.0855671
0.0662584
0.0634331
0.0551949
0.570847
0.569533
0.575446
0.584056
0.524195
0.528029
0.494506
0.514192
0.500332
0.441155
0.47574
0.451166
0.0145164
-0.0386887
-0.00817173
0.0854134
0.0859253
-0.00823123
-0.0535683
-0.0422648
-0.0454591
-0.0479235
0.00622007
0.00712112
-0.114872
-0.228286
1.03291
0.972631
0.172469
0.569547
0.575949
0.572748
0.577547
0.580634
0.581484
0.579247
0.575823
0.565586
0.567366
0.563722
0.564347
-0.04699
-0.185201
-0.00929638
-0.0766671
0.188511
0.679225
0.419775
0.360179
0.35408
0.575697
0.973369
0.769194
0.765284
0.788308
-0.294724
0.101996
-0.227529
0.390736
0.21286
0.723628
0.77265
0.793333
0.741664
0.693663
-0.0634409
0.596563
0.00272056
0.0479318
0.240538
0.132655
0.766654
0.73112
0.736716
0.75421
0.773259
0.736657
0.716728
0.711623
0.750244
0.754589
0.551442
0.320039
0.275409
0.236645
0.714782
0.592348
0.649975
0.562609
0.568724
0.571527
0.570095
0.552599
0.559924
0.555632
0.561431
0.564613
0.573721
0.574066
0.569482
0.571654
0.0110231
0.00919024
0.026755
-0.0803241
-0.0685878
-0.128254
-0.0109307
0.126995
0.0907432
0.283771
0.390249
0.103201
-0.01167
0.0184173
0.048844
0.228229
0.253162
0.134056
0.230571
0.210163
0.196516
0.299489
0.308569
0.0420111
0.0343413
0.0304165
0.029297
0.0908315
0.16422
0.173684
0.0708345
0.0638104
0.0254563
0.0305335
0.0394481
0.0368283
0.0389103
0.0781299
0.0122119
0.0705101
0.0759682
0.073451
0.0735051
0.0679732
0.564325
0.566242
0.566029
0.573436
0.590039
0.605137
0.565577
0.545969
0.536983
0.539963
0.513727
0.52364
0.520045
0.532541
0.552885
0.561355
0.559616
0.56208
0.545457
0.54687
0.534384
0.537972
0.514508
0.496053
0.484422
-0.00376458
-0.0242443
-0.00576999
0.00174181
0.00732487
0.0240111
0.0842405
0.0970128
0.0808537
0.0824417
0.072853
0.00441928
0.0100603
-0.0241471
0.0538804
-0.131559
-0.164132
-0.233355
0.937581
1.05628
0.863003
0.639597
0.650441
0.889254
0.975629
0.602415
0.784361
0.808725
0.6253
0.887252
0.574365
0.573931
0.571525
0.571015
0.572247
0.041681
0.142169
0.151733
0.205905
0.320817
0.43419
0.358922
0.23258
0.365988
0.37124
0.674433
0.690117
0.637373
0.660985
0.658348
0.486504
0.564408
0.619955
0.572228
0.618331
0.640683
0.601404
0.631849
0.577473
0.534062
0.532606
0.479718
0.500404
0.478805
0.460881
0.563841
0.541679
0.552168
0.542951
0.562232
0.588376
0.583769
0.611435
0.622569
0.547628
0.50743
0.517177
0.54582
0.506109
0.519238
0.53488
0.272366
0.172371
0.255823
-0.0364821
0.0443009
0.0290172
-0.0179621
0.0277624
0.313878
-0.38487
-0.357954
-0.990812
0.536421
1.00477
0.72023
0.692079
0.768988
0.747731
0.750343
0.773061
0.78018
0.704341
0.722421
0.726203
0.682277
0.706089
0.728272
0.726216
0.570569
0.445007
0.436129
0.396513
0.271613
0.305109
0.507674
0.430056
0.356571
0.360194
0.522571
0.41149
0.477758
0.516195
0.447825
0.402892
0.606507
0.673245
0.663404
0.638828
0.55428
0.567541
0.592695
0.628817
0.655986
0.687836
0.561218
0.566978
0.568259
0.565757
0.562921
0.565851
0.565942
0.568461
0.569311
0.572215
0.571209
0.0176439
0.0291396
0.0201473
0.0126783
0.0386974
0.0326054
0.0759398
0.0621739
0.0524727
0.059849
0.031788
0.0269403
0.0330608
0.0426645
0.153834
0.167519
0.150488
0.110874
0.296294
0.428676
0.497456
0.375157
0.269482
0.293131
0.317797
0.0491802
0.0799906
0.0644659
0.106756
0.0947757
0.0406693
0.0285746
0.0312352
0.0430151
0.0534788
0.030656
0.0271662
0.0372987
0.0344891
0.028645
0.013252
0.548027
0.541629
0.542849
0.537059
0.535983
0.549497
0.553797
0.55549
0.560769
0.56268
0.553338
0.558688
0.562209
0.0668642
0.0180228
0.0287191
0.0400798
0.0284712
0.0269453
0.0288301
0.166639
0.0922016
0.0977271
0.0554529
-0.0693858
-0.0130545
0.532609
0.531164
0.532108
0.75928
0.610655
0.530671
0.627372
0.732823
0.315269
0.514562
0.34746
0.927909
0.820667
0.965835
0.584209
0.285065
0.439514
0.489594
0.298914
0.371519
0.376183
0.266103
0.297681
0.32918
0.42932
0.30864
0.283218
0.0415708
0.230054
0.345735
0.32676
0.454626
0.517753
0.304858
0.225354
0.179649
0.666361
0.685837
0.705489
0.675362
0.700061
0.623341
0.614442
0.632468
0.640209
0.634885
-0.719148
-0.427187
-1.37136
-0.686862
-0.237772
0.565564
0.52981
0.806699
0.695298
0.759963
0.745443
0.706173
0.672305
0.683656
0.716224
0.416087
0.526306
0.500779
0.506647
0.408929
0.342221
0.641672
0.635743
0.671276
0.695596
0.663407
0.696589
0.558863
0.558543
0.558193
0.554668
0.553101
0.555238
0.1147
0.0855978
0.117111
0.0997992
0.0790927
0.0670176
0.0667329
0.0558955
0.0509617
0.0470865
0.0745883
0.0731165
0.209268
0.150658
0.0730292
0.103655
0.0447922
-0.0219389
-0.0401919
0.0588924
0.151627
0.142181
0.446318
0.697214
0.518932
0.687452
0.526608
0.582233
0.522295
0.512829
0.541864
0.424574
0.503782
0.264893
-0.237245
-0.146467
0.821728
0.840442
0.622247
0.435896
0.207122
0.396223
0.597354
0.533595
0.572133
0.641004
0.633087
0.0524138
0.119922
0.378774
0.607056
0.27678
0.267959
0.263048
0.437098
0.361808
)
;

boundaryField
{
    wall-4
    {
        type            zeroGradient;
    }
    velocity-inlet-5
    {
        type            zeroGradient;
    }
    velocity-inlet-6
    {
        type            zeroGradient;
    }
    pressure-outlet-7
    {
        type            fixedValue;
        value           uniform 0;
    }
    wall-8
    {
        type            zeroGradient;
    }
    frontAndBackPlanes
    {
        type            empty;
    }
}


// ************************************************************************* //
