/*--------------------------------*- C++ -*----------------------------------*\
  =========                 |
  \\      /  F ield         | OpenFOAM: The Open Source CFD Toolbox
   \\    /   O peration     | Website:  https://openfoam.org
    \\  /    A nd           | Version:  9
     \\/     M anipulation  |
\*---------------------------------------------------------------------------*/
FoamFile
{
    format      ascii;
    class       surfaceScalarField;
    location    "34";
    object      phi;
}
// * * * * * * * * * * * * * * * * * * * * * * * * * * * * * * * * * * * * * //

dimensions      [0 3 -1 0 0 0 0];

internalField   nonuniform List<scalar> 
1300
(
3.75095
5.62643
-3.24653
3.75095
-5.46609
5.62643
-4.4435
4.4435
-0.985147
0.985147
1.87643
1.87452
-2.95768
2.95768
-2.38257
2.38257
-2.55961
2.55961
-5.24639
5.24639
-5.06802
5.06802
4.66755
-4.66755
-5.88725
5.88725
-1.34603
1.34603
-3.81865
3.81865
3.16978
-3.16978
-2.28098
2.28098
-0.260829
0.260829
-0.553529
4.30448
3.19742
3.19742
-2.05017
2.05017
-4.86293
4.86293
6.21804
-6.21804
4.69101
-4.69101
-1.44448
-2.48987
0.666489
-10.2301
-4.7996
-4.7996
-8.4404
8.4404
-2.81397
2.81246
2.94361
-2.94361
-1.77958
1.77958
-4.38462
-0.0588766
-4.38462
4.43389
0.00960737
4.43389
-1.08009
0.0949394
-1.08009
3.92628
-3.92628
0.848848
0.136299
0.848848
3.06476
-3.06476
-1.87705
3.75348
1.87391
-1.87186
6.17634
-1.87909
3.75361
-5.94917
5.94917
-3.17376
0.216077
-3.17376
2.77084
0.186837
2.77084
-6.73114
6.73114
-2.399
0.0164204
-2.399
2.3986
-0.0160269
2.3986
2.86695
-2.86695
-2.65856
0.0989532
-2.65856
2.4513
0.108305
2.4513
0.353544
5.27289
-5.97997
8.79244
-5.27289
0.0264943
5.20839
0.0380028
5.20839
-5.10585
0.0378305
-5.10585
5.01242
0.0555962
5.01242
4.75843
-0.0908795
4.75843
-4.7823
0.114748
-4.7823
-3.52966
-5.34731
-6.15156
0.264312
-6.15156
-1.34694
0.000913014
-1.34694
1.30378
0.0422508
1.30378
-3.59855
3.59855
-4.20435
0.385698
-4.20435
3.1242
0.0455847
3.1242
1.8685
1.88245
5.61946
-5.61946
2.44968
-2.32142
0.0404442
-2.32142
-2.2959
-2.39511
2.2959
-0.0149206
-0.525352
0.264523
-0.525352
3.15927
0.0381525
3.15927
2.29377
0.157535
-2.29377
0.2436
3.20861
-3.20861
1.40945
0.640711
1.40945
-5.56769
5.56769
4.95345
0.058977
-4.95345
0.0905181
6.15637
0.0616639
6.15637
-6.19954
-0.0184963
-6.19954
1.85036
-4.34023
-3.10264
5.41964
0.467609
-5.41964
0.620041
2.91408
0.0295318
2.91408
-2.92101
2.92101
-2.98305
0.0394389
-2.98305
-2.18163
0.402052
-2.18163
1.47821
0.30137
1.47821
-4.25448
-0.130142
-4.25448
-4.34947
0.145116
4.34947
0.0844251
1.08977
-1.08977
-1.1907
0.11061
-1.1907
-4.08102
-0.173461
4.08102
-0.154735
-3.79986
-0.126428
-3.79986
-3.02344
0.0403874
3.02344
0.0413151
3.11258
0.0466935
-3.11258
0.0478221
-1.87083
3.75328
-1.88012
3.75403
-5.56726
-0.381911
-5.56726
6.25735
-0.308181
6.25735
3.51472
0.303935
-3.51472
0.34096
2.62819
0.142658
2.62819
-6.70547
-0.0256678
-6.70547
6.70287
0.0282657
6.70287
2.49864
0.129546
-2.49864
0.0996449
2.35811
0.0404883
2.35811
2.88194
-0.0149894
2.88194
-2.86473
-0.0022165
-2.86473
2.801
-2.801
2.73395
0.0670492
-2.73395
0.0753959
-11.1328
11.1143
-0.0350351
-11.0978
5.17335
5.17335
4.18724
0.571189
4.18724
-4.99718
0.214876
-4.99718
2.64553
-5.74818
4.49676
-8.02642
5.45931
-15.6894
3.8712
-9.21851
6.52081
-6.52081
6.35926
0.161549
-6.35926
0.207699
-1.37157
0.0246258
-1.37157
-2.99174
-0.606815
-2.99174
4.25291
-0.654363
4.25291
-3.02898
3.02898
-3.07791
0.0489328
3.07791
0.0462883
2.33392
0.0241971
-2.33392
0.0124947
0.690635
0.158213
-0.690635
0.165283
3.40017
-0.19156
3.40017
-3.03063
-0.177987
-3.03063
-1.39025
0.0186849
1.39025
0.0191998
-5.81538
0.247692
-5.81538
-11.1908
0.0930166
-11.1528
-6.10653
-6.10653
2.33387
11.1263
-2.88675
0.0220231
2.88675
0.0273287
2.97613
0.0528462
-2.97613
0.0551149
-2.86286
0.0618566
2.86286
0.0581547
-2.55943
0.377802
-2.55943
-1.07009
1.07009
-1.24284
0.172752
1.24284
0.235364
1.34026
-0.250486
1.34026
1.25894
0.0448396
-1.25894
0.0682443
-3.68853
-0.111324
-3.68853
6.48213
-0.224779
6.48213
-2.93429
-0.0963402
2.93429
-0.0523497
-0.0333541
11.1477
-5.14
0.0341496
5.14
-11.2093
11.2435
-3.23363
0.674197
3.23363
0.953614
5.28875
0.278937
-5.28875
0.291575
6.64036
0.0625112
-6.64036
0.119554
-2.50182
-0.489913
-2.50182
-4.98271
-0.58455
4.98271
-0.729793
-11.4749
-0.203028
11.6779
-11.4193
6.01841
0.137966
-6.01841
11.3815
-1.00738
-0.0823932
1.00738
0.0627141
1.65563
-0.315369
1.65563
3.58367
-0.183496
-3.58367
-0.104864
-6.62852
-0.0769483
6.62852
-0.146395
-2.06403
-0.437798
2.06403
-0.408399
-4.26698
4.30513
1.90937
-2.01983
-2.3204
-4.41494
1.85202
1.90127
4.30169
-10.1808
-5.50863
-9.56073
7.26643
-6.97485
-9.27058
9.1797
7.62752
-7.75395
-5.78533
5.83161
6.48215
-6.44084
1.87863
1.87485
7.88786
-7.67178
-15.6972
15.3153
7.47677
-7.46035
15.8042
-15.8298
-17.8197
17.8823
-5.7208
5.81976
-6.72586
6.72364
-6.94389
6.89154
-3.31385
-4.71256
13.049
-12.7847
7.81944
-7.77899
-8.50912
8.89482
3.38246
0.922668
3.42915
-1.8823
3.76093
-1.87131
3.78068
3.12223
-6.43609
2.62595
-4.94635
3.55122
4.26822
-3.5363
-0.878649
-5.91888
5.94841
-5.82158
5.87973
8.96946
-9.02834
-1.88518
3.76003
-1.86885
3.77011
-3.42519
-2.36013
3.37961
0.922086
7.77755
5.27149
-8.24515
-1.31557
-7.87188
7.68838
-8.14956
7.97157
-0.441051
5.82024
-5.37918
4.42188
-1.55875
7.37899
5.70768
5.92256
5.86708
-5.58814
1.10778
-6.48696
-6.39644
-2.53273
2.64334
2.46927
-2.33297
5.98709
1.64044
5.83235
-5.58502
-2.16893
-5.69635
3.82118
2.01043
3.87011
4.07674
2.40541
4.11713
3.03082
-3.03577
0.00495083
-3.05632
6.08714
0.724261
-5.41646
-4.49437
4.9355
2.95236
5.12234
-5.47704
-2.19475
-5.13607
-9.5729
-6.12427
-10.1575
10.1287
5.18654
9.82054
-11.9912
11.8448
4.77955
2.69722
4.76353
-4.92868
-2.53166
-4.82904
11.6515
-2.56183
-9.08965
-10.3087
-7.51108
10.2804
5.52378
10.9168
6.96548
11.0363
4.42048
7.231
-9.94426
2.43318
-3.86851
-1.85229
-3.79312
3.69218
2.12758
3.80049
-4.21302
-2.51284
-4.191
-4.28644
-2.65745
4.30143
2.42221
-4.39914
-3.75042
4.49548
2.39607
4.93283
-10.4415
4.28568
-8.99824
-9.17301
-3.61171
-8.96531
3.79156
3.11496
-6.90652
-2.64452
8.46952
-4.2013
7.59087
-4.65834
-3.12065
-4.64584
-6.80295
-1.70617
-6.65783
-8.89844
8.40853
-9.20963
8.55527
12.6528
-5.71012
-6.94268
-3.96812
-2.47272
3.9203
-0.491145
-3.711
3.71595
0.049931
3.83061
4.75328
4.26213
-3.88711
-1.93447
-3.83199
3.83236
2.04737
3.89422
6.75094
2.21852
6.76055
-6.46776
-2.56058
-6.5979
9.07047
-8.66842
2.89584
-2.87716
5.29943
2.67214
-5.10787
-2.764
6.21013
-3.15355
-3.05658
-12.2103
10.5587
1.65158
-4.83127
-0.409388
-0.148559
-5.49881
-3.77177
5.38407
0.538489
11.0972
7.32539
-5.51361
5.7613
6.16431
6.22328
-0.173161
5.83254
-5.15834
5.31725
-2.42434
-2.89292
5.32299
-5.49645
-1.27491
-5.34726
4.07234
0.335904
1.72605
-1.46152
-1.99707
-0.53566
-1.92882
1.47798
0.991296
1.63619
0.961989
1.68135
-2.95433
0.556687
2.39764
-1.99234
-1.77629
-3.69354
-1.04269
4.73623
5.59399
2.09439
-5.48913
-0.20722
2.6872
-2.64495
-0.772112
-2.92142
2.13753
-2.90964
-3.6371
-1.89713
5.53423
-3.37072
-0.461275
3.31787
0.552245
-3.82536
-2.09351
3.78592
0.331204
-3.12473
6.19033
-3.0656
-5.05921
2.52873
3.55842
4.53916
-4.78986
2.44634
2.34353
-1.23145
4.22278
0.899555
4.36544
-6.74205
4.5473
5.74421
3.15061
-6.04814
0.912066
-5.82998
8.44989
-7.27598
-1.17391
4.07185
4.37804
7.15694
5.49586
-5.72643
12.8834
-1.1554
-6.12059
6.98538
-3.83477
4.77769
-8.61246
-10.2736
4.15297
-9.24966
11.0119
-1.76221
-3.61739
-8.37382
12.867
-1.22195
-11.6451
8.5986
-4.21027
-4.25693
8.4672
-6.7721
6.7886
-1.96681
-4.82179
-10.1362
-5.69364
10.2132
1.63165
-9.82887
12.262
-2.59787
4.0144
0.749125
4.05489
3.2531
-5.39287
2.13977
3.519
-5.48581
2.07284
-7.46571
-6.89645
12.3688
-5.47238
-10.5082
-9.59051
-0.917647
2.49238
9.76966
-9.45786
7.35794
2.09992
3.30982
0.584395
-3.37687
-0.416243
0.2607
4.53816
-4.79886
4.06119
4.21872
3.35562
1.18253
3.83982
2.10858
-3.86715
-0.32385
-4.15555
1.4981
-1.73334
-3.66415
5.16225
-4.06359
0.399438
-2.73257
-3.50818
6.24075
-4.58486
3.03929
3.15104
5.08667
-4.91202
1.40385
-2.40108
-2.51095
2.65974
-4.39308
1.95768
3.20457
4.35375
0.603324
6.20252
6.16631
-9.31747
0.319232
11.4378
-10.1222
2.51138
8.52495
-9.86933
0.278813
-8.6865
1.38197
-5.58327
-5.52455
5.1001
-6.80627
-3.51236
6.14222
0.618333
-6.22664
-0.431191
-6.04563
-2.85281
-6.48343
-3.06165
-6.14798
-8.78808
-1.65374
-7.13435
6.75479
-6.69921
-3.45825
7.429
1.12627
-7.40828
7.32588
-7.49149
7.17612
0.094867
3.62109
4.357
1.88428
-2.38964
4.27392
-5.08419
7.30271
-8.59734
3.51315
4.05595
-6.61653
-4.5414
5.0347
4.03577
5.33607
8.93156
-10.4385
1.50694
-10.7426
12.0792
-1.33662
-16.5203
5.77767
-7.5887
2.62582
0.270019
2.65045
0.643793
2.44715
-3.09094
-2.23336
-2.21416
-2.35564
-3.44577
5.80141
1.16368
-3.44418
2.2805
-3.50176
4.66544
-0.0756182
-3.36856
5.2982
-2.85105
5.56822
-3.57738
1.99084
3.35908
5.7242
-2.36512
4.36723
-1.69509
1.84255
-4.20766
-1.60323
-2.96712
5.0947
-3.27363
3.67306
-0.295841
3.96891
-4.08441
0.930862
-0.728789
3.48993
3.73353
4.28587
-3.10334
2.97837
-4.67346
-1.22929
-4.07014
-0.865569
-0.303953
-3.75623
4.06018
6.03007
-6.33402
-5.25854
9.56274
-4.3042
7.71662
-5.40264
-2.31398
-4.27058
-4.39784
3.89277
1.93976
9.65638
0.209
-5.61164
-4.94934
-3.99572
3.21084
2.10641
-1.92398
3.57556
2.07254
-0.346493
0.561836
1.07435
1.85794
-1.29611
0.221888
1.63605
-1.23964
1.97219
0.715016
-2.01703
0.0882039
-1.35284
3.49037
1.0448
-2.03609
0.739988
1.06281
-3.48715
4.85211
-2.49338
-2.35873
5.91492
1.16575
-3.65913
4.18151
-3.84561
2.3342
-3.37689
-1.32493
-5.17054
-3.5301
-2.55424
4.83473
-3.24718
5.34157
1.19763
-5.13435
6.33197
-3.58626
1.68914
-3.07642
3.79144
-1.07917
-1.99725
2.81696
2.71727
-2.9481
0.026671
-0.131138
2.33751
-2.46865
-0.572134
-2.56447
-4.57177
4.90298
-2.10756
4.5539
2.16636
-1.91445
6.46835
1.81134
-3.72579
-3.24786
-3.70914
-1.38226
3.15689
-0.567626
-4.26141
-5.38942
4.13187
0.233574
-6.85951
7.66925
-0.809744
-3.90715
-0.640151
4.71201
-5.95899
0.47318
-3.88615
3.78311
4.68266
4.91624
-11.4448
-0.200303
-6.25826
1.14793
-7.40618
5.52596
-3.58939
7.74236
-10.4202
6.962
-9.29398
6.56846
-0.837729
6.2553
-4.11553
2.83434
-8.52798
-6.89633
5.43839
-2.74118
6.18752
-3.12816
9.31568
-5.72602
5.16787
4.14781
-0.703973
-3.94187
-5.30508
4.60111
-0.137214
3.91767
4.97362
-2.86504
4.64977
2.25614
-4.65722
-2.13694
-6.49821
1.84099
-3.34717
-1.91622
3.75721
3.17045
3.75484
1.24626
-3.3386
7.33266
-8.25031
-1.86028
-3.66427
5.37197
-0.770861
3.33195
-6.99622
-2.25131
4.86417
-0.795236
-4.06893
0.845952
-4.35831
1.65463
-6.01294
5.15164
-5.58283
2.21103
-9.79973
-5.19724
-5.13453
-2.24919
-5.2423
-7.61076
5.36157
-1.83309
5.49279
-8.58408
7.78885
-3.49513
8.8567
-5.43841
-1.04502
5.84681
1.32932
10.186
0.165645
-4.70704
-1.87454
3.94077
-2.06623
1.3363
-3.59059
0.350189
2.47999
3.43494
-6.55233
-0.0641968
-4.77124
-3.92168
7.95745
5.64105
11.6711
1.23262
9.149
-1.19155
10.3816
4.14452
4.37989
-3.04084
4.54779
1.01934
4.53249
-0.836052
2.82689
1.8144
1.81531
0.829643
2.31664
1.41689
3.2475
0.156558
-2.0576
4.63806
-8.63379
-0.973575
-8.0626
1.1171
5.72727
-4.61017
3.09882
-0.992412
1.03259
0.0964971
-1.61385
1.51736
-2.79642
-1.96035
-0.324293
-1.61855
2.35854
1.87182
-2.03425
-0.762173
0.327329
-3.85743
3.04956
-3.02289
-0.305616
6.02636
-2.75267
0.284022
-1.06353
-2.28045
-2.81611
2.72791
6.17746
0.290885
3.11186
5.19386
3.10035
0.235311
3.91683
-5.67904
-3.54888
-5.87934
-0.353379
4.35863
1.7883
7.98136
5.93611
5.16525
-1.83098
-10.0813
6.58706
-2.03927
5.25045
-1.18152
-4.83143
4.97813
2.32457
-5.59647
0.0136357
-4.81779
-6.85707
-0.523027
8.31187
-9.66299
8.61797
5.76516
1.36919
-4.40734
-0.727185
4.23459
0.145298
10.5269
-1.1296
-6.81573
7.94533
-4.59767
3.62409
0.834502
2.74106
2.35186
1.35945
-5.45629
-10.0665
-1.91584
-1.57131
-4.27457
0.461658
-2.33348
6.24985
-2.62575
3.93587
5.31958
6.35217
-2.1597
-4.17432
6.4639
-2.52803
3.82414
)
;

boundaryField
{
    wall-4
    {
        type            calculated;
        value           uniform 0;
    }
    velocity-inlet-5
    {
        type            calculated;
        value           uniform -3.75095;
    }
    velocity-inlet-6
    {
        type            calculated;
        value           uniform -5.62643;
    }
    pressure-outlet-7
    {
        type            calculated;
        value           nonuniform List<scalar> 8(3.24653 5.46609 3.93436 9.5636 8.87698 4.953 7.14229 9.3305);
    }
    wall-8
    {
        type            calculated;
        value           uniform 0;
    }
    frontAndBackPlanes
    {
        type            empty;
        value           nonuniform List<scalar> 0();
    }
}


// ************************************************************************* //
