/*--------------------------------*- C++ -*----------------------------------*\
  =========                 |
  \\      /  F ield         | OpenFOAM: The Open Source CFD Toolbox
   \\    /   O peration     | Website:  https://openfoam.org
    \\  /    A nd           | Version:  9
     \\/     M anipulation  |
\*---------------------------------------------------------------------------*/
FoamFile
{
    format      ascii;
    class       volVectorField;
    location    "34";
    object      U;
}
// * * * * * * * * * * * * * * * * * * * * * * * * * * * * * * * * * * * * * //

dimensions      [0 1 -1 0 0 0 0];

internalField   nonuniform List<vector> 
918
(
(0.985166 -0.000497885 0)
(0.00500955 2.96625 0)
(-0.0368717 0.864659 0)
(0.979701 0.0021512 0)
(-0.0743053 1.45849 -3.6149e-20)
(-0.00704196 2.94879 -2.62469e-18)
(0.832197 1.17601 3.96419e-19)
(0.326612 0.148986 -1.71728e-20)
(0.999907 -0.00029019 0)
(0.048607 0.841323 0)
(0.000221068 0.654479 0)
(0.734523 -0.0114782 0)
(0.0111257 2.93032 0)
(0.00263248 2.79473 0)
(-0.017582 3.15708 7.36634e-19)
(-0.0367464 1.8469 -9.89835e-20)
(0.400912 0.0475381 1.13079e-18)
(0.19032 1.18751 2.68464e-19)
(0.962789 0.0050285 0)
(-0.0113825 0.636059 0)
(0.0776881 0.192845 -8.0836e-19)
(1.00197 -0.00498284 0)
(1.00022 -0.00979741 0)
(0.975717 -0.00644229 0)
(0.586412 -0.038487 0)
(0.0161508 2.63799 0)
(-0.0148785 2.91003 9.76432e-19)
(-0.0467309 0.811137 0)
(-0.139018 1.04892 0)
(-0.0400126 0.817732 0)
(-0.24647 2.5484 0)
(-0.135246 1.64584 2.85398e-20)
(-0.117801 1.47747 0)
(-0.0206093 2.9876 -9.48132e-23)
(-0.0166914 3.0053 2.03995e-18)
(0.00210534 3.00019 0)
(0.870506 -0.00950417 0)
(0.403494 0.936876 2.09342e-19)
(0.81329 1.19206 -4.06525e-19)
(0.96213 1.03114 4.69338e-19)
(0.683145 1.28507 -9.29263e-20)
(0.67969 1.27056 5.35338e-19)
(0.367875 0.235522 1.67535e-20)
(0.342291 0.118726 0)
(1.13851 0.554404 0)
(0.332562 0.234486 7.65841e-20)
(0.293305 0.158369 -7.94745e-20)
(0.919697 -0.00745425 0)
(1.00027 0.0001363 0)
(0.999909 0.000328002 0)
(1.00364 -0.00777824 0)
(1.00096 -0.000927979 0)
(1.00017 2.82114e-05 0)
(0.0797542 1.79718 -8.83816e-19)
(0.0322063 1.00312 0)
(0.0868931 0.904765 0)
(0.0214273 0.956657 0)
(0.0337407 0.774539 0)
(0.0230469 1.99916 0)
(-0.00664748 0.810218 0)
(0.0209829 0.659259 0)
(-0.00592753 0.812472 0)
(-0.00587292 0.661737 0)
(0.836494 -0.0152963 0)
(0.850614 0.0275709 0)
(0.768267 -0.00172284 0)
(0.824009 0.0362096 0)
(0.702673 -0.0164474 0)
(0.0146938 3.0004 9.75159e-19)
(0.0115133 3.008 0)
(0.00612089 3.00279 0)
(0.0135528 2.99736 1.11e-23)
(0.00797466 2.95846 -1.44933e-18)
(0.0144826 2.982 0)
(0.0108224 2.90362 0)
(0.0249309 2.93034 2.26585e-24)
(0.00441561 2.82495 0)
(0.0312392 2.91596 0)
(-0.00570721 2.74553 0)
(0.308576 3.55403 0)
(-0.131848 3.63565 0)
(0.139696 3.24745 -6.85524e-19)
(-0.0125056 2.98254 0)
(-0.264661 2.3668 0)
(-0.0604238 1.98754 9.76059e-20)
(-0.0138099 1.90675 -9.18418e-20)
(0.488059 0.14775 -3.9126e-19)
(0.398907 0.0269528 -3.77882e-19)
(0.473201 0.170971 -1.17836e-18)
(0.385471 0.0679816 -7.77145e-19)
(0.217561 0.938378 0)
(0.272302 1.32667 -3.3411e-19)
(0.377528 1.27186 5.62492e-19)
(0.987496 0.00856145 0)
(0.941933 0.00586966 0)
(1.0003 0.000577235 0)
(1.00287 0.00930342 0)
(1.00302 0.0084664 -2.98725e-18)
(0.991916 0.00969344 2.25592e-18)
(0.00327494 0.780632 0)
(-0.00903916 0.634319 0)
(-0.0105832 0.840996 0)
(-0.0163576 0.781771 0)
(0.0169547 0.627429 0)
(0.12223 0.19981 2.49951e-19)
(0.178271 0.177859 0)
(0.993534 -0.00838541 0)
(0.954398 -0.00652864 0)
(0.776387 0.0450407 0)
(0.714542 0.0549785 0)
(0.660536 -0.0304851 0)
(0.951368 -0.0101203 0)
(0.632859 0.0681639 0)
(0.461935 -0.019047 1.64455e-18)
(-0.0363798 2.86434 7.50824e-19)
(0.0420549 2.90952 0)
(0.0547837 2.8847 0)
(-0.00430986 2.69892 0)
(-0.0132972 2.98507 9.29287e-19)
(-0.0180423 2.89509 0)
(-0.0154509 2.98807 -2.87174e-18)
(-0.0133217 2.92518 9.81729e-19)
(-0.138975 1.14973 0)
(-0.182826 1.32199 0)
(-0.112037 1.92416 -3.32225e-21)
(-0.115393 1.82164 0)
(-0.0770614 1.69123 0)
(0.937717 -0.00765105 0)
(0.856031 -0.00940114 0)
(0.863582 0.00665337 0)
(0.949026 -0.00799494 0)
(0.883516 -0.0081699 0)
(0.515636 1.13076 -2.62898e-19)
(0.565203 1.18255 0)
(0.367456 0.880898 3.77695e-20)
(0.309758 0.740496 0)
(0.921416 1.06932 -1.25374e-19)
(1.03296 0.871676 2.47113e-19)
(0.372984 1.37671 0)
(0.537167 1.3472 0)
(0.544986 1.30091 0)
(0.111389 0.182836 -3.20748e-19)
(0.401697 0.220306 0)
(0.368611 0.111014 2.1903e-19)
(1.0029 0.926041 0)
(1.06733 0.773575 0)
(1.09265 0.714765 -1.74056e-19)
(1.1187 0.614975 0)
(1.1634 0.398656 5.48628e-20)
(0.957404 -0.00888147 0)
(0.962308 -0.0101298 0)
(0.90138 -0.00795464 0)
(0.984161 -0.00918034 0)
(0.97461 -0.00940393 0)
(0.937019 -0.00639015 0)
(1.00019 0.00233863 0)
(1.00091 0.00139347 0)
(0.999913 0.000851141 0)
(0.0332835 2.05652 4.85371e-19)
(0.120424 1.73833 0)
(0.0132836 2.17161 7.71566e-19)
(0.0544437 1.8567 -6.62364e-19)
(0.10519 1.1913 -2.18905e-19)
(0.0467046 1.07836 0)
(0.142175 1.05106 0)
(0.0118413 0.911195 0)
(0.020287 0.728648 0)
(-0.00452633 2.20323 -1.81262e-21)
(0.0338551 1.99275 0)
(-0.00559332 2.17909 -9.93045e-20)
(0.0272429 2.00018 1.8781e-19)
(0.0160692 0.868078 0)
(0.00854371 0.830477 0)
(0.0241172 0.692558 0)
(-0.00495198 0.806423 0)
(-0.0225161 0.648235 0)
(0.934352 0.00877926 0)
(0.843581 -0.0147414 0)
(0.924766 -0.000438633 0)
(0.839042 -0.0124865 0)
(0.812771 0.00235443 0)
(0.902662 0.0191351 0)
(0.879953 0.0235168 0)
(0.789662 0.000767568 0)
(0.00574616 3.06483 -9.18532e-21)
(0.016517 3.05777 0)
(0.0146254 2.96908 0)
(0.00862309 2.87632 0)
(0.925473 3.97062 0)
(1.24014 3.30262 9.24225e-19)
(0.0701838 3.07481 0)
(-0.0283835 2.90577 0)
(-0.0871892 1.50065 0)
(-0.182522 2.19509 0)
(-0.237986 1.90427 0)
(-0.213319 2.51639 3.3736e-20)
(-0.226821 2.47594 0)
(-0.253038 2.48763 0)
(0.0197063 1.97953 1.66056e-21)
(-0.0171641 2.08575 7.68557e-20)
(-0.0313296 2.03924 9.34284e-20)
(0.00240282 1.95042 0)
(0.514366 0.121533 5.86655e-19)
(0.414724 0.00528875 -5.76299e-19)
(0.26116 1.5675 0)
(0.266358 0.714578 -3.26534e-19)
(0.177733 1.65214 -1.10267e-18)
(0.227426 1.18361 1.10556e-18)
(0.902321 0.00658029 0)
(0.967538 0.010973 0)
(0.974625 0.0107519 0)
(0.923485 0.00652378 0)
(-0.0114114 0.807361 0)
(-0.00223808 0.795596 0)
(-0.00549884 0.63486 0)
(0.28327 0.230472 7.04114e-19)
(0.232671 0.212026 -8.32787e-19)
(0.245125 0.170878 0)
(1.07412 0.0819828 3.34237e-20)
(1.05498 0.0369142 0)
(0.995484 0.0370502 0)
(0.893601 -0.0086547 0)
(0.538636 0.0957471 0)
(0.570601 0.0740668 -2.63227e-18)
(0.432716 -0.00346409 9.88271e-19)
(0.0091437 2.98137 7.95553e-19)
(-0.0326187 2.86612 4.69001e-20)
(0.00366419 3.05027 -1.93842e-20)
(0.0201055 3.04336 6.88147e-19)
(-0.0149798 2.99655 3.21768e-20)
(-0.0129673 2.94943 -1.29321e-22)
(-0.0172883 3.01196 -5.92809e-19)
(0.0148819 3.02381 4.29502e-19)
(0.00739237 3.03691 -6.8241e-19)
(0.932204 -0.00228777 0)
(0.938263 -0.00396782 0)
(0.843668 -0.00859919 0)
(0.956808 0.0116371 0)
(0.943229 0.0128109 0)
(0.881926 0.00621859 0)
(0.918586 0.015812 0)
(0.926849 0.0144646 0)
(0.838989 0.00444239 0)
(0.719298 1.40999 5.10513e-21)
(0.753036 1.51939 0)
(0.192154 0.333171 7.85904e-20)
(0.215065 0.653334 6.33267e-19)
(0.258641 0.717118 -3.65431e-19)
(0.267033 0.539371 7.27286e-19)
(0.327113 0.777368 1.67729e-18)
(0.129108 0.21826 3.868e-19)
(0.448241 0.193519 8.24896e-19)
(0.424946 0.210191 2.13774e-19)
(0.379731 0.0934816 4.09858e-19)
(1.15288 0.457103 -9.57474e-21)
(1.16347 0.251642 -1.75542e-20)
(0.00319503 2.20905 3.10521e-19)
(0.0538797 1.92304 0)
(0.960966 0.0266795 0)
(0.937453 0.012257 0)
(0.859639 -0.0186206 0)
(0.0113505 3.07456 0)
(0.0199339 2.94421 1.27286e-18)
(0.0164405 2.95645 0)
(0.00622585 2.85055 -1.2627e-18)
(0.00626974 3.09176 3.10171e-19)
(0.00701882 3.08211 0)
(0.786146 1.82237 -1.51012e-19)
(1.2478 2.50129 3.79545e-19)
(0.76835 1.96238 -1.21188e-18)
(0.020228 2.98245 -6.94199e-19)
(0.0357308 3.00237 0)
(-0.0338005 2.879 0)
(-0.010568 2.15431 -7.54203e-21)
(-0.013132 2.12048 -1.58243e-19)
(0.0207162 1.99845 -2.51564e-21)
(0.274572 1.37391 1.06402e-18)
(0.220663 0.499094 -7.29544e-19)
(0.0633337 1.9824 8.23087e-19)
(0.137188 1.87166 -9.69188e-19)
(0.178131 1.47677 8.99636e-20)
(0.00516024 3.11871 -1.74186e-18)
(0.0111595 3.1193 1.90311e-18)
(-0.00906415 2.98073 8.63062e-19)
(-0.00423465 2.97746 -8.21158e-19)
(-0.021434 2.88091 -8.79017e-19)
(0.00847748 3.0996 -2.31105e-18)
(0.00175044 3.10511 2.32504e-18)
(0.271009 0.678975 0)
(0.231818 0.667411 -1.30702e-18)
(0.0985942 0.22194 5.7833e-19)
(0.344066 0.901721 1.15157e-18)
(0.183791 0.261001 -1.77661e-18)
(1.15585 0.17102 9.19511e-20)
(1.16482 0.306133 0)
(1.14254 0.119297 -4.10609e-20)
(-0.00611041 2.21057 -2.47104e-21)
(-0.00379966 2.21659 0)
(0.0421986 1.96613 0)
(0.337772 1.28066 -3.83937e-19)
(0.363397 1.11051 -8.27011e-19)
(0.196872 0.355583 1.47431e-18)
(1.00587 -0.0108734 0)
(1.00766 -0.00765762 5.51643e-19)
(-0.0386634 1.19367 0)
(-0.0210685 1.03895 0)
(1.00222 0.00348783 1.79291e-21)
(1.00364 0.00941523 1.12533e-18)
(-0.193203 2.51697 -4.46492e-20)
(-0.156041 2.51127 0)
(0.0359888 3.17932 4.73093e-19)
(0.395786 3.49268 0)
(1.1372 0.652112 -9.19654e-20)
(1.01294 0.0130692 -2.13556e-21)
(1.02119 -0.0104661 0)
(1.00168 9.88369e-05 6.06812e-23)
(0.0968829 1.35144 0)
(0.147945 2.58331 0)
(0.0220813 1.30731 0)
(-0.00343823 2.62687 9.28064e-20)
(-0.0246809 2.57518 7.47625e-20)
(1.00348 0.0270875 2.40774e-21)
(1.06153 0.00327192 0)
(1.09374 0.0207499 0)
(-0.126175 2.06227 0)
(-0.0318941 2.55939 0)
(0.0291996 1.19666 0)
(0.28553 1.46476 -1.18591e-19)
(1.01124 -0.00966032 0)
(1.0094 -0.0149484 0)
(1.00233 0.000684863 7.04208e-19)
(1.00547 -0.00485517 -8.28557e-19)
(1.00118 -0.00100915 0)
(0.027311 1.7364 0)
(0.0169772 1.27552 0)
(-0.0532073 1.55796 0)
(0.0190902 1.16381 0)
(0.0373904 1.05801 0)
(0.00830274 1.00911 0)
(1.03417 -0.00659236 0)
(1.02085 0.0157322 -9.63368e-22)
(0.796571 1.26162 2.06525e-19)
(1.0023 0.000250937 -7.04195e-19)
(1.00406 0.00522618 8.21621e-19)
(1.00118 0.00206058 0)
(1.01284 0.0102642 6.99261e-19)
(1.00804 0.00827198 -8.46105e-19)
(1.00861 0.0146751 0)
(-0.0835356 2.56879 0)
(-0.141416 2.54489 8.74233e-20)
(-0.0815052 2.53795 -7.38711e-20)
(1.2141 0.256552 7.24989e-19)
(1.15117 0.0773966 0)
(0.0450017 3.07774 -1.01792e-18)
(0.065735 2.85353 -7.38849e-20)
(0.142438 3.19385 1.54101e-18)
(0.137075 3.22259 -2.40869e-19)
(0.135935 3.23541 0)
(0.0196615 3.13779 2.65645e-19)
(0.0767443 3.1606 1.00536e-18)
(0.0693449 3.18687 -4.99942e-19)
(0.0230332 3.12918 0)
(0.655747 0.304096 0)
(0.576477 0.351355 0)
(1.10736 0.684429 2.37857e-19)
(1.10335 0.814381 -2.54742e-19)
(1.16604 0.571552 0)
(1.1954 0.512592 0)
(1.01619 0.0132705 -1.30436e-18)
(1.015 0.01425 1.63719e-18)
(1.02513 -0.0100555 0)
(1.02317 -0.0119544 0)
(1.00647 0.00260356 0)
(1.01039 0.0036461 0)
(1.0046 0.00184883 0)
(1.0099 0.00610607 0)
(1.00783 0.00602946 0)
(1.00448 0.00458052 0)
(0.0868844 1.34798 0)
(0.0786546 1.32162 0)
(0.117559 1.38367 0)
(0.126689 1.39898 0)
(0.145586 2.60735 0)
(0.186672 2.67192 -4.70301e-19)
(0.0991529 2.66485 0)
(0.087997 2.66666 2.45167e-19)
(0.0399673 2.6842 -2.42368e-19)
(0.0270845 1.30742 0)
(-0.00280548 1.23572 0)
(0.0252086 1.32409 0)
(0.0429262 1.27238 0)
(-0.00909907 1.99 -5.40312e-20)
(-0.0286275 2.60408 6.04223e-20)
(-0.0157467 2.66781 9.4957e-20)
(-0.0223434 2.6769 0)
(-0.0339215 2.60845 -1.7195e-19)
(-0.0336609 2.60101 -1.06295e-19)
(0.000520977 1.99106 4.14397e-20)
(-0.0218599 2.41336 -8.10184e-20)
(-0.0223936 2.42959 -1.07714e-19)
(1.01217 0.0350546 1.3225e-18)
(1.00828 0.0168557 -1.63941e-18)
(1.00482 0.0413801 -1.32959e-18)
(0.983173 0.0220305 1.68871e-18)
(1.06254 0.00691551 0)
(1.04787 -0.00909669 0)
(1.09078 0.0314761 0)
(1.07201 0.0107544 0)
(1.06952 -0.00110891 0)
(1.13381 0.0723752 0)
(1.10614 0.0384399 0)
(1.1083 0.026032 0)
(-0.189083 2.51437 -1.83436e-21)
(-0.0955218 2.30536 0)
(-0.190808 2.43821 0)
(-0.058065 2.57868 4.62075e-20)
(-0.0408425 2.58961 -2.02916e-21)
(0.0697377 1.79201 -3.65395e-20)
(0.0534979 1.66142 3.69629e-20)
(0.0679802 1.40336 0)
(0.0628422 1.40083 0)
(0.0725272 1.38431 0)
(0.0367556 1.21874 0)
(0.0113182 1.07455 0)
(0.376454 1.47955 1.80442e-19)
(0.414317 1.48614 1.14522e-19)
(0.596114 2.45251 -2.4824e-19)
(0.40396 2.54688 7.34963e-19)
(0.355299 2.07316 8.68065e-20)
(1.02089 -0.00826869 0)
(1.01542 -0.00982688 0)
(1.01486 -0.0155757 0)
(1.00746 -0.00123032 0)
(1.0049 -0.000974058 0)
(1.00776 -0.00477532 0)
(1.00922 -0.00378743 0)
(1.01413 -0.00456163 0)
(1.02152 0.015922 1.27741e-18)
(1.01817 0.0158 -1.63873e-18)
(1.02202 0.0178636 -1.2865e-18)
(1.01977 0.0165358 1.61331e-18)
(0.7642 1.30965 0)
(0.69842 1.36402 1.82884e-19)
(0.872496 1.2076 4.1024e-20)
(0.915132 1.16201 -5.4583e-20)
(1.15652 2.60801 3.84657e-19)
(0.812724 0.096358 6.47508e-19)
(1.15191 0.0955712 0)
(1.19429 0.181989 -5.81899e-19)
(1.17867 0.146294 -2.45496e-20)
(1.0059 0.138476 0)
(0.138438 2.96236 6.02777e-19)
(0.115226 2.86828 -1.28425e-18)
(0.0265557 2.37043 8.68311e-19)
(0.0928624 0.00199483 -3.90988e-19)
(0.340631 3.4216 -1.79971e-19)
(0.195035 3.31413 0)
(0.237792 3.35643 2.34383e-19)
(0.247008 3.03548 -1.95668e-18)
(0.341484 3.19447 0)
(0.00738978 3.12063 5.11561e-20)
(0.0180277 3.12945 -5.97446e-19)
(0.0160162 3.12551 8.79357e-19)
(0.0360031 3.13956 0)
(0.0341743 3.1509 0)
(1.2151 2.60794 0)
(0.530107 0.841841 -5.67706e-19)
(1.03384 0.989504 4.20658e-20)
(0.971651 1.06256 0)
(0.817695 0.961709 -1.38873e-19)
(1.05698 0.877356 2.94917e-20)
(0.3691 0.409969 -1.00667e-18)
(0.700739 0.327745 -2.29124e-20)
(0.67677 0.247045 4.6336e-19)
(0.591724 0.387299 3.41916e-20)
(0.509585 0.363901 -1.37663e-18)
(0.671112 0.341507 0)
(0.702561 0.426672 7.86317e-19)
(0.709502 0.425754 0)
(0.629162 0.370143 0)
(0.605428 0.297161 0)
(0.789344 0.616759 4.72055e-19)
(1.21072 0.278597 -6.14632e-19)
(1.20548 0.417149 0)
(1.21701 0.362395 0)
(0.756362 0.19255 6.9139e-19)
(0.835445 0.536394 -4.30438e-19)
(0.740404 0.512596 7.62405e-19)
(0.937601 0.421638 -8.48264e-19)
(1.01986 0.0145754 8.79045e-19)
(1.01792 0.0141324 -8.83458e-19)
(1.01597 0.0155679 0)
(1.03567 -0.00621783 0)
(1.02947 -0.00872691 -8.29895e-19)
(1.02741 -0.0122807 8.21807e-19)
(1.0251 0.00957711 0)
(1.02378 0.0130745 0)
(1.0114 0.00401806 0)
(1.01431 0.00892351 0)
(1.01507 0.00390178 0)
(1.01418 0.00273405 0)
(0.0605273 1.33242 0)
(0.0626931 1.29387 0)
(0.148069 1.3496 -4.86562e-20)
(0.263838 1.46252 5.75677e-20)
(0.153983 1.43281 1.16407e-19)
(0.184508 1.44184 -1.92539e-19)
(0.160424 1.37585 0)
(0.133043 1.58799 -1.27416e-19)
(0.114357 1.55807 0)
(0.354102 2.02727 -1.26173e-19)
(0.349283 2.36039 6.80646e-19)
(0.183869 1.44034 1.11099e-19)
(0.260529 1.37247 -8.86397e-22)
(0.197051 1.35667 7.17958e-22)
(0.271468 1.3128 -1.54323e-19)
(0.240885 1.5733 0)
(0.261284 1.6152 1.52411e-19)
(0.0294627 2.27738 -5.50426e-20)
(0.0375734 2.67629 0)
(0.0621898 2.41436 1.93387e-19)
(0.0550411 2.43579 0)
(0.0693966 2.67983 -2.71248e-19)
(0.0500708 2.70542 0)
(0.0199996 1.41202 -3.56169e-20)
(0.0267361 1.46225 0)
(0.0304597 1.37881 0)
(0.0172292 1.38496 4.06578e-20)
(-0.00517043 2.65676 -2.1267e-20)
(0.0256909 2.70189 2.81647e-19)
(0.00856312 2.72511 1.97e-21)
(-0.00749774 1.84167 5.39596e-20)
(-0.0182264 1.67145 2.43469e-20)
(0.027049 1.29643 0)
(0.0287362 1.17269 0)
(0.0432269 1.56682 5.83957e-20)
(0.0272837 1.44419 5.31823e-20)
(0.0314289 1.50939 -6.66299e-20)
(0.0358915 1.58981 0)
(-0.0584146 2.31678 -7.61405e-20)
(-0.0744815 2.54637 3.20745e-20)
(-0.0230492 2.46232 -2.17851e-20)
(-0.0222286 1.85105 -6.53689e-20)
(-0.0423477 2.49296 -2.6224e-20)
(-0.0272039 2.44106 1.18547e-19)
(1.02014 0.0204661 -8.74192e-19)
(1.01653 0.0256448 8.76558e-19)
(1.01524 0.0162102 0)
(1.01443 0.0648059 1.22523e-18)
(0.993958 0.0556111 -1.3753e-18)
(0.955876 0.0433075 1.53657e-18)
(1.01673 0.101302 -1.64592e-19)
(1.04185 -0.00629584 0)
(1.04989 -0.00225726 7.94742e-19)
(1.03811 -0.0102976 -7.9573e-19)
(1.06995 0.0395961 -4.74878e-20)
(1.06342 0.0216299 4.09063e-19)
(1.06319 0.0509929 0)
(1.05289 0.045317 -1.46571e-19)
(1.03278 0.0391269 0)
(1.02631 0.0353854 0)
(1.02773 0.0127144 0)
(1.02446 0.015488 0)
(1.03899 0.0299987 3.01596e-19)
(1.03928 0.0252933 -6.64622e-19)
(1.05034 0.0322088 -3.20812e-19)
(1.04686 0.0326233 -3.52409e-19)
(1.06747 0.0581711 6.92461e-19)
(1.09262 0.0454987 0)
(1.09992 0.0879249 0)
(-0.0712172 2.32908 1.34018e-21)
(-0.0474547 2.23998 1.40141e-21)
(-0.0140589 2.19521 0)
(-0.0892274 2.48786 -1.32433e-21)
(-0.13246 2.49053 3.65157e-22)
(-0.119544 2.49512 -1.51747e-20)
(-0.0348328 2.61308 9.22773e-20)
(-0.0559067 2.54818 -7.56671e-21)
(-0.0353703 2.51238 2.89844e-20)
(-0.0357671 2.6011 -4.80493e-20)
(-0.0365082 2.60538 5.9544e-20)
(0.113398 1.60195 3.56095e-21)
(0.0480026 1.78756 1.41792e-20)
(0.366219 1.41933 -6.62219e-20)
(0.364153 1.36171 8.70091e-20)
(0.645651 1.40943 -1.76897e-19)
(0.512762 1.47382 -1.10716e-19)
(0.564553 1.44724 0)
(0.591599 2.42793 2.22149e-19)
(0.658456 2.41934 3.51341e-19)
(0.410732 2.52281 8.21106e-20)
(0.40547 2.55226 -6.84814e-19)
(0.514643 2.49865 6.51962e-19)
(0.550934 2.46617 0)
(0.488614 2.52099 -5.89468e-19)
(0.2486 2.59754 1.25209e-18)
(0.353554 2.5718 -8.41224e-20)
(0.284739 2.65884 -1.7027e-18)
(0.940917 2.3798 7.81269e-19)
(0.833591 2.38513 0)
(1.01092 0.000381678 2.86066e-20)
(1.01524 -0.00557334 -2.32504e-20)
(1.01766 -0.00366971 -4.24889e-19)
(1.01495 -0.00106962 4.26944e-19)
(1.0123 0.000976346 0)
(0.634338 1.27919 0)
(0.653239 1.17387 0)
(0.754397 1.08112 0)
(0.644311 1.14098 0)
(1.18556 2.6226 5.95767e-20)
(1.07475 2.36675 0)
(0.838578 2.18649 4.47068e-21)
(0.827216 2.45138 0)
(0.92255 2.54057 -4.76872e-19)
(0.958353 2.49599 3.1754e-19)
(0.821988 0.147871 0)
(0.792766 0.128415 1.77462e-19)
(0.924993 0.129867 1.02875e-18)
(0.842819 0.12471 -3.86721e-19)
(0.822232 0.067079 -1.18097e-18)
(1.07217 0.221719 -1.02424e-18)
(0.992439 0.278934 -1.54445e-20)
(0.917048 0.274207 9.61892e-19)
(1.00433 0.20685 8.06385e-19)
(0.951394 0.17095 -1.37221e-18)
(0.918494 0.172965 1.71446e-19)
(0.949305 0.234765 -3.69595e-19)
(0.928316 0.196432 0)
(0.996775 0.170761 6.77628e-19)
(1.04604 0.172515 0)
(1.0441 0.19915 0)
(1.09942 0.106191 3.25776e-19)
(1.07251 0.161627 -1.36298e-20)
(1.06601 0.224642 -1.77278e-19)
(1.09595 0.191045 0)
(1.02284 0.0436435 6.78875e-19)
(1.04148 0.0548029 8.47572e-19)
(1.03288 0.0413507 -6.73365e-19)
(1.04178 0.0598798 -5.67905e-19)
(1.01643 0.0668796 -8.62452e-19)
(0.991138 0.144974 0)
(1.00037 0.097404 0)
(0.971732 0.0629477 -5.46698e-19)
(0.924075 0.082957 2.14938e-19)
(1.03877 0.0958537 7.8634e-19)
(1.06873 0.108555 -9.37761e-19)
(1.07361 0.14131 8.36766e-19)
(1.03279 0.13308 0)
(1.07383 0.0977955 0)
(1.05776 0.0812771 -3.8065e-19)
(1.04563 0.0887402 -6.44684e-19)
(0.580121 1.07955 1.66214e-19)
(0.611573 1.41304 -6.89775e-20)
(1.15614 2.74107 -2.63373e-19)
(1.22285 3.08224 8.75404e-21)
(1.2485 2.72226 -2.10182e-19)
(1.27861 2.70629 4.24273e-21)
(1.20665 2.34567 -1.00663e-20)
(1.21003 2.9859 -1.23218e-19)
(1.22947 2.95083 2.82027e-19)
(1.21387 3.23598 -1.31571e-19)
(1.37511 2.96744 1.81978e-19)
(1.3657 2.88563 0)
(0.536872 0.849285 -5.37331e-20)
(0.138912 1.26035 5.99846e-19)
(0.529364 0.466965 6.50308e-19)
(0.364098 0.217932 7.18758e-19)
(0.530421 0.394796 7.76715e-19)
(0.541039 0.483734 -1.27865e-18)
(0.5442 0.490473 1.04466e-18)
(0.497558 0.415096 -3.91953e-19)
(0.424754 0.352037 8.90302e-19)
(0.759843 0.250016 -3.95954e-19)
(0.721436 0.286707 0)
(0.714402 0.217156 9.86712e-21)
(0.723425 0.513949 4.14148e-19)
(0.694736 0.48204 -1.5092e-18)
(0.613517 0.482235 1.65147e-20)
(0.624854 0.462497 0)
(0.666037 0.736378 4.34673e-19)
(0.815621 0.771094 4.55183e-19)
(0.743051 0.853973 -5.31213e-19)
(0.857308 0.80304 -1.8471e-19)
(0.89101 0.846509 -4.88078e-20)
(0.899419 0.848132 4.99652e-20)
(0.829252 0.642523 -7.83706e-19)
(0.906641 0.698698 1.71579e-19)
(0.963923 0.713003 0)
(0.954393 0.688915 -2.38626e-19)
(1.01743 0.319466 2.47578e-19)
(1.12682 0.290263 3.54185e-19)
(1.05746 0.259701 4.18658e-19)
(1.00069 0.354077 -4.94885e-19)
(1.03949 0.420851 0)
(1.09189 0.406686 0)
(0.904769 0.349538 4.98551e-21)
(0.840158 0.282948 0)
(0.86651 0.275962 4.50989e-19)
(0.900993 0.28061 -5.95287e-21)
(0.929343 0.424782 2.36637e-18)
(0.885079 0.4858 6.11307e-19)
(0.890818 0.450173 -6.44181e-19)
(0.81671 0.434666 6.89849e-19)
(0.79923 0.430754 4.1174e-19)
(0.769998 0.418737 -4.04796e-19)
(1.02708 -0.000585336 7.08268e-19)
(1.01999 -0.000306626 0)
(1.0185 0.00062837 4.61509e-19)
(1.02164 -0.00194641 -1.04576e-18)
(1.02229 0.00398177 5.0786e-19)
(1.02046 0.0109081 -1.06355e-18)
(1.02141 0.0103132 0)
(1.02075 0.0106095 -2.2147e-19)
(1.016 0.00750865 5.5555e-19)
(1.01678 0.0102603 -2.77156e-19)
(1.01748 0.00959205 2.04184e-19)
(0.0313809 1.31096 0)
(0.0401318 1.34802 0)
(0.0459638 1.31209 0)
(0.0508731 1.2752 0)
(0.0695459 1.36668 7.56517e-20)
(0.0766641 1.33978 -1.60085e-20)
(0.11233 1.49661 -4.5302e-20)
(0.0883828 1.33827 2.53032e-20)
(0.0323701 1.44585 -7.96521e-20)
(0.0362962 1.43626 6.17796e-20)
(0.0633705 1.35012 -6.97171e-21)
(0.0573096 1.35179 -3.79336e-20)
(0.0527057 1.33214 -5.79481e-21)
(0.0413813 1.35185 -8.85818e-21)
(0.104751 2.38659 -2.13962e-19)
(0.0944616 2.43149 0)
(0.171438 2.06293 1.31796e-19)
(0.106098 1.7103 6.59781e-20)
(0.23187 2.0537 -1.06877e-19)
(0.208996 2.45026 0)
(0.267984 2.40161 -6.62259e-19)
(0.306622 2.39964 4.69867e-19)
(0.233305 2.01194 -2.98426e-19)
(0.153731 2.17878 1.91965e-19)
(0.14545 2.2982 0)
(0.010407 1.88224 -8.98071e-20)
(-0.0142305 2.40992 -1.5923e-19)
(-0.00301982 2.16487 0)
(0.00949672 2.4692 -1.49797e-20)
(0.0205691 2.31707 5.62592e-20)
(0.0144675 1.39402 6.21234e-21)
(0.0167694 1.3825 -8.82513e-20)
(0.0253539 1.39737 1.81905e-20)
(0.0101612 1.39515 3.64098e-20)
(0.0198263 1.41573 0)
(0.0292868 1.37795 0)
(0.0723369 1.23322 2.70586e-20)
(0.0872198 1.37704 -1.14377e-20)
(0.0500609 1.37287 0)
(0.0426206 1.26975 1.72173e-20)
(0.0216982 1.10341 -3.37172e-20)
(1.04004 0.0109034 0)
(1.046 0.00710654 -7.45528e-20)
(1.03845 0.0200193 -5.35809e-19)
(1.04755 0.0190903 0)
(1.05143 0.0192401 0)
(1.03647 0.0107266 -6.53575e-21)
(1.03112 0.0105604 8.6014e-19)
(1.03199 0.0155241 1.04295e-18)
(1.02595 0.0195199 0)
(1.02332 0.019971 0)
(1.03513 0.0234976 5.34962e-19)
(1.02638 0.0249289 0)
(1.02483 0.0249002 0)
(-0.0414273 2.02528 0)
(0.0343549 1.77926 6.03789e-21)
(0.0123014 1.84661 9.5112e-21)
(0.0791031 1.3922 0)
(0.047804 1.62872 2.45709e-20)
(0.0806883 1.51833 -6.80096e-21)
(0.0909651 1.44895 0)
(0.39661 1.68097 0)
(0.365595 1.2903 -1.58941e-19)
(0.30725 1.34026 0)
(0.422046 1.29086 1.22629e-19)
(0.465691 1.44721 0)
(0.446639 1.39166 -2.83413e-20)
(1.03421 2.68772 -1.67715e-20)
(0.963046 2.40992 -9.81974e-19)
(0.91207 2.18686 1.13844e-18)
(0.846784 2.37685 2.56385e-19)
(0.846312 2.50009 0)
(0.916576 2.49494 0)
(0.924268 2.37341 0)
(0.901866 2.36037 -9.97106e-19)
(0.69235 2.47054 -4.39159e-19)
(0.802189 2.46129 -1.07107e-19)
(0.81335 2.43357 8.17693e-20)
(0.693424 2.39406 0)
(0.797127 2.38952 0)
(0.756029 2.40228 -3.82451e-19)
(0.769667 2.49139 0)
(0.612112 1.09734 0)
(0.481896 0.928973 -5.55004e-19)
(0.550082 0.964535 -3.52504e-20)
(0.520569 1.057 0)
(0.520004 1.00631 8.33438e-19)
(0.766973 0.880379 -1.52959e-19)
(0.778411 1.01198 0)
(0.751599 0.970064 2.28681e-19)
(0.639796 1.03482 0)
(0.644376 0.944466 0)
(1.16429 2.76189 -2.67122e-19)
(1.1418 2.82567 -1.23813e-19)
(0.931571 2.34619 1.45758e-19)
(0.899392 2.32513 -9.77682e-20)
(1.12923 2.73464 0)
(1.08279 2.7047 1.17681e-19)
(1.08899 2.4867 -3.47975e-19)
(0.984182 2.23363 -3.04479e-20)
(0.500455 1.36013 0)
(0.512821 1.07773 -1.46647e-19)
(0.562867 1.16233 0)
(0.860794 0.212218 0)
(0.800187 0.166744 0)
(0.752695 0.142261 0)
(0.855336 0.219733 -7.09877e-19)
(0.7768 0.212386 4.15457e-19)
(0.936911 0.0696103 -4.43987e-19)
(0.950302 0.114116 0)
(0.928464 0.121797 1.91027e-19)
(0.870404 0.0973086 7.65344e-19)
(0.848999 0.0575937 -4.78865e-19)
(1.16131 3.36161 -6.97307e-19)
(1.20883 3.28088 0)
(1.15988 3.38965 -1.44533e-18)
(0.647663 3.55052 1.22644e-18)
(0.872329 3.11809 4.50235e-20)
(0.510938 0.85441 6.3959e-19)
(0.428812 0.84741 0)
(0.339353 0.501099 -1.61377e-19)
(0.444897 0.68549 9.20623e-19)
(0.532201 0.4734 -2.24267e-19)
(0.506861 0.525032 2.53567e-19)
(0.655941 0.53752 5.56943e-19)
(0.68336 0.554109 0)
(0.635673 0.620482 0)
(0.593705 0.557531 0)
(0.966338 0.597309 1.25673e-19)
(0.887033 0.535197 -5.94828e-19)
(0.910643 0.567899 4.61697e-19)
(0.946145 0.503101 -4.62245e-19)
(1.04926 0.479322 0)
(1.05881 0.567302 -1.20184e-19)
(0.839949 0.386032 -9.40464e-19)
(0.843965 0.371025 -1.16567e-18)
(0.791677 0.385143 7.33518e-19)
(0.788732 0.352889 -7.48721e-19)
(0.839375 0.307552 -5.85778e-19)
(0.793522 0.306675 7.19779e-19)
(1.02678 0.00537396 -5.41269e-19)
(1.0265 0.00561054 1.10274e-18)
(1.02911 -0.000628359 6.87278e-19)
(1.0333 0.000511883 -8.27542e-19)
(1.03285 0.00804007 0)
(1.03003 0.00868355 -1.34626e-18)
(0.0571075 1.64326 3.69715e-20)
(0.0401328 1.56761 0)
(0.0845638 1.69598 2.33893e-19)
(0.0943911 1.67612 -2.09283e-19)
(0.0848063 1.51265 8.50103e-20)
(0.0795549 1.495 0)
(-0.00147548 1.70307 0)
(0.000183888 1.52667 -1.76848e-20)
(0.0340965 1.46456 1.59352e-20)
(0.0290947 1.6103 1.35835e-20)
(0.00123555 1.89995 -3.54874e-20)
(-0.0305925 1.93559 2.12436e-20)
(0.499131 1.37488 -3.54771e-19)
(0.494559 1.38024 3.88229e-19)
(0.445432 1.28803 -9.10794e-20)
(0.438954 1.29481 1.21153e-20)
(0.626152 1.29173 0)
(0.54274 1.37891 4.05798e-20)
(0.560636 1.38741 -3.95166e-20)
(0.454027 1.27551 8.77157e-20)
(0.511411 1.22966 0)
(0.565135 1.1982 0)
(0.659386 2.43033 6.45184e-19)
(0.670717 2.46671 1.35436e-18)
(0.717198 2.47975 -9.32218e-19)
(0.617079 2.45804 -2.16633e-19)
(0.563871 2.54859 3.06385e-19)
(0.512594 2.52179 -8.09986e-19)
(0.975224 2.37768 -6.37646e-19)
(1.01211 2.39247 0)
(0.921156 2.16572 -7.34302e-19)
(1.05273 2.68408 0)
(1.05491 2.67072 0)
(0.61244 2.2785 -1.42792e-19)
(1.04161 3.16463 1.06778e-19)
(0.912779 3.03505 -1.04474e-20)
(0.28272 0.919489 0)
(0.323517 0.781461 -3.35553e-19)
(0.479939 0.735079 -3.42895e-19)
(0.391524 2.02636 0)
(0.468213 2.78712 -3.13437e-20)
(0.424433 2.55124 0)
(0.678625 0.683076 -9.22959e-19)
(0.760755 0.681728 1.267e-18)
(0.780499 0.624136 -1.25572e-18)
(0.660199 0.645297 -1.19225e-19)
(0.716656 0.599005 -4.95812e-19)
(1.00355 2.7683 -8.11893e-20)
(1.04063 2.82448 -2.09707e-19)
(0.64063 2.15462 7.11508e-19)
(0.596106 1.72073 -5.04942e-19)
(0.69923 1.9103 -4.59093e-19)
(0.989148 2.45113 -1.19682e-19)
(0.994133 2.44481 3.46016e-19)
(0.660583 1.85059 3.14039e-20)
(0.450567 1.33814 1.6904e-19)
)
;

boundaryField
{
    wall-4
    {
        type            noSlip;
    }
    velocity-inlet-5
    {
        type            fixedValue;
        value           uniform (1 0 0);
    }
    velocity-inlet-6
    {
        type            fixedValue;
        value           uniform (0 3 0);
    }
    pressure-outlet-7
    {
        type            zeroGradient;
    }
    wall-8
    {
        type            noSlip;
    }
    frontAndBackPlanes
    {
        type            empty;
    }
}


// ************************************************************************* //
