/*--------------------------------*- C++ -*----------------------------------*\
  =========                 |
  \\      /  F ield         | OpenFOAM: The Open Source CFD Toolbox
   \\    /   O peration     | Website:  https://openfoam.org
    \\  /    A nd           | Version:  9
     \\/     M anipulation  |
\*---------------------------------------------------------------------------*/
FoamFile
{
    format      ascii;
    class       volScalarField;
    location    "47";
    object      p;
}
// * * * * * * * * * * * * * * * * * * * * * * * * * * * * * * * * * * * * * //

dimensions      [0 2 -2 0 0 0 0];

internalField   nonuniform List<scalar> 
2200
(
0.776852
0.755351
0.739443
0.723773
0.709158
0.696631
0.686267
0.678153
0.672437
0.669461
0.669905
0.673692
0.680012
0.688557
0.69923
0.711984
0.726762
0.742654
0.758681
0.780184
0.709293
0.706034
0.703107
0.698984
0.693517
0.687038
0.680411
0.674445
0.669925
0.667506
0.667968
0.671241
0.676388
0.68282
0.689784
0.696523
0.702177
0.706293
0.709165
0.712514
0.669379
0.669597
0.671654
0.672998
0.673385
0.672526
0.670538
0.667849
0.665285
0.663771
0.664294
0.666709
0.669959
0.67316
0.675486
0.67649
0.676207
0.675175
0.673488
0.673244
0.64691
0.648359
0.650953
0.653401
0.655832
0.657841
0.658984
0.659199
0.658805
0.658485
0.659079
0.660418
0.661598
0.661965
0.661265
0.659585
0.657421
0.655202
0.652592
0.651184
0.632588
0.634561
0.637373
0.640199
0.64305
0.645867
0.648308
0.650146
0.651347
0.652118
0.652806
0.653231
0.652952
0.651818
0.649933
0.647546
0.64499
0.642272
0.639486
0.637556
0.625264
0.626863
0.629061
0.631585
0.634247
0.636903
0.63948
0.641878
0.643866
0.645336
0.646143
0.646116
0.645238
0.643692
0.641758
0.639586
0.637241
0.634892
0.632791
0.631215
0.621878
0.622901
0.624168
0.626026
0.628156
0.630304
0.632474
0.634738
0.63692
0.638715
0.639687
0.639644
0.638821
0.637569
0.636148
0.634556
0.632839
0.63125
0.630125
0.629109
0.619254
0.619921
0.62055
0.621849
0.623459
0.625134
0.62686
0.628742
0.630744
0.632635
0.633804
0.634036
0.633667
0.633011
0.632203
0.631231
0.630144
0.6292
0.628746
0.628069
0.61611
0.616558
0.616949
0.617931
0.619173
0.620535
0.622003
0.623629
0.625423
0.627309
0.628736
0.629449
0.629633
0.629518
0.629176
0.628658
0.628042
0.627477
0.627276
0.626813
0.612139
0.612438
0.612797
0.61366
0.614759
0.616008
0.617413
0.618978
0.620719
0.622655
0.624401
0.625606
0.626286
0.626577
0.626593
0.626385
0.626027
0.625662
0.625515
0.625194
0.607487
0.607686
0.608054
0.608882
0.609977
0.611282
0.612785
0.614471
0.61636
0.618491
0.620629
0.622305
0.62339
0.623986
0.624211
0.624226
0.624047
0.623818
0.623688
0.623456
0.602421
0.602566
0.602939
0.603745
0.604878
0.606292
0.607986
0.609949
0.612179
0.61472
0.617354
0.619498
0.620914
0.621745
0.622145
0.622285
0.622263
0.622161
0.622064
0.621884
0.596976
0.597085
0.597461
0.598277
0.599494
0.601082
0.603022
0.605331
0.608052
0.611197
0.614413
0.616984
0.618719
0.619806
0.620447
0.620758
0.620918
0.620947
0.62089
0.620736
0.591112
0.591179
0.591558
0.592408
0.593749
0.595522
0.59773
0.600422
0.603663
0.607483
0.611435
0.614621
0.61679
0.61825
0.619215
0.6198
0.620159
0.620308
0.620291
0.620149
0.584772
0.584809
0.585222
0.58612
0.587572
0.589525
0.592006
0.595102
0.59895
0.603571
0.608373
0.612352
0.615199
0.617162
0.618536
0.619466
0.620035
0.620318
0.620346
0.620213
0.577924
0.577885
0.578296
0.579275
0.580942
0.583129
0.585922
0.589502
0.594071
0.599655
0.60555
0.610434
0.614033
0.61664
0.618534
0.619851
0.620691
0.621125
0.621202
0.62107
0.570213
0.57019
0.570637
0.571758
0.573636
0.576143
0.579397
0.583589
0.588951
0.595625
0.602799
0.608888
0.613464
0.616854
0.619314
0.621042
0.622171
0.622761
0.622899
0.622761
0.561527
0.56155
0.561955
0.563137
0.565368
0.568333
0.572196
0.577168
0.583539
0.591546
0.600309
0.607911
0.613629
0.617877
0.620999
0.62319
0.62463
0.62538
0.625571
0.625424
0.551459
0.55143
0.551974
0.553403
0.555943
0.559458
0.564161
0.570255
0.57805
0.587807
0.598457
0.607659
0.614682
0.619843
0.62363
0.626363
0.628166
0.629085
0.629326
0.629166
0.539505
0.53943
0.540098
0.541934
0.545059
0.54938
0.555203
0.562804
0.572558
0.58461
0.597453
0.608348
0.616602
0.622828
0.627443
0.630747
0.632922
0.634013
0.634304
0.634131
0.525363
0.525239
0.525995
0.528219
0.532129
0.537561
0.544854
0.554345
0.566444
0.581199
0.596642
0.609655
0.619488
0.626935
0.632459
0.636468
0.639073
0.640344
0.640684
0.640486
0.50816
0.508062
0.509038
0.51175
0.516571
0.52338
0.532533
0.544345
0.559217
0.577143
0.595789
0.611436
0.623227
0.632114
0.638785
0.643577
0.646675
0.648154
0.648545
0.648311
0.48684
0.486676
0.487956
0.49145
0.497642
0.506434
0.518142
0.533079
0.551461
0.573146
0.595404
0.61395
0.627949
0.63851
0.646413
0.652187
0.655856
0.657533
0.65795
0.657662
0.459137
0.459143
0.461186
0.466079
0.474524
0.486407
0.501915
0.521113
0.543981
0.570168
0.596383
0.617925
0.634087
0.646313
0.655559
0.662287
0.666475
0.66832
0.668727
0.668381
0.422115
0.422352
0.425868
0.433678
0.446141
0.462984
0.483781
0.508434
0.536711
0.568061
0.598586
0.623275
0.641726
0.655666
0.666214
0.673833
0.678427
0.680347
0.680702
0.680296
0.372557
0.372962
0.379918
0.392942
0.411791
0.435747
0.463543
0.49482
0.529308
0.566433
0.601687
0.629702
0.650498
0.666258
0.678188
0.686644
0.691466
0.693257
0.693426
0.693051
0.306831
0.309633
0.324727
0.345962
0.373628
0.406343
0.442163
0.480833
0.522211
0.565721
0.606246
0.638278
0.662245
0.680438
0.694171
0.703961
0.709246
0.710919
0.71091
0.710733
0.231906
0.241385
0.266483
0.297485
0.335202
0.376921
0.420867
0.467207
0.515851
0.566175
0.6129
0.649782
0.677316
0.698372
0.714495
0.725737
0.731451
0.732812
0.732736
0.732747
0.164852
0.179679
0.211112
0.250878
0.298066
0.348635
0.400627
0.454773
0.510833
0.568139
0.620518
0.661704
0.692524
0.71606
0.733811
0.746242
0.752418
0.753887
0.754247
0.754245
0.11366
0.126908
0.163735
0.209697
0.26424
0.322283
0.381682
0.443109
0.506005
0.569625
0.627295
0.672737
0.706621
0.732412
0.751948
0.765601
0.772229
0.774309
0.774526
0.774591
0.0715019
0.0840167
0.124475
0.174362
0.234351
0.298336
0.364136
0.431976
0.501135
0.570862
0.634301
0.6833
0.719663
0.74752
0.768384
0.782822
0.790123
0.792583
0.792821
0.792921
0.0351974
0.0479921
0.0912475
0.143976
0.208177
0.276869
0.348053
0.421552
0.496556
0.572099
0.640022
0.692462
0.731446
0.760695
0.782763
0.797785
0.80539
0.808128
0.808456
0.808557
0.0034977
0.0164641
0.0618038
0.117115
0.18491
0.25756
0.333357
0.411771
0.491744
0.572143
0.64442
0.700524
0.741222
0.771917
0.794572
0.810067
0.818191
0.821115
0.821589
0.821665
-0.0249537
-0.0118592
0.0350383
0.0927783
0.163771
0.239845
0.319584
0.40218
0.486588
0.571908
0.648907
0.707301
0.749776
0.78132
0.80448
0.820368
0.828686
0.831915
0.832468
0.832527
-0.051021
-0.0378763
0.01026
0.0703612
0.144116
0.22315
0.306292
0.392613
0.481275
0.571016
0.651414
0.712628
0.756945
0.789383
0.813012
0.829011
0.837809
0.841126
0.841767
0.841778
-0.0754877
-0.062068
-0.0129819
0.0493154
0.125467
0.207116
0.293304
0.383002
0.475412
0.568973
0.653374
0.71784
0.763316
0.796583
0.820673
0.836774
0.845549
0.848977
0.849573
0.849467
-0.0985265
-0.0848969
-0.0349518
0.0292569
0.107484
0.191508
0.28044
0.373089
0.468761
0.566226
0.654751
0.721709
0.769109
0.803408
0.827643
0.843668
0.852349
0.855711
0.856357
0.8562
-0.120312
-0.106615
-0.0559098
0.00993852
0.0899933
0.176148
0.267476
0.362743
0.461499
0.56271
0.654958
0.725206
0.774864
0.809737
0.834204
0.850087
0.858496
0.861817
0.862394
0.86231
-0.141186
-0.127346
-0.0760338
-0.00880001
0.0728278
0.160874
0.254343
0.352029
0.453671
0.558306
0.654554
0.728453
0.780183
0.816272
0.840715
0.85622
0.864476
0.867526
0.868088
0.867986
-0.161558
-0.147262
-0.095484
-0.0270613
0.0559235
0.145658
0.241081
0.340996
0.445287
0.553176
0.653401
0.730907
0.785328
0.822916
0.847599
0.862663
0.870248
0.873014
0.873419
0.873324
-0.181567
-0.166552
-0.114348
-0.0448741
0.0392769
0.130507
0.227694
0.329625
0.436305
0.547262
0.65133
0.732638
0.790401
0.830048
0.855248
0.869545
0.876274
0.878186
0.878441
0.878321
-0.201121
-0.18535
-0.132701
-0.062252
0.0229208
0.115451
0.214176
0.317897
0.426744
0.54052
0.648217
0.733566
0.795158
0.83762
0.86404
0.877543
0.882571
0.883058
0.882954
0.882847
-0.220097
-0.203713
-0.150559
-0.0791898
0.00687541
0.100511
0.200547
0.305864
0.416717
0.533004
0.644014
0.733594
0.799441
0.845674
0.8744
0.887401
0.890194
0.887642
0.887071
0.887894
-0.238437
-0.2216
-0.16792
-0.0956858
-0.00882967
0.0857411
0.18689
0.293626
0.40629
0.524703
0.638479
0.732262
0.802894
0.853789
0.886412
0.900408
0.900857
0.894207
0.889019
0.887487
-0.256129
-0.23894
-0.184731
-0.111705
-0.0241506
0.0712138
0.173302
0.281242
0.395418
0.515639
0.631882
0.729527
0.804907
0.861702
0.89986
0.917477
0.919339
0.907177
0.90572
0.909987
-0.273168
-0.255646
-0.200933
-0.127202
-0.0390264
0.0570086
0.159863
0.268759
0.384145
0.505946
0.624255
0.724893
0.805215
0.86825
0.913712
0.938281
0.944378
0.915971
0.87491
0.83837
-0.289505
-0.271724
-0.21654
-0.142225
-0.0535495
0.0429979
0.146406
0.255988
0.372277
0.49537
0.615352
0.718313
0.80275
0.872357
0.926822
0.961788
0.982815
0.966968
0.98381
1.04115
-0.305088
-0.287201
-0.23164
-0.156913
-0.0678991
0.0289526
0.132654
0.242612
0.359454
0.483426
0.60446
0.708873
0.796353
0.871149
0.930844
0.970039
0.984451
0.965299
0.925241
0.939197
-0.319898
-0.302065
-0.246183
-0.171204
-0.0820006
0.0149649
0.11874
0.228807
0.345842
0.470121
0.59159
0.696617
0.78432
0.860197
0.920162
0.958265
0.94885
0.896872
0.833715
0.821695
-0.333919
-0.3163
-0.260177
-0.185111
-0.0958553
0.00104582
0.104698
0.214619
0.331453
0.455481
0.576728
0.680904
0.766463
0.837506
0.89144
0.902281
0.868817
0.793419
0.719609
0.69854
-0.347193
-0.329914
-0.273637
-0.19865
-0.109484
-0.0128123
0.0905378
0.200058
0.3163
0.439505
0.559769
0.661774
0.741685
0.800794
0.830165
0.818768
0.763092
0.662441
0.575703
0.55431
-0.360177
-0.343303
-0.286967
-0.212201
-0.12324
-0.0269174
0.075988
0.184888
0.30021
0.422088
0.540409
0.638572
0.711126
0.754546
0.74995
0.71617
0.60724
0.485777
0.379029
0.352585
-0.373771
-0.357283
-0.300863
-0.226383
-0.137702
-0.0417632
0.0606208
0.16876
0.282928
0.402967
0.518321
0.611178
0.676429
0.69593
0.662589
0.576326
0.421439
0.269629
0.141096
0.11408
-0.388494
-0.372236
-0.315657
-0.241445
-0.153052
-0.057485
0.0443397
0.151619
0.264442
0.382173
0.493578
0.580552
0.63489
0.626721
0.57432
0.425987
0.22692
0.0149461
-0.164661
-0.212523
-0.404461
-0.388285
-0.331393
-0.257395
-0.169274
-0.0740661
0.0271634
0.133498
0.244804
0.359799
0.466126
0.547643
0.587054
0.547579
0.460827
0.273563
0.0426458
-0.24581
-0.5671
-0.714215
-0.42174
-0.405481
-0.348206
-0.27434
-0.186423
-0.0915661
0.00903272
0.114333
0.223942
0.33586
0.436324
0.511662
0.533699
0.463864
0.328137
0.122699
-0.111471
-0.455517
-1.04315
-1.61559
-0.440417
-0.423968
-0.366146
-0.292318
-0.204521
-0.109981
-0.0100203
0.0942008
0.202027
0.31081
0.405397
0.472997
0.477003
0.390187
0.199693
-0.0343663
-0.237525
-0.472923
-1.03058
-2.55161
-0.460505
-0.443751
-0.385339
-0.311482
-0.223728
-0.129505
-0.030228
0.0728275
0.178723
0.284171
0.372918
0.431038
0.415676
0.332346
0.106266
-0.132352
-0.28072
-0.31856
-0.309525
-0.698716
-0.481944
-0.465102
-0.405927
-0.332099
-0.244444
-0.150638
-0.0522161
0.0494483
0.153106
0.25466
0.338007
0.385722
0.354848
0.283819
0.0568073
-0.146628
-0.257915
-0.26602
-0.212992
-0.253522
-0.504546
-0.487764
-0.427936
-0.354266
-0.266748
-0.173503
-0.076133
0.0239048
0.124983
0.222034
0.300726
0.338752
0.301135
0.231144
0.024617
-0.137152
-0.21952
-0.227123
-0.274948
-0.279537
-0.528351
-0.511647
-0.451234
-0.377941
-0.290629
-0.198116
-0.102017
-0.00386678
0.0943187
0.186743
0.260914
0.289458
0.254188
0.171184
-0.00319238
-0.127648
-0.198095
-0.17371
-0.194687
-0.19627
-0.553065
-0.536197
-0.475767
-0.403064
-0.315935
-0.224402
-0.129784
-0.0337376
0.0612594
0.149209
0.218793
0.237052
0.213543
0.103711
-0.038135
-0.122477
-0.162807
-0.208414
-0.183905
-0.192222
-0.578472
-0.561181
-0.501337
-0.4294
-0.342441
-0.252189
-0.159232
-0.0654923
0.0259329
0.109688
0.175056
0.183301
0.171132
0.0428269
-0.0751452
-0.140193
-0.119952
-0.179291
-0.15959
-0.164381
-0.603657
-0.586134
-0.52782
-0.456592
-0.369804
-0.28124
-0.190082
-0.0987744
-0.0113984
0.0685541
0.131235
0.13197
0.120389
-0.00922873
-0.103069
-0.155684
-0.142289
-0.159415
-0.164475
-0.162964
-0.628222
-0.610844
-0.554371
-0.483894
-0.397715
-0.311154
-0.221891
-0.133183
-0.0501973
0.0261171
0.0872501
0.0843065
0.0640468
-0.0532142
-0.11881
-0.150841
-0.185978
-0.160185
-0.16703
-0.161943
-0.651167
-0.634513
-0.579963
-0.510472
-0.425765
-0.341394
-0.25415
-0.168143
-0.0895608
-0.0172467
0.0432139
0.0398201
0.00932955
-0.0902117
-0.135852
-0.12709
-0.195222
-0.146421
-0.160218
-0.153154
-0.671805
-0.656256
-0.603581
-0.535391
-0.453523
-0.371117
-0.286113
-0.202991
-0.128486
-0.0610238
-0.00129708
-0.00214115
-0.0385784
-0.109277
-0.148929
-0.113366
-0.158863
-0.135917
-0.141006
-0.138496
-0.688604
-0.67467
-0.624533
-0.558173
-0.479739
-0.399364
-0.316998
-0.236937
-0.165941
-0.104351
-0.0459872
-0.0440233
-0.0768233
-0.112456
-0.142446
-0.125406
-0.135759
-0.135773
-0.133589
-0.13314
-0.70068
-0.688805
-0.641724
-0.577872
-0.503062
-0.425141
-0.345731
-0.268914
-0.200975
-0.145896
-0.0889514
-0.0847253
-0.115651
-0.108961
-0.116436
-0.134647
-0.124372
-0.140151
-0.136458
-0.137485
-0.706686
-0.697189
-0.654172
-0.593324
-0.521967
-0.447289
-0.371216
-0.297796
-0.232593
-0.183597
-0.128242
-0.123895
-0.165353
-0.129763
-0.0568955
-0.0891396
-0.0924492
-0.127505
-0.140388
-0.14446
-0.706436
-0.699046
-0.660144
-0.60294
-0.535471
-0.464481
-0.392041
-0.322072
-0.259983
-0.214873
-0.162658
-0.160639
-0.221893
-0.22193
-0.124584
-0.155925
-0.178522
-0.194781
-0.198896
-0.199621
-0.699001
-0.691744
-0.657988
-0.605565
-0.542452
-0.475552
-0.406921
-0.34005
-0.280419
-0.237346
-0.190698
-0.197726
-0.298083
-0.452426
-0.612818
-0.709991
-0.723252
-0.666132
-0.613627
-0.577443
-0.679785
-0.671736
-0.645254
-0.599635
-0.542002
-0.479583
-0.414707
-0.350146
-0.291052
-0.247832
-0.205792
-0.207789
-0.353447
-0.635548
-1.01764
-1.19451
-1.19481
-1.14937
-1.07422
-1.00753
-0.640551
-0.633034
-0.620719
-0.585565
-0.534229
-0.4763
-0.415034
-0.351262
-0.289428
-0.241074
-0.199052
-0.16771
-0.245318
-0.397348
-0.603286
-0.661681
-0.58997
-0.512635
-0.41569
-0.358732
-0.596462
-0.593018
-0.591006
-0.563934
-0.520421
-0.467151
-0.407919
-0.34332
-0.275227
-0.212635
-0.156026
-0.0589449
0.064653
0.276108
0.460006
0.642882
0.795178
0.890399
0.938022
0.986258
-0.570699
-0.571513
-0.563857
-0.544089
-0.506276
-0.455193
-0.395278
-0.328466
-0.251264
-0.165348
-0.0758956
0.0786426
0.322875
0.707917
1.08624
1.38944
1.59283
1.71036
1.76552
1.78154
-0.538955
-0.539974
-0.53431
-0.525972
-0.493089
-0.443511
-0.381258
-0.310665
-0.226253
-0.124374
-0.0137043
0.13326
0.399589
0.754584
1.10474
1.3967
1.60688
1.73006
1.78571
1.80281
-0.511884
-0.51086
-0.511013
-0.506951
-0.481167
-0.434288
-0.370185
-0.294704
-0.206968
-0.0999488
0.0149908
0.125105
0.36336
0.663781
0.957653
1.21216
1.40923
1.52833
1.58183
1.59706
-0.495413
-0.492933
-0.494212
-0.488529
-0.471743
-0.427701
-0.361833
-0.283428
-0.195887
-0.0934467
0.0154949
0.0912007
0.281831
0.533884
0.770451
0.973446
1.13647
1.23642
1.28048
1.29171
-0.48981
-0.487514
-0.487691
-0.486091
-0.473421
-0.423706
-0.35494
-0.275893
-0.191708
-0.100696
0.00131746
0.0582007
0.198476
0.405074
0.591472
0.744856
0.868563
0.94649
0.980746
0.989728
-0.496625
-0.496623
-0.498375
-0.504439
-0.486525
-0.423019
-0.349211
-0.269731
-0.189236
-0.111569
-0.0162484
0.0320349
0.126994
0.290321
0.43637
0.551136
0.641423
0.69997
0.725065
0.730238
-0.487764
-0.489717
-0.496108
-0.499347
-0.476444
-0.408834
-0.336545
-0.259197
-0.183387
-0.1186
-0.0314054
0.0135406
0.0731801
0.198157
0.310653
0.39566
0.461021
0.503228
0.520662
0.526656
-0.427496
-0.43043
-0.439475
-0.440484
-0.418058
-0.365773
-0.305007
-0.237776
-0.16997
-0.117089
-0.0415335
0.000323001
0.0380576
0.132975
0.215565
0.276234
0.323887
0.357136
0.368922
0.372122
-0.318065
-0.321911
-0.32584
-0.327376
-0.313541
-0.283431
-0.245274
-0.199345
-0.146271
-0.105729
-0.0455849
-0.00907515
0.0163541
0.0891754
0.148379
0.190194
0.224998
0.247968
0.258163
0.260959
-0.197265
-0.199267
-0.201684
-0.204069
-0.199499
-0.1885
-0.172225
-0.148205
-0.115356
-0.0866403
-0.044173
-0.0145855
0.00419846
0.0592192
0.101175
0.129506
0.151961
0.165591
0.171987
0.173671
-0.0963758
-0.0974987
-0.0994898
-0.10328
-0.106277
-0.107929
-0.105931
-0.0977433
-0.0821463
-0.065186
-0.0389378
-0.0176351
-0.00299495
0.038461
0.0660223
0.0844127
0.0971949
0.103717
0.105522
0.105367
-0.0254549
-0.0263022
-0.0280613
-0.0330942
-0.0412366
-0.0497665
-0.0553752
-0.0566667
-0.0524255
-0.0455048
-0.0313275
-0.0171005
-0.00640113
0.0207376
0.0383817
0.049319
0.0556046
0.0576455
0.0568332
0.0556606
0.0156636
0.0150582
0.0134701
0.00805027
-0.00166653
-0.0127493
-0.022037
-0.0281505
-0.0299274
-0.0299344
-0.0230173
-0.014937
-0.00776904
0.00667777
0.0161492
0.0218033
0.0244229
0.023689
0.0219381
0.020548
0.0356573
0.0351353
0.0336804
0.0286184
0.0193128
0.00815077
-0.00225855
-0.0105102
-0.0152227
-0.0187983
-0.0157174
-0.0123015
-0.00909904
-0.00291667
0.000664756
0.00249075
0.00268417
0.00111262
-0.000886043
-0.00235531
0.0426258
0.0422308
0.041056
0.0368658
0.0289619
0.0190147
0.00890114
-0.000101943
-0.00609148
-0.0110605
-0.0102276
-0.0099123
-0.00995915
-0.00778059
-0.00737311
-0.00742882
-0.00892564
-0.0112195
-0.0131891
-0.0146281
0.042189
0.0419093
0.0410124
0.037833
0.0317778
0.0238173
0.0151543
0.00652651
0.000282657
-0.00557046
-0.00615938
-0.00790116
-0.0104893
-0.00960916
-0.0101739
-0.0115752
-0.0138881
-0.0165138
-0.0183974
-0.0196574
0.0382276
0.03803
0.0373708
0.0350837
0.0306759
0.0247741
0.0179713
0.010572
0.00494775
-0.00156683
-0.00348918
-0.0054969
-0.00847589
-0.00889783
-0.0100532
-0.0120917
-0.0144008
-0.0162671
-0.0176715
-0.0188488
0.032944
0.0328063
0.0323171
0.0307376
0.0276422
0.0233833
0.0182616
0.0123182
0.00764219
0.0011276
-0.00145807
-0.00367346
-0.00595172
-0.00599262
-0.00753458
-0.00958675
-0.0116113
-0.0132679
-0.0142558
-0.0152256
0.0275975
0.0274812
0.0271262
0.0259998
0.023794
0.0207129
0.0168188
0.01217
0.00874712
0.00294246
0.000514154
-0.00127825
-0.00349716
-0.00361389
-0.00496222
-0.00666853
-0.00825476
-0.00944265
-0.00993572
-0.0107161
0.0228557
0.0227654
0.0225078
0.0217206
0.0201834
0.0179201
0.0149768
0.0112773
0.00869911
0.00413111
0.00203117
0.000417104
-0.00101785
-0.000997176
-0.00219611
-0.00326929
-0.00410367
-0.00456201
-0.00465715
-0.00537904
0.018739
0.018672
0.0184894
0.0179607
0.0169145
0.0152671
0.0131728
0.0103752
0.0083595
0.00467063
0.0032951
0.00134746
-1.00232e-05
0.000757793
0.000672078
0.000570574
0.000546334
0.000605339
0.000708218
1.06499e-05
0.0152255
0.0151787
0.0150568
0.0147157
0.0139673
0.0127932
0.0112707
0.00914021
0.00775997
0.00494559
0.00387434
0.00261113
0.00128311
0.00165912
0.00266205
0.00338959
0.00381733
0.00401372
0.00419786
0.00361015
0.0119036
0.0118697
0.0117914
0.0116215
0.0111673
0.0103836
0.00937246
0.0078439
0.0068904
0.00477079
0.00410864
0.00326069
0.002388
0.00280013
0.00372928
0.00473939
0.0055593
0.00591797
0.00609137
0.00549252
0.00879048
0.00872773
0.00864418
0.0085522
0.00825367
0.00782175
0.00717184
0.00606253
0.00558601
0.00411865
0.00421038
0.00321595
0.00282414
0.00354497
0.00426458
0.00554799
0.00677492
0.00741959
0.00767208
0.00699887
0.00603462
0.00598421
0.0059219
0.00588738
0.00574122
0.00551959
0.00504307
0.00426638
0.00420384
0.00317917
0.00356573
0.00291697
0.00287208
0.0034596
0.00419016
0.00556925
0.00712786
0.00786972
0.00803115
0.00731173
0.00360257
0.00354903
0.0035119
0.00347329
0.00335223
0.00320484
0.00300436
0.00256442
0.00266504
0.00191439
0.00269225
0.00225155
0.00199039
0.00286188
0.00321115
0.0039785
0.00528689
0.00602566
0.0063552
0.00574909
0.00156803
0.00152789
0.00149951
0.00140497
0.00118975
0.00109839
0.00119328
0.000952992
0.00118403
0.000597019
0.00161833
0.00168352
0.00130185
0.00165787
0.00134465
0.000386625
-0.000583975
-0.00123924
-0.000883922
-0.00101027
-1.077
-0.234519
0.0355749
0.312695
0.495488
0.65276
0.780882
0.911366
1.05402
1.13527
-0.0942639
0.313662
0.331153
0.520083
0.645222
0.757476
0.854227
0.940274
0.967928
0.925616
0.284632
0.499257
0.535329
0.672166
0.758895
0.839409
0.905771
0.955537
0.957784
0.971691
0.515385
0.659162
0.694541
0.797117
0.854137
0.912464
0.957515
0.990001
0.999151
1.02278
0.69434
0.796396
0.826165
0.894469
0.93891
0.980348
1.01264
1.037
1.04685
1.07838
0.838301
0.907487
0.937878
0.981127
1.01735
1.04767
1.07209
1.09285
1.10705
1.13528
0.9579
1.00868
1.03433
1.06248
1.0903
1.11418
1.13422
1.15348
1.16839
1.19485
1.06197
1.09909
1.12026
1.14101
1.16191
1.18136
1.19879
1.2169
1.23178
1.25543
1.15617
1.18536
1.20175
1.21708
1.23324
1.24932
1.26487
1.28178
1.29539
1.3177
1.2446
1.26508
1.27997
1.29315
1.30673
1.3205
1.33399
1.34858
1.36012
1.37976
1.33012
1.34592
1.35975
1.37155
1.38345
1.39507
1.4062
1.41789
1.42556
1.44237
1.41537
1.42792
1.44162
1.45334
1.46396
1.47375
1.48257
1.49084
1.4944
1.50566
1.50409
1.51489
1.52835
1.53789
1.54545
1.55274
1.55993
1.56644
1.56751
1.5749
1.60246
1.60705
1.61525
1.62002
1.62342
1.62791
1.6339
1.64159
1.64547
1.65535
1.71575
1.70266
1.69537
1.68965
1.68692
1.68828
1.69465
1.70702
1.72182
1.75148
1.83776
1.78173
1.75071
1.73351
1.7253
1.72525
1.73405
1.75364
1.7855
1.85474
)
;

boundaryField
{
    wall-4
    {
        type            zeroGradient;
    }
    pressure-outlet-7
    {
        type            fixedValue;
        value           uniform 0;
    }
    velocity-inlet-6
    {
        type            zeroGradient;
    }
    velocity-inlet-5
    {
        type            zeroGradient;
    }
    frontAndBackPlanes
    {
        type            empty;
    }
}


// ************************************************************************* //
