/*--------------------------------*- C++ -*----------------------------------*\
  =========                 |
  \\      /  F ield         | OpenFOAM: The Open Source CFD Toolbox
   \\    /   O peration     | Website:  https://openfoam.org
    \\  /    A nd           | Version:  9
     \\/     M anipulation  |
\*---------------------------------------------------------------------------*/
FoamFile
{
    format      ascii;
    class       surfaceScalarField;
    location    "47";
    object      phi;
}
// * * * * * * * * * * * * * * * * * * * * * * * * * * * * * * * * * * * * * //

dimensions      [0 3 -1 0 0 0 0];

internalField   nonuniform List<scalar> 
4262
(
0.10714
0.470848
0.0955813
0.705145
0.0694044
0.85848
0.0473931
1.02077
0.0310101
1.2149
0.0198132
1.44942
0.0124458
1.73323
0.00728649
2.0762
0.00338358
2.48915
-0.000206924
2.98588
-0.0037903
2.98588
-0.00766918
2.48912
-0.012773
2.07614
-0.0200912
1.73318
-0.0311297
1.44926
-0.0472359
1.21462
-0.0690181
1.02055
-0.0952628
0.858548
-0.107082
0.705405
0.470906
0.112884
0.357964
0.135295
0.682734
0.120394
0.873381
0.0978518
1.04332
0.0746266
1.23812
0.0528948
1.47115
0.0344478
1.75168
0.0201863
2.09046
0.00884633
2.50049
-0.00131063
2.99604
-0.011413
2.99598
-0.0224989
2.50021
-0.0365343
2.09018
-0.0546452
1.75129
-0.0763174
1.47093
-0.0999668
1.23827
-0.123049
1.04363
-0.136803
0.872302
-0.113495
0.682098
0.357411
0.0920884
0.265876
0.125058
0.649764
0.121221
0.877218
0.104971
1.05957
0.0863501
1.25675
0.0672737
1.49022
0.0483611
1.77059
0.0303344
2.10848
0.0138631
2.51696
-0.00200992
3.01191
-0.0177719
3.01174
-0.0340123
2.51645
-0.0516049
2.10777
-0.0700811
1.76977
-0.0885232
1.48937
-0.105897
1.25565
-0.120219
1.05795
-0.125333
0.877416
-0.0923708
0.649135
0.26504
0.0640157
0.20186
0.104879
0.608901
0.106667
0.87543
0.0952735
1.07096
0.0813509
1.27067
0.0666417
1.50493
0.0505795
1.78665
0.0334555
2.12561
0.0156952
2.53472
-0.00309371
3.0307
-0.0215657
3.03021
-0.038749
2.53363
-0.0551662
2.12419
-0.0704512
1.78505
-0.0842742
1.5032
-0.097916
1.26929
-0.109653
1.06969
-0.106782
0.874545
-0.0647951
0.607148
0.200245
0.0375153
0.164345
0.0808361
0.56558
0.0912301
0.865036
0.0841141
1.07808
0.0715004
1.28328
0.0595941
1.51684
0.0466362
1.79961
0.0317985
2.14045
0.0150307
2.55149
-0.00397242
3.0497
-0.0227356
3.04898
-0.0387945
2.54969
-0.0527259
2.13812
-0.0649217
1.79725
-0.0763828
1.51466
-0.0884244
1.28133
-0.0948031
1.07607
-0.0830461
0.862788
-0.0383192
0.562421
0.161926
0.0195128
0.144832
0.0573346
0.527758
0.0727347
0.849636
0.0706565
1.08015
0.0619538
1.29198
0.0511521
1.52764
0.0399583
1.8108
0.0273543
2.15305
0.0122683
2.56657
-0.00538829
3.06736
-0.0225953
3.06618
-0.0367221
2.56382
-0.0483456
2.14974
-0.0585055
1.80741
-0.0683308
1.52448
-0.0759965
1.28899
-0.0768817
1.07695
-0.0598665
0.845773
-0.0203416
0.522897
0.141584
0.0106734
0.134159
0.0425387
0.495893
0.0588235
0.833351
0.05922
1.07976
0.053132
1.29807
0.0438428
1.53693
0.0334982
1.82115
0.0221536
2.16439
0.00907019
2.57966
-0.0067242
3.08316
-0.0221123
3.08157
-0.0342018
2.57591
-0.0441382
2.15968
-0.0530754
1.81635
-0.0610751
1.53248
-0.0657418
1.29366
-0.0638648
1.07507
-0.0456265
0.827535
-0.0116252
0.488895
0.129959
0.00663435
0.127524
0.0331065
0.469421
0.0494697
0.816988
0.051105
1.07812
0.0461579
1.30302
0.037916
1.54517
0.0283337
1.83073
0.0174655
2.17526
0.00539305
2.59173
-0.00851714
3.09707
-0.0219061
3.09496
-0.0326728
2.58667
-0.0419808
2.16898
-0.0497248
1.82409
-0.0562135
1.53897
-0.0593911
1.29684
-0.055877
1.07156
-0.0369506
0.808608
-0.00779814
0.459743
0.122161
0.00473905
0.122785
0.026687
0.447473
0.0425665
0.801108
0.0447332
1.07596
0.0402179
1.30754
0.0327528
1.55264
0.0238784
1.83961
0.0135547
2.18559
0.0019652
2.60332
-0.0108253
3.10986
-0.022745
3.10688
-0.0326256
2.59655
-0.040869
2.17723
-0.047732
1.83095
-0.0532593
1.5445
-0.0557573
1.29934
-0.0509527
1.06675
-0.0315686
0.789224
-0.00623989
0.434414
0.115921
0.00383594
0.118949
0.022013
0.429296
0.0374413
0.78568
0.0403306
1.07307
0.0359598
1.31191
0.0285677
1.56003
0.0198985
1.84828
0.0100637
2.19542
-0.000896916
2.61428
-0.0129547
3.12191
-0.0243702
3.11829
-0.0335423
2.60573
-0.040945
2.18463
-0.0469864
1.837
-0.0518764
1.54939
-0.0533587
1.30082
-0.0472308
1.06063
-0.0277068
0.7697
-0.00559618
0.412304
0.110325
0.00312313
0.115826
0.0177094
0.414709
0.0317928
0.771596
0.0349734
1.06989
0.0310918
1.31579
0.0241855
1.56694
0.0159001
1.85656
0.00623297
2.20509
-0.0048585
2.62537
-0.0168885
3.13394
-0.0274979
3.1289
-0.035652
2.61388
-0.0422809
2.19126
-0.0476159
1.84233
-0.0515048
1.55328
-0.0518479
1.30116
-0.0444274
1.05321
-0.0248345
0.750107
-0.00528867
0.392758
0.105036
0.00241899
0.113407
0.014056
0.403072
0.0269076
0.758745
0.0302613
1.06653
0.0264975
1.31955
0.0197399
1.57369
0.0115628
1.86474
0.00217032
2.21448
-0.00828351
2.63582
-0.0197625
3.14542
-0.0302842
3.13943
-0.0382986
2.62189
-0.0440192
2.19698
-0.0484268
1.84674
-0.0513414
1.55619
-0.0508457
1.30067
-0.0420785
1.04444
-0.022613
0.730642
-0.00508434
0.375229
0.0999515
0.00171233
0.111695
0.0105857
0.394199
0.0215936
0.747737
0.0246031
1.06352
0.0209875
1.32317
0.014385
1.5803
0.00621831
1.8729
-0.00315087
2.22385
-0.0139457
2.64662
-0.0256026
3.15708
-0.0352971
3.14912
-0.041904
2.6285
-0.0466624
2.20174
-0.0501532
1.85023
-0.0517437
1.55778
-0.0503497
1.29927
-0.0404884
1.03458
-0.0210647
0.711218
-0.00493107
0.359095
0.0950205
0.000935533
0.110759
0.00732593
0.387808
0.0166616
0.738401
0.0190632
1.06112
0.0149364
1.32729
0.00800735
1.58723
-0.000251715
1.88116
-0.00971488
2.23331
-0.0198074
2.65671
-0.0300743
3.16735
-0.0388028
3.15785
-0.0448809
2.63458
-0.048798
2.20566
-0.0515891
1.85302
-0.052614
1.55881
-0.0504562
1.29712
-0.039477
1.0236
-0.0199986
0.691739
-0.00484288
0.34394
0.0901776
0.000187322
0.110572
0.00422046
0.383775
0.0110624
0.731559
0.0123796
1.0598
0.00788696
1.33179
0.000619105
1.59449
-0.0080353
1.88982
-0.0174065
2.24268
-0.0275959
2.6669
-0.0381997
3.17795
-0.0459775
3.16563
-0.0502075
2.63881
-0.0528813
2.20833
-0.0547234
1.85486
-0.0548228
1.55891
-0.0512289
1.29352
-0.0391484
1.01152
-0.019455
0.672046
-0.00484962
0.329334
0.085328
-0.000784381
0.111356
0.000573044
0.382418
0.00555851
0.726574
0.00613025
1.05923
0.000881442
1.33704
-0.00726121
1.60264
-0.0165499
1.89911
-0.0264467
2.25258
-0.0364019
2.67685
-0.0456838
3.18723
-0.0524531
3.1724
-0.0561018
2.64246
-0.0578165
2.21004
-0.0589176
1.85596
-0.0581688
1.55816
-0.05314
1.28849
-0.0393647
0.997743
-0.0192142
0.651896
-0.00487531
0.314995
0.0804526
-0.00162786
0.112984
-0.00254221
0.383332
-0.000655694
0.724687
-0.00196352
1.06054
-0.00782058
1.34289
-0.0163266
1.61114
-0.0262324
1.90901
-0.036731
2.26308
-0.0473892
2.68751
-0.0571549
3.197
-0.0632774
3.17852
-0.0655095
2.64469
-0.066004
2.21054
-0.0652438
1.8552
-0.0627385
1.55565
-0.0561254
1.28188
-0.0406564
0.982274
-0.0197524
0.630992
-0.0051456
0.300389
0.075307
-0.00295581
0.11594
-0.0062421
0.386619
-0.00777827
0.726224
-0.0103334
1.0631
-0.0171248
1.34968
-0.0267674
1.62078
-0.037535
1.91978
-0.0488927
2.27444
-0.0598772
2.6985
-0.0686648
3.20579
-0.0730768
3.18293
-0.0741364
2.64575
-0.0732313
2.20963
-0.0718591
1.85383
-0.0683937
1.55219
-0.0597237
1.27321
-0.042364
0.964914
-0.0205341
0.609162
-0.00543479
0.285289
0.0698722
-0.00432907
0.120269
-0.0106266
0.392916
-0.0157046
0.731302
-0.021667
1.06906
-0.0295591
1.35758
-0.0397152
1.63094
-0.0513264
1.93139
-0.0636879
2.2868
-0.0756132
2.71042
-0.0851017
3.21527
-0.0895553
3.18738
-0.0897652
2.64596
-0.0869887
2.20686
-0.0824716
1.84931
-0.0760501
1.54577
-0.0650008
1.26216
-0.045377
0.94529
-0.0220168
0.585802
-0.00591894
0.269191
0.0639533
-0.00573175
0.126001
-0.0155185
0.402703
-0.0244788
0.740262
-0.0327672
1.07735
-0.0427905
1.3676
-0.0552469
1.6434
-0.0685464
1.94469
-0.0820461
2.3003
-0.0942469
2.72262
-0.102548
3.22358
-0.104047
3.18888
-0.101155
2.64307
-0.0964958
2.2022
-0.0916057
1.84442
-0.0845891
1.53875
-0.0711301
1.2487
-0.0487998
0.92296
-0.0236362
0.560638
-0.00639963
0.251955
0.0575537
-0.00810939
0.13411
-0.0227781
0.417372
-0.0375436
0.755027
-0.0495995
1.0894
-0.0612935
1.37929
-0.0752586
1.65736
-0.0905259
1.95996
-0.10575
2.31552
-0.118554
2.73543
-0.126015
3.23104
-0.12614
3.18901
-0.122016
2.63894
-0.115873
2.19605
-0.107111
1.83566
-0.0958298
1.52747
-0.0788841
1.23176
-0.0532825
0.897358
-0.0257988
0.533154
-0.0069845
0.23314
0.0505692
-0.0106689
0.144779
-0.0303848
0.437087
-0.0510926
0.775735
-0.0678205
1.10613
-0.0831022
1.39457
-0.100376
1.67464
-0.117759
1.97734
-0.133821
2.33158
-0.146064
2.74767
-0.151695
3.23667
-0.148717
3.18603
-0.140502
2.63073
-0.130231
2.18578
-0.120455
1.82589
-0.108154
1.51517
-0.0879168
1.21152
-0.0585689
0.868011
-0.0283364
0.502922
-0.00757716
0.212381
0.042992
-0.0153798
0.160159
-0.0425675
0.464275
-0.069973
0.803141
-0.0918379
1.128
-0.110735
1.41347
-0.131066
1.69497
-0.150959
1.99723
-0.168752
2.34938
-0.181566
2.76048
-0.185715
3.24082
-0.17945
3.17977
-0.168401
2.61968
-0.156294
2.17368
-0.142042
1.81163
-0.124313
1.49744
-0.0993728
1.18658
-0.065496
0.834134
-0.0315264
0.468952
-0.00819627
0.189051
0.0347958
-0.019586
0.179745
-0.0556244
0.500314
-0.0925378
0.840054
-0.121466
1.15692
-0.145819
1.43783
-0.170701
1.71985
-0.193033
2.01957
-0.210908
2.36725
-0.221557
2.77113
-0.222071
3.24133
-0.212297
3.16999
-0.197207
2.60459
-0.180231
2.1567
-0.163398
1.7948
-0.143422
1.47746
-0.113496
1.15665
-0.0737321
0.79437
-0.0349327
0.430153
-0.00872355
0.162842
0.0260722
-0.0326132
0.212358
-0.0816595
0.54936
-0.128376
0.886771
-0.164018
1.19256
-0.194277
1.46808
-0.222775
1.74835
-0.246091
2.04288
-0.263448
2.38461
-0.272306
2.77999
-0.268793
3.23782
-0.25271
3.15391
-0.232916
2.5848
-0.213626
2.13741
-0.192623
1.7738
-0.165948
1.45079
-0.129264
1.11997
-0.0829314
0.748037
-0.0385402
0.385762
-0.00909188
0.133394
0.0169803
-0.0472487
0.259607
-0.120851
0.622962
-0.18336
0.949279
-0.227019
1.23622
-0.262509
1.50357
-0.291692
1.77753
-0.312968
2.06416
-0.326266
2.39791
-0.328469
2.7822
-0.316738
3.22609
-0.295321
3.13249
-0.271201
2.56068
-0.245882
2.11209
-0.220572
1.74849
-0.189797
1.42001
-0.145605
1.07578
-0.0908496
0.693282
-0.0401113
0.335023
-0.00896693
0.102249
0.0080134
-0.0339627
0.293569
-0.0968344
0.685834
-0.154052
1.0065
-0.200596
1.28277
-0.242907
1.54589
-0.279955
1.81458
-0.314043
2.09825
-0.343946
2.42781
-0.365464
2.80371
-0.374213
3.23484
-0.363528
3.12181
-0.341715
2.53886
-0.315943
2.08632
-0.282021
1.71457
-0.235181
1.37317
-0.172445
1.01304
-0.0996696
0.620507
-0.0393693
0.274723
-0.00870593
0.0715858
-0.000692531
-0.0126832
0.306253
-0.0474925
0.720643
-0.0887816
1.04779
-0.127424
1.32141
-0.165297
1.58376
-0.198512
1.84779
-0.229102
2.12884
-0.254407
2.45311
-0.270296
2.8196
-0.269905
3.23445
-0.253077
3.10498
-0.227901
2.51369
-0.195991
2.05441
-0.161472
1.68005
-0.123832
1.33553
-0.079687
0.968894
-0.0369226
0.577742
-0.0115442
0.249345
-0.00247254
0.0625142
-0.00316507
0.00029956
0.305953
-0.024134
0.745077
-0.0534647
1.07712
-0.0832634
1.35121
-0.113926
1.61442
-0.143836
1.8777
-0.171103
2.1561
-0.193212
2.47522
-0.206643
2.83303
-0.205159
3.23296
-0.186072
3.08589
-0.156118
2.48373
-0.1245
2.02279
-0.0919097
1.64746
-0.0549032
1.29852
-0.0190797
0.933071
0.00316813
0.555494
0.00617115
0.246342
0.0019327
0.0667526
-0.00123236
0.00090437
0.305049
-0.0124168
0.758398
-0.0338805
1.09858
-0.05843
1.37576
-0.0839778
1.63997
-0.109054
1.90278
-0.132403
2.17945
-0.151052
2.49387
-0.160174
2.84216
-0.154872
3.22766
-0.13471
3.06573
-0.108362
2.45738
-0.0773666
1.9918
-0.042521
1.61261
-0.0134281
1.26943
0.00808878
0.911554
0.0175054
0.546078
0.0128291
0.251018
0.00398937
0.0755923
0.00275701
0.00392831
0.30112
-0.00559219
0.767919
-0.0238168
1.1168
-0.0444254
1.39637
-0.0659338
1.66148
-0.0874183
1.92426
-0.107651
2.19968
-0.123772
2.50999
-0.132213
2.8506
-0.12849
3.22394
-0.108535
3.04577
-0.0795177
2.42837
-0.0506276
1.96291
-0.0237823
1.58577
0.00425269
1.2414
0.0233181
0.892489
0.0258803
0.543515
0.016229
0.260669
0.00492815
0.0868932
0.00768516
0.00516791
0.295953
-0.000927114
0.774014
-0.0172663
1.13314
-0.0360705
1.41517
-0.055412
1.68082
-0.0743501
1.9432
-0.0921854
2.21752
-0.106657
2.52446
-0.114134
2.85807
-0.108455
3.21826
-0.0898998
3.02722
-0.0688945
2.40736
-0.0419878
1.936
-0.0125599
1.55634
0.00956536
1.21927
0.0239648
0.878089
0.025303
0.542177
0.0153932
0.270579
0.00475611
0.0975304
0.0124413
0.0037283
0.292224
-0.000942826
0.778685
-0.0145171
1.14672
-0.0314839
1.43214
-0.0490234
1.69836
-0.0665656
1.96074
-0.0833663
2.23432
-0.0973158
2.53841
-0.105101
2.86586
-0.102147
3.2153
-0.0884052
3.01348
-0.0660414
2.385
-0.0404392
1.9104
-0.0166986
1.5326
0.0064262
1.19615
0.0207639
0.863752
0.0209165
0.542025
0.0127588
0.278737
0.00392144
0.106368
0.0163627
0.00250718
0.289717
-0.00136718
0.782559
-0.0138621
1.15921
-0.029332
1.44761
-0.0459811
1.71501
-0.062509
1.97727
-0.0783288
2.25014
-0.0915189
2.5516
-0.0990645
2.8734
-0.0976821
3.21392
-0.0843558
3.00015
-0.064558
2.3652
-0.0427721
1.88861
-0.0183948
1.50822
0.00157302
1.17618
0.0128105
0.852514
0.0150362
0.539799
0.00877194
0.285001
0.0026884
0.112451
0.0190511
0.0001117
0.289605
-0.00379288
0.786464
-0.0148021
1.17022
-0.0287724
1.46158
-0.0443878
1.73062
-0.0602385
1.99312
-0.0757697
2.26567
-0.0896029
2.56544
-0.0993629
2.88316
-0.100665
3.21522
-0.0886564
2.98814
-0.0697292
2.34627
-0.0476055
1.86649
-0.0274646
1.48808
-0.00773172
1.15645
0.00509929
0.839683
0.00670146
0.538197
0.00454052
0.287162
0.00161334
0.115378
0.0206644
-0.000596891
0.290202
-0.0054786
0.791345
-0.0158014
1.18055
-0.0289974
1.47477
-0.0440361
1.74566
-0.0594117
2.0085
-0.0748307
2.28109
-0.0889795
2.57959
-0.0986995
2.89288
-0.0997582
3.21628
-0.0908102
2.97919
-0.0739183
2.32938
-0.0555257
1.84809
-0.0336245
1.46618
-0.0170437
1.13987
-0.00620816
0.828848
-0.000606745
0.532595
-0.000525873
0.287081
4.14665e-05
0.114811
0.0207059
-0.0020726
0.292275
-0.00756335
0.796836
-0.0173599
1.19034
-0.0297411
1.48716
-0.0439882
1.75991
-0.0590367
2.02355
-0.0745699
2.29662
-0.0892996
2.59432
-0.101188
2.90477
-0.106458
3.22155
-0.0989468
2.97168
-0.0829047
2.31334
-0.0615061
1.8267
-0.0433468
1.44802
-0.0255496
1.12207
-0.0127396
0.816038
-0.00686199
0.526718
-0.00300732
0.283226
-0.000718834
0.112523
0.0199871
-0.00346107
0.295736
-0.00898969
0.802365
-0.0184361
1.19979
-0.0304344
1.49915
-0.0443192
1.77379
-0.0590754
2.0383
-0.0746096
2.31216
-0.0899517
2.60966
-0.102786
2.91761
-0.108408
3.22718
-0.10256
2.96583
-0.0888145
2.29959
-0.0713004
1.80918
-0.0500951
1.42681
-0.0333402
1.10531
-0.0207347
0.803432
-0.0113311
0.517314
-0.00567088
0.277566
-0.00145044
0.108302
0.0185366
-0.00416215
0.299898
-0.0103262
0.808529
-0.0196657
1.20913
-0.0311672
1.51066
-0.0444327
1.78706
-0.0588778
2.05275
-0.0745918
2.32787
-0.0906842
2.62575
-0.105278
2.9322
-0.114926
3.23682
-0.112475
2.96338
-0.0981732
2.28529
-0.0765962
1.7876
-0.057819
1.40804
-0.0393217
1.08682
-0.0248251
0.788935
-0.0154265
0.507916
-0.00672375
0.268863
-0.00174119
0.10332
0.0167954
-0.00434211
0.30424
-0.0109741
0.815161
-0.0202277
1.21838
-0.0314745
1.5219
-0.0444936
1.80008
-0.0587265
2.06698
-0.0744829
2.34363
-0.0911177
2.64239
-0.106889
2.94797
-0.118166
3.2481
-0.117098
2.96232
-0.104166
2.27236
-0.0867026
1.77014
-0.0632564
1.38459
-0.0446113
1.06817
-0.0296406
0.773965
-0.0166063
0.494881
-0.00753047
0.259788
-0.00175818
0.0975473
0.0150373
-0.00440388
0.308644
-0.0115305
0.822287
-0.020766
1.22762
-0.0316623
1.5328
-0.0442153
1.81263
-0.05818
2.08095
-0.074028
2.35948
-0.0912416
2.6596
-0.108611
2.96534
-0.122884
3.26237
-0.125164
2.9646
-0.11405
2.26125
-0.091839
1.74793
-0.0698402
1.36259
-0.0472988
1.04563
-0.0298392
0.756505
-0.0174923
0.482534
-0.00687374
0.249169
-0.00143569
0.0921093
0.0136016
-0.00445059
0.313095
-0.0116949
0.829532
-0.0207118
1.23663
-0.0313734
1.54346
-0.0437322
1.82499
-0.0575111
2.09473
-0.0733271
2.37529
-0.0909393
2.67721
-0.109316
2.98372
-0.125175
3.27823
-0.130166
2.96959
-0.120596
2.25168
-0.10284
1.73017
-0.0752961
1.33505
-0.0498833
1.02022
-0.0289277
0.73555
-0.0128156
0.466422
-0.00432033
0.240674
-0.000339961
0.0881289
0.0132616
-0.00450863
0.317603
-0.0118289
0.836852
-0.020669
1.24547
-0.0309899
1.55378
-0.042913
1.83691
-0.0563997
2.10821
-0.0721946
2.39109
-0.0901932
2.69521
-0.109711
3.00324
-0.127928
3.29645
-0.136606
2.97827
-0.129968
2.24504
-0.108494
1.7087
-0.0821226
1.30868
-0.0499047
0.987999
-0.0229806
0.708625
-0.00556276
0.449004
0.0011733
0.233938
-0.00172011
0.0910223
0.0115415
-0.00451004
0.322113
-0.0116983
0.84404
-0.0201948
1.25397
-0.0302026
1.56379
-0.041868
1.84858
-0.0551347
2.12148
-0.0708244
2.40678
-0.0890497
2.71343
-0.109258
3.02344
-0.128978
3.31617
-0.140401
2.98969
-0.136692
2.24133
-0.121166
1.69317
-0.0896436
1.27715
-0.0520859
0.950441
-0.012768
0.669308
0.0207775
0.415459
0.0345556
0.22016
0.0247867
0.100791
0.0363282
-0.00442225
0.326536
-0.0115114
0.851129
-0.019772
1.26223
-0.0293915
1.57341
-0.0405841
1.85977
-0.0535137
2.13441
-0.0690648
2.42233
-0.0874083
2.73178
-0.108296
3.04433
-0.129812
3.33769
-0.143666
3.00354
-0.145087
2.24275
-0.127956
1.67604
-0.0991555
1.24835
-0.053452
0.904738
-0.00525512
0.621111
0.03993
0.370274
0.045092
0.214998
0.0197691
0.126114
0.0560973
-0.00425511
0.330791
-0.0111401
0.858014
-0.0190228
1.27011
-0.028258
1.58264
-0.0391668
1.87068
-0.0518274
2.14707
-0.0671663
2.43767
-0.0855159
2.75013
-0.106861
3.06568
-0.129815
3.36064
-0.146433
3.02016
-0.151073
2.24739
-0.142607
1.66758
-0.112491
1.21824
-0.0654032
0.85765
0.00787719
0.54783
0.108365
0.269786
0.188613
0.13475
0.180773
0.133954
0.23687
-0.00411746
0.334908
-0.0109328
0.86483
-0.0187941
1.27797
-0.0279876
1.59184
-0.0389713
1.88166
-0.0520191
2.16012
-0.0682349
2.45388
-0.088132
2.77003
-0.11212
3.08966
-0.139254
3.38778
-0.161173
3.04208
-0.172455
2.25867
-0.165362
1.66048
-0.140752
1.19363
-0.0881014
0.804999
-0.0334129
0.493142
-0.0775668
0.31394
-0.35889
0.416073
-0.939664
0.714728
0.899274
-1.60207
-0.00393542
0.338844
-0.0105542
0.871449
-0.0181374
1.28556
-0.027146
1.60085
-0.0380702
1.89259
-0.0512505
2.1733
-0.0678641
2.4705
-0.0886767
2.79084
-0.114467
3.11545
-0.145196
3.4185
-0.17291
3.06979
-0.188954
2.27472
-0.199149
1.67068
-0.186223
1.1807
-0.163921
0.782697
-0.25245
0.581671
-0.692987
0.754477
-1.43741
1.1605
-2.04623
1.32355
1.21736
-2.36432
-0.00372481
0.342568
-0.0101048
0.877829
-0.017506
1.29296
-0.0263043
1.60964
-0.0370166
1.9033
-0.0502098
2.18649
-0.0671711
2.48746
-0.0888307
2.8125
-0.116374
3.143
-0.150398
3.45253
-0.18353
3.10292
-0.210697
2.30188
-0.223286
1.68327
-0.218059
1.17547
-0.304922
0.869561
-0.753501
1.03025
-1.53858
1.53955
-2.10718
1.7291
-2.34718
1.56355
1.33192
-2.46175
-0.00354416
0.346113
-0.00958376
0.883868
-0.0166274
1.3
-0.0251777
1.61819
-0.0357583
1.91388
-0.0490126
2.19974
-0.0662719
2.50472
-0.088718
2.83494
-0.11798
3.17226
-0.156034
3.49058
-0.195916
3.14281
-0.227155
2.33312
-0.258151
1.71426
-0.342065
1.25939
-0.68967
1.21717
-1.43362
1.7742
-2.02477
2.13071
-2.26504
1.96937
-2.37857
1.67708
1.39655
-2.44319
-0.00327373
0.349386
-0.00895147
0.889546
-0.0157287
1.30678
-0.024007
1.62647
-0.0343875
1.92426
-0.0475801
2.21294
-0.0650466
2.52218
-0.0881646
2.85806
-0.119029
3.20312
-0.16025
3.5318
-0.206565
3.18912
-0.253446
2.38
-0.299088
1.75991
-0.479687
1.43998
-1.092
1.82948
-1.78464
2.46684
-2.10709
2.45316
-2.25585
2.11813
-2.33808
1.75931
1.46232
-2.40386
-0.00321271
0.352599
-0.00878974
0.895123
-0.0154595
1.31345
-0.0237547
1.63477
-0.0344086
1.93492
-0.0479328
2.22646
-0.0659226
2.54017
-0.0899805
2.88212
-0.122622
3.23576
-0.16796
3.57714
-0.22146
3.24262
-0.268774
2.42732
-0.360369
1.8515
-0.750092
1.82971
-1.48773
2.56712
-1.96266
2.94177
-2.16276
2.65326
-2.26914
2.22451
-2.34617
1.83634
1.52599
-2.40983
-0.00329738
0.355896
-0.00912035
0.900946
-0.0162236
1.32055
-0.0249553
1.6435
-0.0360563
1.94602
-0.0501755
2.24058
-0.0690098
2.55901
-0.0942998
2.90741
-0.128912
3.27038
-0.17749
3.62572
-0.234816
3.29995
-0.300788
2.49329
-0.490866
2.04158
-1.04576
2.3846
-1.67614
3.19749
-1.95327
3.2189
-2.10045
2.80045
-2.21438
2.33844
-2.3079
1.92986
1.58776
-2.36968
-0.00335934
0.359256
-0.00949668
0.907083
-0.0169023
1.32796
-0.0260841
1.65268
-0.037754
1.95769
-0.0525896
2.25542
-0.0723451
2.57876
-0.0989336
2.934
-0.135439
3.30688
-0.188031
3.67831
-0.252106
3.36402
-0.339431
2.58061
-0.620845
2.32299
-1.26246
3.02622
-1.75243
3.68746
-1.95976
3.42623
-2.1001
2.94079
-2.22395
2.46229
-2.33467
2.04058
1.6464
-2.39332
-0.00333399
0.36259
-0.0097188
0.913468
-0.0177048
1.33594
-0.0274345
1.66241
-0.0395934
1.96985
-0.0550682
2.27089
-0.0757198
2.59941
-0.103575
2.96185
-0.142046
3.34535
-0.197013
3.73328
-0.264907
3.43192
-0.391274
2.70698
-0.776401
2.70812
-1.40843
3.65825
-1.763
4.04203
-1.9363
3.59953
-2.03849
3.04298
-2.12731
2.5511
-2.19494
2.10821
1.63933
-2.18786
-0.00327426
0.365864
-0.00998184
0.920176
-0.018271
1.34423
-0.0285005
1.67264
-0.0413313
1.98268
-0.0575934
2.28715
-0.0792203
2.62104
-0.108385
2.99102
-0.1486
3.38557
-0.206034
3.79071
-0.28591
3.51179
-0.455831
2.8769
-0.906224
3.15851
-1.46172
4.21374
-1.72426
4.30457
-1.87666
3.75194
-1.97017
3.13648
-1.9721
2.55304
-1.90383
2.03994
1.60535
-1.86985
-0.00307664
0.368941
-0.00992019
0.927019
-0.0188332
1.35315
-0.029579
1.68339
-0.0427809
1.99588
-0.0594308
2.3038
-0.0814535
2.64306
-0.11097
3.02053
-0.151654
3.42625
-0.207943
3.847
-0.293397
3.59725
-0.498789
3.08229
-0.986818
3.64654
-1.42848
4.6554
-1.59485
4.47095
-1.6625
3.81958
-1.66726
3.14124
-1.52003
2.40581
-1.02007
1.53998
0.585278
-0.00261384
0.371554
-0.0098761
0.934281
-0.019047
1.36232
-0.0304225
1.69476
-0.0446997
2.01016
-0.0627344
2.32184
-0.0866708
2.667
-0.118922
3.05279
-0.163471
3.4708
-0.226741
3.91027
-0.330858
3.70136
-0.585049
3.33649
-1.12186
4.18336
-1.48164
5.01518
-1.58157
4.57087
-1.5796
3.81761
-1.47668
3.03833
-1.23737
2.1665
-0.634576
0.937184
-0.0492976
-0.00212577
0.37368
-0.00917862
0.941334
-0.0190457
1.37219
-0.031221
1.70694
-0.0463316
2.02527
-0.0656107
2.34112
-0.0913688
2.69276
-0.126227
3.08764
-0.175106
3.51968
-0.244387
3.97956
-0.366515
3.82349
-0.68042
3.65039
-1.23905
4.74198
-1.50189
5.27802
-1.56111
4.6301
-1.53973
3.79622
-1.33747
2.83607
-0.786163
1.61519
-0.110255
0.261276
-0.159552
-0.00162407
0.375304
-0.00856109
0.948271
-0.0183629
1.38199
-0.0310769
1.71965
-0.0471946
2.04138
-0.0678049
2.36173
-0.0954887
2.72044
-0.133236
3.12539
-0.185675
3.57212
-0.263256
4.05714
-0.412436
3.97267
-0.783408
4.02136
-1.31813
5.2767
-1.49592
5.45581
-1.52725
4.66143
-1.43925
3.70823
-1.10494
2.50176
-0.316108
0.826358
0.0257781
-0.0806102
-0.133774
-0.000568415
0.375873
-0.00659006
0.954293
-0.016992
1.39239
-0.0304937
1.73315
-0.0472741
2.05816
-0.0690627
2.38352
-0.098479
2.74986
-0.138503
3.16542
-0.193896
3.62751
-0.280121
4.14336
-0.454065
4.14661
-0.888997
4.4563
-1.36171
5.74942
-1.47958
5.57368
-1.48252
4.66437
-1.26142
3.48712
-0.691898
1.93224
-0.0631313
0.197591
0.0311546
-0.174896
-0.10262
0.000535392
0.375337
-0.00447331
0.959302
-0.0145041
1.40242
-0.0283906
1.74704
-0.0458733
2.07565
-0.0687926
2.40643
-0.0998348
2.7809
-0.142245
3.20783
-0.200527
3.68579
-0.295718
4.23855
-0.497908
4.3488
-0.982213
4.9406
-1.35864
6.12584
-1.42316
5.6382
-1.37923
4.62044
-1.08998
3.19787
-0.327395
1.16966
0.00386921
-0.133673
0.0148851
-0.185912
-0.0877347
0.00316397
0.372173
0.000322599
0.962143
-0.0105124
1.41325
-0.0250257
1.76155
-0.042691
2.09331
-0.0666349
2.43038
-0.0989747
2.81324
-0.142886
3.25174
-0.203857
3.74676
-0.307292
4.34199
-0.532617
4.57413
-1.04145
5.44943
-1.31904
6.40343
-1.36083
5.67999
-1.22461
4.48423
-0.780206
2.75347
-0.0747905
0.46424
0.0458117
-0.254276
0.0254662
-0.165566
-0.0622684
0.0049544
0.367219
0.00350895
0.963589
-0.00549885
1.42226
-0.0191953
1.77525
-0.0371174
2.11123
-0.0616745
2.45494
-0.0948458
2.84641
-0.140364
3.29726
-0.203674
3.81007
-0.31455
4.45286
-0.57085
4.83043
-1.06325
5.94183
-1.25569
6.59587
-1.26672
5.69102
-1.05086
4.26837
-0.465558
2.16816
-0.012254
0.010936
-0.000714706
-0.265815
0.0087881
-0.175069
-0.0534803
0.00843134
0.358788
0.00979908
0.962221
0.00262465
1.42944
-0.0104355
1.78831
-0.0283116
2.12911
-0.053212
2.47984
-0.0867047
2.8799
-0.132082
3.34263
-0.196657
3.87465
-0.313828
4.57004
-0.58826
5.10486
-1.03829
6.39186
-1.16061
6.71819
-1.14844
5.67885
-0.894175
4.01411
-0.26956
1.54355
-0.0675924
-0.191032
-0.0362731
-0.297134
-0.012106
-0.199236
-0.0655863
0.0118708
0.346917
0.0172197
0.956872
0.0129881
1.43367
0.00234757
1.79895
-0.0160995
2.14756
-0.0400158
2.50375
-0.0726841
2.91257
-0.118079
3.38803
-0.183041
3.93961
-0.303041
4.69003
-0.585998
5.38782
-0.971359
6.77722
-1.04213
6.78896
-0.974085
5.61081
-0.689612
3.72963
-0.0952072
0.949144
-0.0179194
-0.26832
-0.0208569
-0.294197
-0.0083318
-0.211761
-0.0739181
0.01806
0.328857
0.0293788
0.945553
0.0279811
1.43507
0.0180712
1.80886
0.00171228
2.16392
-0.0203361
2.5258
-0.0516646
2.9439
-0.0948375
3.4312
-0.157309
4.00208
-0.2768
4.80953
-0.54471
5.65573
-0.856189
7.0887
-0.889481
6.82225
-0.793701
5.51503
-0.46046
3.39639
0.0366259
0.452059
0.0521112
-0.283805
0.0341224
-0.276208
0.0118825
-0.189522
-0.0620357
0.0243735
0.304483
0.0430233
0.926903
0.0470529
1.43104
0.0403389
1.81557
0.0274737
2.17678
0.00707678
2.5462
-0.0214983
2.97248
-0.0614814
3.47118
-0.120347
4.06095
-0.232061
4.92124
-0.466428
5.8901
-0.692968
7.31524
-0.732494
6.86177
-0.616669
5.3992
-0.289584
3.06931
0.00999042
0.152484
0.0250713
-0.298886
0.0323848
-0.283522
0.0173232
-0.17446
-0.0447125
0.0341142
0.270369
0.0633311
0.897686
0.0738524
1.42052
0.0715957
1.81783
0.0626866
2.18569
0.0453295
2.56356
0.0202617
2.99754
-0.0151562
3.5066
-0.0659553
4.11175
-0.160262
5.01555
-0.342391
6.07222
-0.49349
7.46634
-0.537806
6.90609
-0.454034
5.31543
-0.141455
2.75673
-0.0227394
0.0337688
-0.00985598
-0.311769
0.0239609
-0.317338
0.0329446
-0.183444
-0.0117679
0.0436914
0.226678
0.0859883
0.855389
0.106671
1.39983
0.111236
1.81326
0.106881
2.19005
0.0940857
2.57635
0.0757331
3.0159
0.0481203
3.53421
0.00163262
4.15824
-0.0614167
5.07859
-0.185729
6.19654
-0.266705
7.54731
-0.289835
6.92922
-0.269717
5.29531
-0.102425
2.58944
-0.174228
0.105572
-0.14666
-0.339338
-0.0574735
-0.406525
0.0229246
-0.263842
0.0111567
0.0556531
0.171025
0.116136
0.794907
0.151007
1.36496
0.163729
1.80054
0.166076
2.1877
0.159106
2.58332
0.147903
3.0271
0.130788
3.55133
0.106114
4.18291
0.0701027
5.11461
0.044889
6.22175
0.0126052
7.5796
-0.0468252
6.98865
-0.198385
5.44687
-0.35745
2.7485
-0.608523
0.356644
-0.593228
-0.354633
-0.420102
-0.579651
-0.187271
-0.496672
-0.176115
0.0590373
0.111988
0.146055
0.707889
0.201245
1.30977
0.227776
1.77401
0.238954
2.17652
0.239291
2.58298
0.237088
3.0293
0.232285
3.55613
0.227353
4.18784
0.225488
5.11647
0.309959
6.13728
0.396794
7.49276
0.355179
7.03027
0.192364
5.60969
-0.233994
3.17486
-0.711675
0.834326
-0.817519
-0.248788
-0.631188
-0.765982
-0.338567
-0.789293
-0.514682
0.0510194
0.0609681
0.176436
0.582473
0.265572
1.22064
0.308557
1.73103
0.330486
2.15459
0.341833
2.57164
0.34855
3.02259
0.359616
3.54507
0.381605
4.16585
0.427222
5.07085
0.639356
5.92515
0.922165
7.20995
1.12961
6.82282
1.26025
5.47904
0.85203
3.58308
0.182924
1.50343
-0.286107
0.220243
-0.467432
-0.584657
-0.290032
-0.966694
-0.804713
0.0361706
0.0247975
0.208814
0.409829
0.329653
1.0998
0.403241
1.65744
0.441479
2.11635
0.464811
2.5483
0.47967
3.00773
0.50503
3.51971
0.553519
4.11736
0.661369
4.963
1.01125
5.57527
1.6139
6.6073
2.02194
6.41478
2.31098
5.19
2.15824
3.73582
1.5422
2.11947
0.967074
0.795373
0.389469
-0.00705276
0.104187
-0.681411
-0.700527
0.0314278
-0.00663029
0.229954
0.211303
0.417837
0.911913
0.519919
1.55536
0.57303
2.06324
0.610812
2.51052
0.637832
2.98071
0.674356
3.48318
0.750124
4.0416
0.905276
4.80785
1.33239
5.14815
2.10734
5.83236
2.51364
6.00848
2.7133
4.99034
2.62029
3.82883
2.12674
2.61303
1.53533
1.38678
1.03556
0.492718
0.426332
-0.0721863
-0.274195
0.0283342
-0.0349645
0.178176
0.061461
0.469121
0.620969
0.645016
1.37946
0.729041
1.97921
0.77711
2.46245
0.817139
2.94068
0.856178
3.44415
0.932731
3.96504
1.08138
4.65921
1.40885
4.82067
2.14222
5.09899
2.50183
5.64887
2.65392
4.83825
2.57363
3.90912
2.20788
2.97878
1.60965
1.985
0.990257
1.11211
0.41372
0.504351
0.139525
0.0103057
-0.0452702
0.0934215
-0.0216548
0.404817
0.309573
0.646331
1.13795
0.763527
1.86202
0.797792
2.42819
0.80779
2.93068
0.797671
3.45426
0.793388
3.96933
0.83308
4.61951
0.926887
4.72686
1.26776
4.75812
1.47559
5.44105
1.47938
4.83446
1.40406
3.98444
1.22286
3.15998
0.906033
2.30183
0.561775
1.45637
0.235846
0.830279
0.375371
-0.00361275
-0.0416574
0.0347209
-0.0599885
0.235506
0.108788
0.483339
0.890115
0.610727
1.73463
0.656338
2.38258
0.673585
2.91343
0.669853
3.458
0.654253
3.98492
0.657891
4.61588
0.69933
4.68542
0.902522
4.55493
1.11431
5.22926
1.11207
4.8367
1.04393
4.05258
0.910252
3.29366
0.688082
2.524
0.421546
1.72291
0.168978
1.08285
0.544349
0.00514131
-0.0467988
0.037023
-0.0918702
0.133741
0.0120706
0.348866
0.67499
0.467365
1.61613
0.512898
2.33705
0.527862
2.89847
0.531283
3.45458
0.52174
3.99447
0.513358
4.62426
0.525848
4.67293
0.651611
4.42916
0.807741
5.07313
0.806345
4.8381
0.737004
4.12192
0.629176
3.40149
0.472852
2.68032
0.279765
1.91599
0.102174
1.26044
0.646523
0.0249654
-0.0717642
0.0719544
-0.138859
0.119673
-0.0356475
0.246609
0.548054
0.336299
1.52644
0.377088
2.29626
0.390472
2.88508
0.398792
3.44626
0.397895
3.99536
0.391061
4.63109
0.387659
4.67634
0.457495
4.35933
0.566383
4.96424
0.563031
4.84145
0.501305
4.18365
0.419263
3.48353
0.310493
2.78909
0.177424
2.04906
0.0541032
1.38376
0.700626
0.0443354
-0.1161
0.0920617
-0.186586
0.0963012
-0.039887
0.117155
0.5272
0.177829
1.46577
0.220578
2.25351
0.244664
2.861
0.264411
3.42651
0.278597
3.98118
0.283768
4.62592
0.277069
4.68303
0.310742
4.32565
0.382223
4.89276
0.376597
4.84707
0.324592
4.23565
0.258521
3.5496
0.177383
2.87023
0.0836857
2.14276
0.0069669
1.46048
0.707593
0.0423172