/*--------------------------------*- C++ -*----------------------------------*\
  =========                 |
  \\      /  F ield         | OpenFOAM: The Open Source CFD Toolbox
   \\    /   O peration     | Website:  https://openfoam.org
    \\  /    A nd           | Version:  9
     \\/     M anipulation  |
\*---------------------------------------------------------------------------*/
FoamFile
{
    format      ascii;
    class       volScalarField;
    location    "26";
    object      p;
}
// * * * * * * * * * * * * * * * * * * * * * * * * * * * * * * * * * * * * * //

dimensions      [0 2 -2 0 0 0 0];

internalField   nonuniform List<scalar> 
2200
(
0.440981
0.419482
0.403574
0.387906
0.373297
0.360775
0.350415
0.342302
0.336576
0.333518
0.333871
0.337516
0.343691
0.352118
0.362703
0.375396
0.390118
0.405895
0.421862
0.443377
0.373422
0.370165
0.367244
0.363126
0.35766
0.351186
0.344551
0.338561
0.334002
0.331531
0.331856
0.334977
0.34001
0.346353
0.353238
0.359882
0.365496
0.369659
0.372579
0.375879
0.333499
0.333722
0.335779
0.337123
0.337523
0.33667
0.334681
0.331981
0.329356
0.327764
0.328138
0.330424
0.33356
0.336636
0.33888
0.339871
0.339549
0.338455
0.336643
0.336402
0.310994
0.312443
0.31506
0.317535
0.319989
0.322007
0.323177
0.323415
0.323013
0.322578
0.32304
0.324229
0.325214
0.325415
0.324586
0.322832
0.320575
0.318219
0.315587
0.314175
0.296774
0.298744
0.301578
0.304424
0.307274
0.310095
0.312529
0.31433
0.315495
0.316138
0.316665
0.316916
0.316454
0.315186
0.31315
0.310633
0.307989
0.305209
0.302403
0.300468
0.289572
0.291173
0.293378
0.295911
0.298574
0.301221
0.303737
0.306074
0.307968
0.309254
0.309873
0.30967
0.308619
0.306901
0.304841
0.30253
0.300105
0.297711
0.295581
0.293996
0.286161
0.287165
0.288461
0.290389
0.29259
0.294771
0.296926
0.299154
0.301265
0.302926
0.303676
0.303347
0.302255
0.300775
0.299163
0.29738
0.295479
0.293748
0.292552
0.291554
0.283777
0.284413
0.285094
0.286479
0.288173
0.289901
0.291633
0.293477
0.295378
0.297123
0.298018
0.297888
0.297218
0.296317
0.295252
0.294049
0.292732
0.291604
0.291042
0.2904
0.281113
0.28155
0.282007
0.283096
0.284453
0.285894
0.287369
0.288902
0.290494
0.292075
0.293184
0.293584
0.293499
0.293113
0.292495
0.291656
0.290729
0.289937
0.289619
0.289176
0.277461
0.27773
0.278167
0.279259
0.280627
0.282135
0.283719
0.285303
0.286868
0.28843
0.289834
0.290732
0.291058
0.290874
0.29032
0.28954
0.288724
0.287993
0.287703
0.28742
0.273225
0.273348
0.273788
0.274907
0.276344
0.278011
0.27988
0.281844
0.28382
0.285728
0.287456
0.288557
0.288903
0.288661
0.288061
0.287342
0.286555
0.285855
0.285583
0.285454
0.269084
0.26911
0.269519
0.270516
0.271846
0.273459
0.275348
0.2775
0.279891
0.282366
0.28448
0.285756
0.286201
0.286196
0.285891
0.285406
0.284834
0.284346
0.284154
0.284115
0.265078
0.265011
0.26541
0.2662
0.267376
0.268823
0.270525
0.272573
0.275081
0.277946
0.280605
0.282504
0.283657
0.284269
0.284461
0.28436
0.284142
0.283926
0.283809
0.283796
0.261019
0.260919
0.261276
0.261966
0.263122
0.264567
0.266288
0.268409
0.271031
0.274216
0.277513
0.28019
0.282081
0.283253
0.283893
0.284174
0.284271
0.284265
0.284226
0.284215
0.256667
0.256642
0.256923
0.257642
0.258878
0.260475
0.262496
0.265038
0.268158
0.271957
0.275983
0.279287
0.281601
0.283134
0.284154
0.284773
0.285082
0.285211
0.285244
0.285238
0.251665
0.251651
0.25194
0.252695
0.254
0.255739
0.258064
0.261132
0.265007
0.269773
0.274802
0.278888
0.28176
0.283775
0.285202
0.286109
0.286633
0.286933
0.287039
0.287026
0.2457
0.245656
0.246003
0.246774
0.248062
0.249919
0.252515
0.256045
0.260692
0.266585
0.272921
0.278194
0.28201
0.28477
0.286747
0.288077
0.288936
0.289435
0.289607
0.289571
0.238227
0.238173
0.238547
0.239465
0.240975
0.243142
0.24619
0.250375
0.255965
0.263148
0.271042
0.277714
0.282685
0.286294
0.28889
0.290694
0.2919
0.292588
0.292834
0.292781
0.229292
0.229224
0.229659
0.230763
0.23265
0.235402
0.239257
0.244502
0.251452
0.260313
0.270003
0.278207
0.284327
0.288788
0.292005
0.294245
0.295755
0.296592
0.296892
0.296822
0.218467
0.218417
0.219007
0.220429
0.222829
0.226334
0.231237
0.237894
0.246675
0.257722
0.269581
0.279584
0.286978
0.292396
0.296242
0.298922
0.300709
0.30169
0.302061
0.301981
0.205207
0.205113
0.205858
0.207688
0.210786
0.215289
0.221559
0.230061
0.241138
0.25488
0.269406
0.281557
0.290505
0.297038
0.301689
0.304963
0.307138
0.308326
0.308757
0.308645
0.188572
0.188521
0.189565
0.191967
0.196
0.201882
0.210061
0.220956
0.234921
0.251922
0.269595
0.28424
0.295019
0.302891
0.308548
0.312514
0.315109
0.316521
0.317037
0.316899
0.167754
0.167636
0.169076
0.17235
0.177814
0.185769
0.196553
0.210671
0.228286
0.249175
0.270491
0.287991
0.300856
0.310229
0.316971
0.321733
0.324892
0.326609
0.327209
0.327014
0.1403
0.140458
0.142778
0.147565
0.155335
0.166343
0.180911
0.199288
0.221397
0.246894
0.272361
0.292991
0.308092
0.319146
0.327173
0.33287
0.336632
0.338638
0.339317
0.339086
0.103819
0.104244
0.108106
0.115792
0.12744
0.143334
0.163117
0.186852
0.214395
0.245203
0.275228
0.299261
0.316819
0.3297
0.339132
0.345927
0.350486
0.352943
0.353727
0.353364
0.0549857
0.0555405
0.0629553
0.0759144
0.0939703
0.11676
0.143286
0.173667
0.207561
0.244255
0.279189
0.306796
0.326937
0.341796
0.352813
0.360869
0.366325
0.369134
0.369892
0.369448
-0.0107751
-0.00771227
0.00823962
0.0302122
0.0570522
0.0879755
0.122393
0.16031
0.201275
0.244608
0.285168
0.317084
0.340583
0.358172
0.371427
0.381419
0.388498
0.391943
0.392673
0.392404
-0.0867505
-0.0761824
-0.049143
-0.0173473
0.0192116
0.0590267
0.101584
0.147277
0.19559
0.245981
0.292793
0.329779
0.357383
0.37841
0.394647
0.407112
0.41658
0.421462
0.422927
0.423237
-0.153245
-0.137076
-0.103329
-0.0632866
-0.0176153
0.0307744
0.0814413
0.134849
0.190434
0.247747
0.300606
0.34235
0.373413
0.397265
0.415795
0.430132
0.440714
0.446938
0.449025
0.449044
-0.202751
-0.188566
-0.149603
-0.103791
-0.0511144
0.00438201
0.0623585
0.122988
0.185508
0.24941
0.307797
0.353527
0.387436
0.413386
0.433632
0.449272
0.460456
0.466773
0.468871
0.469029
-0.24349
-0.230252
-0.188077
-0.138482
-0.0805912
-0.0194513
0.0447472
0.111741
0.180493
0.250297
0.313677
0.3629
0.399193
0.426506
0.447304
0.463208
0.474825
0.481395
0.483786
0.483988
-0.278703
-0.265183
-0.220732
-0.168401
-0.106496
-0.0408086
0.0285595
0.100923
0.175107
0.250304
0.318291
0.370655
0.408495
0.436504
0.457908
0.47425
0.485988
0.492913
0.495493
0.495681
-0.309513
-0.295903
-0.249517
-0.194882
-0.129659
-0.060192
0.0134844
0.0904397
0.169503
0.249722
0.321765
0.376432
0.415552
0.444536
0.46625
0.482707
0.494872
0.501949
0.504717
0.504857
-0.3373
-0.323657
-0.275613
-0.218812
-0.150716
-0.0781152
-0.000799086
0.0801834
0.163611
0.248184
0.323869
0.381007
0.421813
0.451425
0.473606
0.490339
0.502335
0.509696
0.512148
0.512046
-0.36273
-0.34916
-0.299825
-0.240877
-0.170173
-0.094942
-0.0145323
0.0699465
0.157209
0.245697
0.325093
0.385018
0.427188
0.457825
0.480466
0.497306
0.509195
0.516271
0.518868
0.518801
-0.386733
-0.372865
-0.322576
-0.261624
-0.188549
-0.11102
-0.0279415
0.0595712
0.150265
0.242649
0.325991
0.388749
0.432597
0.464151
0.487119
0.503916
0.515829
0.522793
0.525411
0.525462
-0.409319
-0.395297
-0.344235
-0.281452
-0.206338
-0.126686
-0.0411998
0.0490104
0.14285
0.238948
0.326026
0.39181
0.437951
0.470482
0.493844
0.51078
0.522684
0.529442
0.532129
0.532178
-0.430659
-0.416655
-0.364992
-0.300683
-0.223836
-0.142188
-0.0544554
0.0382216
0.134976
0.234559
0.325677
0.394922
0.443055
0.476697
0.50075
0.517887
0.529825
0.536546
0.539028
0.53906
-0.451215
-0.437023
-0.384992
-0.31948
-0.241199
-0.15769
-0.067834
0.0271718
0.126676
0.229699
0.324666
0.397181
0.447756
0.483268
0.508014
0.525349
0.53718
0.543607
0.546046
0.54602
-0.471481
-0.456713
-0.404381
-0.337852
-0.258394
-0.173227
-0.0814111
0.0157654
0.117751
0.223689
0.322061
0.398315
0.452353
0.489964
0.515777
0.533258
0.544823
0.551041
0.553153
0.553003
-0.491441
-0.475865
-0.423227
-0.355773
-0.275351
-0.188779
-0.0952475
0.00385633
0.108072
0.216772
0.319038
0.39923
0.456596
0.496873
0.524256
0.542048
0.552968
0.558314
0.560103
0.559865
-0.510962
-0.494644
-0.441576
-0.373199
-0.291951
-0.204241
-0.109291
-0.0084686
0.0977897
0.209077
0.314333
0.398277
0.460043
0.503882
0.533589
0.551999
0.561824
0.565966
0.566815
0.566517
-0.529845
-0.512982
-0.459425
-0.390134
-0.308139
-0.219503
-0.123398
-0.0211598
0.0868064
0.200074
0.308173
0.396834
0.462778
0.51078
0.543854
0.563955
0.572852
0.573157
0.572401
0.572831
-0.548083
-0.530831
-0.476743
-0.406577
-0.323879
-0.23448
-0.137487
-0.0341627
0.0752448
0.190447
0.301597
0.39381
0.464168
0.517248
0.554877
0.578138
0.587582
0.583604
0.578335
0.576012
-0.565632
-0.54807
-0.493482
-0.422522
-0.339172
-0.249127
-0.151414
-0.0471804
0.0634452
0.18048
0.29359
0.388482
0.463592
0.52241
0.56626
0.595004
0.609126
0.599718
0.59465
0.599417
-0.582519
-0.564653
-0.509585
-0.437933
-0.353994
-0.263373
-0.165056
-0.0601187
0.0514812
0.169758
0.284352
0.382065
0.461158
0.525418
0.576374
0.613263
0.63658
0.618074
0.573524
0.529183
-0.598668
-0.580571
-0.525081
-0.452878
-0.368461
-0.277377
-0.178602
-0.0731473
0.0391376
0.15819
0.274026
0.37331
0.455218
0.525058
0.583789
0.631717
0.670359
0.679361
0.698837
0.749685
-0.61405
-0.595888
-0.540053
-0.46748
-0.382757
-0.291379
-0.192333
-0.0866321
0.0258568
0.145315
0.261871
0.361919
0.445566
0.518803
0.580983
0.630701
0.6621
0.664472
0.63625
0.64451
-0.628625
-0.610567
-0.554457
-0.481674
-0.396791
-0.305296
-0.206189
-0.100531
0.0118436
0.13122
0.247634
0.347193
0.430122
0.50268
0.56331
0.608221
0.612233
0.572166
0.515852
0.506718
-0.642424
-0.62461
-0.568293
-0.495455
-0.410556
-0.319138
-0.220176
-0.114806
-0.00292253
0.115773
0.231397
0.329749
0.40946
0.475773
0.529073
0.547273
0.518582
0.449758
0.379038
0.366161
-0.655478
-0.638012
-0.581579
-0.508841
-0.424062
-0.332907
-0.234296
-0.12947
-0.0184147
0.0991629
0.213238
0.308927
0.382697
0.435873
0.464925
0.456734
0.409081
0.309985
0.224013
0.206822
-0.668243
-0.65119
-0.594712
-0.522198
-0.437657
-0.346902
-0.248797
-0.144702
-0.0347387
0.0810701
0.192711
0.284238
0.351676
0.38877
0.383363
0.349491
0.245468
0.124321
0.0176561
-0.00558979
-0.681606
-0.66491
-0.608384
-0.536152
-0.451904
-0.361575
-0.26405
-0.16082
-0.0522024
0.0614533
0.170073
0.256635
0.315447
0.330251
0.292682
0.207278
0.0500249
-0.102867
-0.230623
-0.255648
-0.696068
-0.679612
-0.62291
-0.55093
-0.466979
-0.377043
-0.280124
-0.177855
-0.0707233
0.0404118
0.144737
0.225826
0.272735
0.261373
0.201285
0.0503202
-0.155629
-0.373054
-0.555757
-0.601896
-0.711703
-0.695339
-0.63834
-0.566551
-0.482851
-0.39326
-0.29696
-0.195729
-0.0902822
0.0178371
0.117026
0.192856
0.225215
0.180834
0.0860956
-0.110838
-0.354074
-0.655332
-0.987179
-1.12988
-0.72856
-0.712224
-0.654763
-0.583081
-0.499562
-0.410288
-0.314629
-0.214535
-0.110933
-0.00596107
0.0875962
0.157034
0.172939
0.0955071
-0.0506055
-0.272307
-0.523922
-0.888407
-1.49859
-2.08265
-0.74665
-0.730264
-0.672236
-0.600575
-0.517126
-0.428118
-0.33308
-0.234148
-0.13242
-0.0306444
0.0569952
0.118611
0.117915
0.0167608
-0.186017
-0.442046
-0.665548
-0.927497
-1.5267
-3.12676
-0.766021
-0.749565
-0.690823
-0.619128
-0.53568
-0.446934
-0.35255
-0.254834
-0.155143
-0.0567428
0.0250285
0.0768088
0.0577517
-0.0461549
-0.287274
-0.555425
-0.723411
-0.782702
-0.805219
-1.21188
-0.78659
-0.770129
-0.710692
-0.639041
-0.555596
-0.467187
-0.373592
-0.277305
-0.17994
-0.0854247
-0.00883214
0.03328
-0.00504714
-0.096206
-0.342401
-0.577787
-0.708733
-0.730354
-0.687753
-0.733989
-0.808334
-0.791846
-0.731818
-0.660328
-0.576889
-0.488945
-0.396313
-0.301614
-0.206862
-0.116847
-0.0451681
-0.0121432
-0.0616559
-0.149103
-0.379293
-0.570358
-0.668417
-0.678454
-0.723978
-0.737185
-0.831104
-0.81443
-0.754162
-0.683006
-0.599527
-0.512179
-0.420652
-0.327783
-0.235982
-0.150696
-0.083975
-0.0601063
-0.112096
-0.20906
-0.41529
-0.566268
-0.649632
-0.61116
-0.639157
-0.642673
-0.8547
-0.837627
-0.777647
-0.706908
-0.623286
-0.536731
-0.44647
-0.355574
-0.266953
-0.186231
-0.124206
-0.110208
-0.158834
-0.279246
-0.455281
-0.570082
-0.629142
-0.657998
-0.642991
-0.650233
-0.878521
-0.861153
-0.802212
-0.731813
-0.647954
-0.562398
-0.473468
-0.384629
-0.299499
-0.223449
-0.165581
-0.163816
-0.201478
-0.345613
-0.501763
-0.589
-0.590978
-0.650666
-0.622845
-0.631667
-0.902194
-0.884836
-0.827356
-0.75712
-0.67317
-0.588828
-0.501259
-0.414536
-0.333294
-0.261777
-0.206667
-0.216148
-0.25383
-0.403649
-0.540103
-0.625664
-0.596196
-0.629821
-0.620465
-0.622072
-0.925157
-0.908209
-0.852148
-0.782177
-0.698617
-0.615583
-0.529351
-0.444617
-0.367342
-0.30056
-0.24589
-0.266858
-0.315197
-0.446745
-0.549271
-0.625733
-0.641464
-0.622818
-0.627241
-0.621209
-0.946822
-0.930595
-0.875744
-0.806265
-0.723879
-0.642024
-0.556991
-0.47423
-0.400497
-0.339324
-0.283828
-0.314888
-0.383607
-0.499383
-0.541556
-0.577355
-0.652495
-0.605593
-0.623798
-0.61663
-0.966168
-0.950988
-0.897468
-0.828686
-0.74825
-0.667214
-0.583413
-0.502468
-0.43156
-0.376607
-0.319182
-0.356918
-0.457446
-0.570366
-0.558746
-0.434421
-0.552388
-0.555316
-0.590293
-0.59908
-0.982183
-0.968375
-0.91662
-0.848885
-0.770606
-0.690198
-0.607685
-0.528344
-0.45893
-0.410831
-0.354392
-0.388486
-0.531987
-0.657221
-0.634019
-0.533282
-0.576659
-0.602573
-0.629409
-0.634182
-0.993771
-0.981696
-0.932431
-0.865989
-0.789376
-0.709728
-0.628505
-0.550804
-0.481904
-0.438385
-0.388828
-0.408658
-0.60881
-0.84389
-1.01192
-1.06752
-1.06336
-1.03262
-0.996756
-0.969672
-0.999916
-0.989759
-0.943507
-0.878683
-0.80341
-0.724945
-0.644987
-0.568006
-0.499354
-0.456185
-0.416447
-0.418243
-0.669731
-1.06665
-1.5907
-1.91839
-1.95385
-1.89831
-1.76395
-1.66822
-0.999758
-0.991481
-0.9489
-0.885869
-0.811764
-0.734429
-0.655367
-0.578571
-0.508052
-0.460497
-0.429079
-0.418078
-0.654697
-1.04699
-1.57575
-1.8836
-1.88549
-1.77937
-1.65438
-1.59698
-0.992116
-0.985018
-0.946639
-0.885964
-0.813493
-0.737043
-0.658477
-0.581171
-0.506509
-0.4485
-0.414605
-0.381306
-0.492382
-0.570016
-0.663331
-0.682403
-0.605322
-0.511136
-0.407258
-0.316045
-0.974935
-0.967974
-0.935479
-0.878416
-0.808035
-0.732444
-0.653635
-0.574335
-0.493408
-0.419343
-0.363945
-0.261125
-0.170805
0.0779694
0.346711
0.574663
0.766973
0.895014
0.963208
0.989591
-0.943575
-0.936983
-0.913461
-0.862508
-0.794893
-0.720226
-0.640733
-0.558795
-0.471206
-0.377132
-0.293769
-0.143601
0.104372
0.507132
0.936367
1.29039
1.54153
1.68841
1.75217
1.77254
-0.897376
-0.89272
-0.882298
-0.839246
-0.775292
-0.701773
-0.622101
-0.537724
-0.446762
-0.336647
-0.228909
-0.100726
0.203371
0.60089
1.01303
1.36292
1.62464
1.78273
1.85233
1.87078
-0.855234
-0.854231
-0.849675
-0.811936
-0.75167
-0.679816
-0.60093
-0.51544
-0.425058
-0.314335
-0.200863
-0.115786
0.130166
0.454186
0.779747
1.05994
1.28286
1.42313
1.49075
1.51331
-0.821812
-0.824198
-0.816694
-0.783591
-0.725602
-0.656395
-0.58019
-0.497414
-0.412629
-0.319807
-0.214046
-0.149921
0.0156674
0.262945
0.518609
0.726486
0.889767
1.00259
1.05771
1.07616
-0.772594
-0.775766
-0.771017
-0.745775
-0.692973
-0.629371
-0.559666
-0.484765
-0.408815
-0.332352
-0.237617
-0.179419
-0.0794711
0.108221
0.316202
0.472311
0.591128
0.678322
0.718137
0.726514
-0.703144
-0.705651
-0.703839
-0.687205
-0.645847
-0.594357
-0.536267
-0.472758
-0.406204
-0.341034
-0.259933
-0.204618
-0.150412
-0.011756
0.145937
0.256066
0.340071
0.401347
0.428935
0.437444
-0.619113
-0.620874
-0.620303
-0.609716
-0.582923
-0.54776
-0.504479
-0.45524
-0.398281
-0.344073
-0.276466
-0.227601
-0.196813
-0.0939075
0.0186133
0.0929505
0.152125
0.197826
0.214505
0.218715
-0.533966
-0.535156
-0.534843
-0.529087
-0.514841
-0.494261
-0.465008
-0.431827
-0.385323
-0.343408
-0.289767
-0.250984
-0.231894
-0.155552
-0.0732627
-0.0216801
0.0212546
0.0526238
0.0701639
0.0764168
-0.461232
-0.462301
-0.46279
-0.460845
-0.454853
-0.444257
-0.427244
-0.407323
-0.371963
-0.33957
-0.297587
-0.269268
-0.254945
-0.203244
-0.141197
-0.102726
-0.070368
-0.0497043
-0.03913
-0.0347802
-0.411718
-0.412166
-0.412873
-0.413214
-0.411785
-0.407457
-0.398166
-0.386189
-0.361967
-0.333695
-0.296738
-0.275547
-0.259485
-0.226566
-0.186537
-0.158157
-0.137012
-0.125379
-0.121383
-0.120856
-0.383464
-0.383631
-0.384272
-0.385433
-0.386214
-0.385028
-0.379852
-0.371511
-0.354446
-0.326976
-0.289975
-0.267204
-0.252959
-0.233034
-0.208899
-0.193455
-0.183218
-0.177481
-0.176109
-0.17849
-0.373316
-0.37318
-0.373425
-0.374346
-0.375357
-0.374666
-0.370965
-0.362628
-0.347947
-0.324114
-0.288329
-0.25507
-0.242837
-0.230898
-0.218231
-0.215272
-0.212969
-0.216301
-0.218666
-0.220695
-0.378506
-0.378126
-0.377959
-0.37836
-0.378893
-0.376886
-0.373713
-0.365703
-0.350279
-0.330223
-0.290067
-0.256289
-0.236562
-0.240482
-0.235144
-0.238429
-0.238881
-0.245824
-0.250606
-0.250988
-0.397521
-0.396466
-0.39596
-0.395813
-0.395559
-0.393793
-0.391188
-0.384359
-0.373608
-0.353619
-0.312283
-0.278173
-0.255104
-0.268938
-0.255153
-0.251266
-0.247633
-0.239353
-0.240281
-0.241285
-0.427969
-0.427269
-0.426545
-0.425856
-0.425499
-0.424512
-0.424134
-0.421395
-0.41945
-0.404961
-0.371402
-0.327188
-0.314208
-0.314889
-0.286546
-0.257872
-0.232562
-0.209044
-0.198667
-0.209142
-0.46604
-0.465651
-0.465596
-0.46567
-0.466366
-0.468183
-0.47315
-0.480518
-0.493211
-0.495572
-0.468577
-0.401318
-0.379336
-0.36099
-0.324325
-0.287751
-0.253809
-0.23186
-0.2165
-0.22623
-0.508593
-0.508486
-0.509021
-0.510565
-0.514051
-0.521392
-0.536102
-0.561041
-0.595569
-0.631883
-0.612452
-0.512558
-0.452635
-0.414838
-0.374934
-0.339539
-0.302305
-0.293771
-0.284648
-0.285123
-0.54821
-0.548716
-0.550386
-0.553886
-0.561338
-0.576526
-0.605687
-0.655666
-0.727078
-0.814042
-0.808688
-0.676871
-0.582123
-0.514077
-0.452263
-0.398556
-0.347739
-0.333821
-0.344013
-0.342583
-0.573316
-0.574729
-0.578013
-0.583893
-0.595755
-0.61923
-0.665351
-0.744633
-0.871963
-1.00527
-1.02803
-0.873121
-0.751549
-0.645279
-0.544587
-0.47277
-0.445939
-0.421047
-0.425975
-0.426314
-0.571701
-0.573418
-0.577136
-0.586592
-0.603815
-0.629116
-0.688785
-0.79042
-0.949618
-1.11527
-1.23934
-1.02468
-0.873445
-0.728183
-0.623319
-0.553019
-0.530403
-0.531363
-0.524855
-0.523374
-0.536407
-0.538781
-0.542076
-0.549587
-0.566998
-0.599803
-0.661039
-0.767286
-0.937523
-1.14254
-1.22609
-1.05487
-0.875284
-0.736277
-0.649267
-0.612672
-0.577615
-0.585262
-0.580316
-0.578884
-0.468773
-0.470829
-0.474285
-0.480718
-0.495222
-0.524884
-0.579726
-0.676277
-0.828562
-1.00664
-1.06662
-0.917269
-0.752883
-0.683453
-0.63909
-0.602006
-0.605112
-0.598572
-0.593881
-0.591389
-0.377653
-0.379018
-0.381498
-0.386389
-0.396777
-0.418645
-0.459997
-0.533433
-0.647351
-0.773914
-0.812046
-0.694435
-0.597031
-0.583101
-0.577659
-0.560085
-0.565988
-0.561247
-0.556967
-0.553667
-0.277595
-0.278309
-0.27945
-0.28179
-0.287622
-0.300783
-0.32648
-0.37296
-0.444621
-0.525196
-0.542353
-0.456866
-0.447939
-0.461929
-0.472284
-0.495931
-0.485735
-0.482381
-0.479593
-0.478036
-0.184067
-0.184216
-0.184353
-0.184598
-0.186443
-0.191979
-0.203664
-0.225838
-0.259534
-0.304551
-0.296794
-0.270679
-0.315934
-0.338678
-0.365393
-0.386899
-0.380198
-0.379502
-0.379463
-0.378253
-0.106833
-0.106525
-0.106101
-0.105163
-0.104596
-0.10521
-0.107406
-0.112716
-0.117861
-0.121184
-0.125308
-0.155796
-0.188571
-0.229054
-0.25948
-0.270354
-0.270329
-0.272043
-0.27184
-0.27151
-0.0516244
-0.0511366
-0.0506128
-0.0494159
-0.0480724
-0.0465164
-0.0440903
-0.0409884
-0.033782
-0.0144709
-0.0294322
-0.0785041
-0.107903
-0.141107
-0.162475
-0.166989
-0.170664
-0.172115
-0.172451
-0.172717
-0.0168177
-0.0163117
-0.015954
-0.0152147
-0.0140667
-0.0125789
-0.0100746
-0.00636601
0.000252703
0.0148387
0.00799815
-0.0284991
-0.0516483
-0.0680567
-0.0850286
-0.0900625
-0.0895921
-0.0896575
-0.0898758
-0.090249
0.000159028
0.000414891
0.000451825
0.000448503
0.000909039
0.00132413
0.00243912
0.00470897
0.00801519
0.0138615
0.00921257
-0.00592561
-0.014382
-0.0205499
-0.0223436
-0.0224395
-0.0230511
-0.0233937
-0.0236696
-0.0239302
-1.48269
-0.603904
-0.330765
-0.0431052
0.150816
0.318626
0.45933
0.6022
0.754776
0.831705
-0.468922
-0.0435809
-0.0168746
0.178719
0.313894
0.434645
0.539618
0.632005
0.662826
0.618594
-0.066323
0.15807
0.201315
0.341846
0.435469
0.521471
0.592444
0.645309
0.649575
0.661856
0.176683
0.329448
0.365986
0.475078
0.534139
0.596454
0.643974
0.677673
0.687706
0.710755
0.366939
0.471618
0.501805
0.575955
0.620448
0.664735
0.698438
0.723446
0.733932
0.764953
0.513412
0.586335
0.616869
0.663189
0.700278
0.731917
0.757264
0.778316
0.793037
0.820927
0.636281
0.688944
0.715228
0.744802
0.773678
0.798279
0.818885
0.838419
0.853629
0.879886
0.742165
0.780733
0.80231
0.823734
0.845421
0.865411
0.88314
0.901494
0.916465
0.94006
0.837912
0.86707
0.884424
0.90023
0.916917
0.933345
0.94909
0.966196
0.979795
1.0021
0.927091
0.94804
0.963281
0.97676
0.990622
1.00461
1.01819
1.03283
1.04437
1.06403
1.01355
1.02946
1.04346
1.05548
1.06755
1.07925
1.09039
1.1021
1.10976
1.12657
1.09916
1.11212
1.12594
1.13763
1.14821
1.15796
1.16674
1.17498
1.17855
1.18984
1.18856
1.19955
1.21303
1.22225
1.22968
1.23686
1.24406
1.25063
1.25163
1.25907
1.28702
1.29175
1.29979
1.30428
1.30755
1.31202
1.31802
1.32579
1.32961
1.3395
1.40034
1.38662
1.37918
1.37355
1.37088
1.37228
1.37879
1.3912
1.40595
1.4356
1.52121
1.4655
1.43464
1.41757
1.40943
1.40943
1.4181
1.43759
1.46962
1.5388
)
;

boundaryField
{
    wall-4
    {
        type            zeroGradient;
    }
    pressure-outlet-7
    {
        type            fixedValue;
        value           uniform 0;
    }
    velocity-inlet-6
    {
        type            zeroGradient;
    }
    velocity-inlet-5
    {
        type            zeroGradient;
    }
    frontAndBackPlanes
    {
        type            empty;
    }
}


// ************************************************************************* //
