/*--------------------------------*- C++ -*----------------------------------*\
  =========                 |
  \\      /  F ield         | OpenFOAM: The Open Source CFD Toolbox
   \\    /   O peration     | Website:  https://openfoam.org
    \\  /    A nd           | Version:  9
     \\/     M anipulation  |
\*---------------------------------------------------------------------------*/
FoamFile
{
    format      ascii;
    class       volVectorField;
    location    "26";
    object      U;
}
// * * * * * * * * * * * * * * * * * * * * * * * * * * * * * * * * * * * * * //

dimensions      [0 1 -1 0 0 0 0];

internalField   nonuniform List<vector> 
2200
(
(0.878848 -0.030412 0)
(1.00578 -0.0512864 0)
(1.00321 -0.0353973 0)
(1.00016 -0.0244385 0)
(0.999768 -0.0166898 0)
(0.999955 -0.0107703 0)
(1.00001 -0.00686498 0)
(1.00004 -0.00422076 0)
(1.00003 -0.00226063 0)
(1.00016 -0.000686603 0)
(1.00006 0.000931008 0)
(1.00002 0.00252189 0)
(1.00006 0.00445983 0)
(1.00001 0.00709763 0)
(0.999994 0.0109402 0)
(0.999756 0.0167772 0)
(1.00015 0.0245172 0)
(1.00333 0.0353366 0)
(1.00583 0.0513258 0)
(0.878901 0.030413 0)
(0.711998 -0.0327611 0)
(0.996642 -0.0630017 0)
(1.03341 -0.056147 0)
(1.02497 -0.0463595 0)
(1.01592 -0.0359662 0)
(1.00975 -0.0261652 0)
(1.00597 -0.0179463 0)
(1.00368 -0.0113606 0)
(1.00242 -0.00613349 0)
(1.00197 -0.00176615 0)
(1.00192 0.00250573 0)
(1.00241 0.00684913 0)
(1.00359 0.0119941 0)
(1.00589 0.0184384 0)
(1.00955 0.0266117 0)
(1.01578 0.036446 0)
(1.02487 0.0467681 0)
(1.03314 0.0568124 0)
(0.996526 0.06315 0)
(0.711726 0.0328609 0)
(0.535568 -0.0238846 0)
(0.969922 -0.0569323 0)
(1.05642 -0.0547215 0)
(1.05236 -0.0488588 0)
(1.03642 -0.0405233 0)
(1.02439 -0.0323276 0)
(1.01571 -0.0241978 0)
(1.01031 -0.0163184 0)
(1.00735 -0.0090059 0)
(1.00599 -0.0024822 0)
(1.00599 0.00374834 0)
(1.00721 0.0101737 0)
(1.01014 0.0173072 0)
(1.01536 0.0250842 0)
(1.02415 0.0330542 0)
(1.03624 0.0410991 0)
(1.05211 0.0493814 0)
(1.05628 0.0542221 0)
(0.96932 0.0573784 0)
(0.534736 0.0238952 0)
(0.392362 -0.0136319 0)
(0.911701 -0.0463187 0)
(1.05744 -0.0469212 0)
(1.06944 -0.0442862 0)
(1.05494 -0.0383559 0)
(1.03943 -0.0318701 0)
(1.02748 -0.0249625 0)
(1.01888 -0.0177227 0)
(1.01341 -0.0102643 0)
(1.01086 -0.00274781 0)
(1.01072 0.00467412 0)
(1.01309 0.0120318 0)
(1.01845 0.0192559 0)
(1.02714 0.0262773 0)
(1.03892 0.0330188 0)
(1.05431 0.0392757 0)
(1.06865 0.0451055 0)
(1.05618 0.0478159 0)
(0.910436 0.0466187 0)
(0.390824 0.0137316 0)
(0.308105 -0.0044478 0)
(0.847094 -0.0322314 0)
(1.0493 -0.0396348 0)
(1.079 -0.0378558 0)
(1.06769 -0.0332808 0)
(1.05155 -0.0278574 0)
(1.03841 -0.0225476 0)
(1.0282 -0.016572 0)
(1.02104 -0.00980712 0)
(1.0172 -0.00246326 0)
(1.01702 0.00494758 0)
(1.02055 0.0122083 0)
(1.02756 0.0188142 0)
(1.03749 0.0245869 0)
(1.05047 0.029474 0)
(1.06655 0.034691 0)
(1.07766 0.038969 0)
(1.0477 0.0407232 0)
(0.844549 0.0325946 0)
(0.305584 0.00458139 0)
(0.264931 0.000122217 0)
(0.789507 -0.0199562 0)
(1.03354 -0.031347 0)
(1.08334 -0.0318481 0)
(1.07677 -0.028394 0)
(1.06028 -0.0234548 0)
(1.04708 -0.0192786 0)
(1.03646 -0.0143828 0)
(1.02871 -0.00857026 0)
(1.02429 -0.00182231 0)
(1.0241 0.00520129 0)
(1.02815 0.0117166 0)
(1.03549 0.0171431 0)
(1.04573 0.0215434 0)
(1.05884 0.0255609 0)
(1.07524 0.0301466 0)
(1.08148 0.0332129 0)
(1.03089 0.0324825 0)
(0.785401 0.020403 0)
(0.261468 1.50001e-07 0)
(0.241143 0.00104348 0)
(0.738992 -0.0121315 0)
(1.01385 -0.0247695 0)
(1.0841 -0.0266054 0)
(1.08279 -0.0242073 0)
(1.06735 -0.0200191 0)
(1.05376 -0.0160354 0)
(1.043 -0.0118071 0)
(1.03487 -0.00696402 0)
(1.03001 -0.00116051 0)
(1.02961 0.00529114 0)
(1.03373 0.0107729 0)
(1.04134 0.015212 0)
(1.05208 0.0191375 0)
(1.06538 0.0226262 0)
(1.08044 0.026353 0)
(1.08124 0.0283639 0)
(1.0097 0.0260379 0)
(0.732983 0.0126647 0)
(0.2366 -0.00091534 0)
(0.227327 0.00102178 0)
(0.697589 -0.00765425 0)
(0.993597 -0.0197833 0)
(1.08223 -0.0221881 0)
(1.08667 -0.0205601 0)
(1.07282 -0.0172125 0)
(1.05917 -0.0136212 0)
(1.0484 -0.00964813 0)
(1.04042 -0.00519147 0)
(1.03559 -4.36766e-05 0)
(1.03511 0.0056079 0)
(1.03909 0.0104037 0)
(1.04648 0.0142812 0)
(1.05642 0.0176153 0)
(1.06984 0.0205264 0)
(1.08339 0.0233907 0)
(1.07823 0.0244645 0)
(0.987564 0.02138 0)
(0.689271 0.00832868 0)
(0.221526 -0.000878538 0)
(0.218567 0.000763035 0)
(0.663879 -0.00515447 0)
(0.973782 -0.0164853 0)
(1.07867 -0.0190208 0)
(1.08895 -0.0178126 0)
(1.07682 -0.0150554 0)
(1.06333 -0.0118491 0)
(1.05287 -0.00808909 0)
(1.04529 -0.00384517 0)
(1.04076 0.000906942 0)
(1.0401 0.0057477 0)
(1.04343 0.0100338 0)
(1.05008 0.0136937 0)
(1.05996 0.0165751 0)
(1.07318 0.0194497 0)
(1.08443 0.0215161 0)
(1.07282 0.0219189 0)
(0.96507 0.0184818 0)
(0.652461 0.00602535 0)
(0.211104 -0.000566397 0)
(0.212434 0.000356077 0)
(0.636796 -0.00352311 0)
(0.955573 -0.0136304 0)
(1.07526 -0.0163009 0)
(1.09111 -0.0153948 0)
(1.08027 -0.0131176 0)
(1.06655 -0.0101728 0)
(1.05608 -0.00657076 0)
(1.04854 -0.00243013 0)
(1.04402 0.00209074 0)
(1.04304 0.00631221 0)
(1.0459 0.0103245 0)
(1.05212 0.0135218 0)
(1.06205 0.0164178 0)
(1.07507 0.0181458 0)
(1.08496 0.0194576 0)
(1.0675 0.0196671 0)
(0.944331 0.0159751 0)
(0.622295 0.00450225 0)
(0.203136 -0.000134442 0)
(0.208386 0.000122339 0)
(0.617635 -0.00186421 0)
(0.940661 -0.0100069 0)
(1.07261 -0.0124975 0)
(1.09352 -0.0117129 0)
(1.08375 -0.00993634 0)
(1.06983 -0.00763746 0)
(1.05888 -0.00463999 0)
(1.05083 -0.00105214 0)
(1.04583 0.00317669 0)
(1.0446 0.00719106 0)
(1.04751 0.0107493 0)
(1.05401 0.0134129 0)
(1.06354 0.0152774 0)
(1.07678 0.0164358 0)
(1.08558 0.017388 0)
(1.06208 0.0170961 0)
(0.924757 0.0129951 0)
(0.59829 0.00317291 0)
(0.196465 0.000176458 0)
(0.20615 -1.54286e-05 0)
(0.605099 -0.000585349 0)
(0.927528 -0.0063011 0)
(1.06998 -0.00860299 0)
(1.09604 -0.00797329 0)
(1.0873 -0.00619701 0)
(1.07362 -0.00397887 0)
(1.06251 -0.0014175 0)
(1.0539 0.00144142 0)
(1.04823 0.00483832 0)
(1.04671 0.00818833 0)
(1.04969 0.0106499 0)
(1.0564 0.012202 0)
(1.0663 0.0130758 0)
(1.07902 0.0142613 0)
(1.08574 0.014631 0)
(1.0564 0.0137435 0)
(0.907935 0.00966102 0)
(0.581652 0.00209466 0)
(0.191402 0.000297893 0)
(0.205791 -0.000130953 0)
(0.598965 0.00033293 0)
(0.918915 -0.00287412 0)
(1.0681 -0.00498475 0)
(1.09843 -0.00445091 0)
(1.09092 -0.00278597 0)
(1.07774 -0.000794652 0)
(1.0669 0.00144854 0)
(1.05839 0.00401353 0)
(1.05253 0.00668392 0)
(1.05049 0.00932382 0)
(1.05267 0.0109016 0)
(1.05843 0.0118776 0)
(1.06751 0.0126535 0)
(1.07961 0.0126285 0)
(1.0849 0.0126498 0)
(1.0499 0.0114363 0)
(0.892858 0.00726514 0)
(0.569355 0.00156295 0)
(0.187229 0.000319802 0)
(0.206623 -1.41155e-05 0)
(0.598028 0.00103902 0)
(0.912713 -0.000555625 0)
(1.06633 -0.00222241 0)
(1.10042 -0.00170749 0)
(1.09383 -9.27302e-05 0)
(1.08072 0.00186827 0)
(1.06984 0.00414041 0)
(1.06139 0.00668462 0)
(1.05545 0.00910098 0)
(1.05282 0.0113947 0)
(1.05408 0.012484 0)
(1.059 0.0129475 0)
(1.06735 0.0129468 0)
(1.07892 0.0121912 0)
(1.08268 0.011563 0)
(1.04276 0.00990668 0)
(0.880128 0.00582597 0)
(0.560417 0.0014793 0)
(0.18383 0.000340951 0)
(0.209102 0.000355735 0)
(0.599101 0.00143026 0)
(0.909921 0.00151431 0)
(1.06544 0.000745281 0)
(1.10181 0.00152766 0)
(1.09578 0.00285884 0)
(1.08251 0.00452194 0)
(1.07124 0.00661041 0)
(1.0624 0.0090544 0)
(1.05606 0.0114362 0)
(1.05289 0.0134604 0)
(1.05371 0.0141857 0)
(1.05843 0.0140893 0)
(1.06651 0.0135291 0)
(1.07753 0.012377 0)
(1.07999 0.0113918 0)
(1.03613 0.00930354 0)
(0.869269 0.00519351 0)
(0.552433 0.00156258 0)
(0.180344 0.000360206 0)
(0.212445 0.00045567 0)
(0.602435 0.00204318 0)
(0.910621 0.00338614 0)
(1.06563 0.00320685 0)
(1.10376 0.00423709 0)
(1.09811 0.00578315 0)
(1.08479 0.00754707 0)
(1.07319 0.00980847 0)
(1.06379 0.0122512 0)
(1.05665 0.0147141 0)
(1.05258 0.0164696 0)
(1.05252 0.0168789 0)
(1.05675 0.0162244 0)
(1.06452 0.0149184 0)
(1.07468 0.013367 0)
(1.07543 0.0115178 0)
(1.02801 0.00865927 0)
(0.858552 0.00474773 0)
(0.545092 0.00164837 0)
(0.176935 0.000363902 0)
(0.218148 0.000562813 0)
(0.610749 0.0027731 0)
(0.914212 0.00491952 0)
(1.06761 0.00576997 0)
(1.1062 0.0068538 0)
(1.10122 0.00837352 0)
(1.0882 0.0103895 0)
(1.07671 0.0130057 0)
(1.06697 0.0157379 0)
(1.05898 0.0184805 0)
(1.05372 0.0200576 0)
(1.05233 0.0201903 0)
(1.05543 0.0190466 0)
(1.0623 0.0171923 0)
(1.0715 0.0150257 0)
(1.07079 0.0127029 0)
(1.02066 0.00946949 0)
(0.849353 0.00535973 0)
(0.537626 0.00204553 0)
(0.173051 0.000418925 0)
(0.223391 0.000635822 0)
(0.617855 0.00309046 0)
(0.918675 0.00601461 0)
(1.0701 0.00729825 0)
(1.10927 0.008713 0)
(1.10488 0.0107085 0)
(1.09217 0.0132802 0)
(1.08071 0.0165616 0)
(1.07063 0.0200555 0)
(1.06185 0.0234195 0)
(1.05522 0.0250921 0)
(1.0524 0.0251318 0)
(1.05388 0.0237079 0)
(1.05948 0.0214978 0)
(1.06706 0.0186306 0)
(1.06414 0.015026 0)
(1.01041 0.0107306 0)
(0.837288 0.00622777 0)
(0.528139 0.00260105 0)
(0.168169 0.000521313 0)
(0.231706 0.000841938 0)
(0.631367 0.00407981 0)
(0.92777 0.00816989 0)
(1.07438 0.0104084 0)
(1.11254 0.0119271 0)
(1.10879 0.0139078 0)
(1.09642 0.0170232 0)
(1.08474 0.0210116 0)
(1.07388 0.0252613 0)
(1.06369 0.0292179 0)
(1.0553 0.0310972 0)
(1.05114 0.0309502 0)
(1.05118 0.0290172 0)
(1.05549 0.0258864 0)
(1.06108 0.0223522 0)
(1.05624 0.017916 0)
(1.00054 0.0130041 0)
(0.826737 0.00784977 0)
(0.517864 0.00332462 0)
(0.162211 0.000646495 0)
(0.240274 0.00112893 0)
(0.643857 0.00490789 0)
(0.937148 0.00992973 0)
(1.07962 0.0130998 0)
(1.11654 0.0155686 0)
(1.11344 0.0185444 0)
(1.10152 0.02258 0)
(1.08951 0.0273693 0)
(1.07759 0.0324091 0)
(1.06577 0.036767 0)
(1.05565 0.038538 0)
(1.04965 0.0377005 0)
(1.04784 0.0350739 0)
(1.05032 0.0312779 0)
(1.05373 0.0268284 0)
(1.04578 0.0210936 0)
(0.986251 0.0149859 0)
(0.809982 0.0090797 0)
(0.503158 0.00397042 0)
(0.154429 0.000766556 0)
(0.253324 0.00144419 0)
(0.663726 0.00674812 0)
(0.951782 0.0133822 0)
(1.08757 0.0179269 0)
(1.12228 0.0211461 0)
(1.1198 0.0249412 0)
(1.10819 0.0297607 0)
(1.09557 0.0355468 0)
(1.08215 0.0412731 0)
(1.06796 0.0457148 0)
(1.05512 0.0471603 0)
(1.04687 0.0455545 0)
(1.04333 0.0418504 0)
(1.04369 0.0366723 0)
(1.04463 0.0308624 0)
(1.03409 0.0243146 0)
(0.972987 0.0175889 0)
(0.796669 0.0110846 0)
(0.489023 0.00478764 0)
(0.145974 0.000872907 0)
(0.26867 0.00198626 0)
(0.687137 0.00820157 0)
(0.970279 0.0169965 0)
(1.09911 0.0232136 0)
(1.13078 0.0282758 0)
(1.12806 0.0335177 0)
(1.1161 0.0400042 0)
(1.10239 0.0467569 0)
(1.08708 0.0531004 0)
(1.07046 0.0574808 0)
(1.0552 0.0581074 0)
(1.04442 0.0548493 0)
(1.03805 0.049589 0)
(1.03572 0.0433781 0)
(1.03393 0.0363553 0)
(1.02002 0.0287655 0)
(0.954479 0.0208199 0)
(0.773341 0.0130673 0)
(0.467104 0.00566644 0)
(0.134686 0.00103447 0)
(0.290263 0.00282897 0)
(0.718754 0.0120414 0)
(0.994726 0.0228677 0)
(1.11428 0.0314009 0)
(1.14181 0.0377797 0)
(1.13845 0.0453882 0)
(1.12556 0.0530502 0)
(1.10995 0.060859 0)
(1.09192 0.0675692 0)
(1.07184 0.0712815 0)
(1.0527 0.07044 0)
(1.03877 0.0656389 0)
(1.03055 0.0587795 0)
(1.02595 0.0507451 0)
(1.0215 0.0422339 0)
(1.00485 0.0334003 0)
(0.937091 0.0246078 0)
(0.755367 0.0159725 0)
(0.447581 0.00687633 0)
(0.123131 0.00112838 0)
(0.320595 0.00390682 0)
(0.761478 0.0149014 0)
(1.02667 0.0301541 0)
(1.13519 0.0412944 0)
(1.15783 0.0509965 0)
(1.15178 0.060779 0)
(1.1363 0.0703789 0)
(1.11764 0.0792151 0)
(1.09616 0.0857697 0)
(1.07247 0.0884619 0)
(1.05027 0.0858615 0)
(1.03346 0.0787221 0)
(1.02165 0.0694777 0)
(1.01402 0.0598591 0)
(1.00699 0.0499584 0)
(0.986924 0.0401306 0)
(0.913219 0.0297941 0)
(0.722361 0.019021 0)
(0.414594 0.00784763 0)
(0.107068 0.00127768 0)
(0.357217 0.00778522 0)
(0.814136 0.024629 0)
(1.06767 0.0426134 0)
(1.16211 0.0579003 0)
(1.17722 0.0690816 0)
(1.16746 0.0822905 0)
(1.14814 0.0932223 0)
(1.12553 0.102206 0)
(1.09971 0.108018 0)
(1.07132 0.108893 0)
(1.04421 0.103512 0)
(1.02346 0.0935453 0)
(1.01012 0.0823927 0)
(1.00058 0.0706899 0)
(0.990687 0.0590618 0)
(0.966997 0.0473187 0)
(0.888615 0.0353545 0)
(0.695913 0.0228848 0)
(0.388425 0.0096111 0)
(0.0926807 0.00120259 0)
(0.440403 0.0114351 0)
(0.894867 0.0348551 0)
(1.12157 0.0623051 0)
(1.19502 0.081186 0)
(1.20255 0.096373 1.24483e-34)
(1.18547 0.112079 -7.09429e-35)
(1.16068 0.122878 0)
(1.13282 0.131074 0)
(1.10183 0.13501 0)
(1.06871 0.132926 0)
(1.03806 0.124165 0)
(1.01461 0.111573 0)
(0.997014 0.09748 0)
(0.984046 0.0838716 0)
(0.971696 0.0706965 0)
(0.943638 0.0578066 0)
(0.856552 0.0436643 0)
(0.648697 0.0279355 0)
(0.337843 0.010018 0)
(0.0700486 0.000938876 0)
(0.508496 0.0263997 -2.22643e-21)
(0.987249 0.0591115 1.11902e-21)
(1.17987 0.0947549 0)
(1.23086 0.117005 3.35905e-21)
(1.22867 0.135628 -2.72172e-21)
(1.20314 0.150887 7.48483e-35)
(1.17221 0.160543 0)
(1.13836 0.167102 5.85059e-21)
(1.10165 0.168581 -2.05392e-20)
(1.06283 0.163511 4.45477e-21)
(1.02645 0.15156 0)
(0.997729 0.134798 -1.389e-20)
(0.978271 0.118469 -1.72492e-20)
(0.963251 0.102593 3.03023e-20)
(0.946173 0.0874446 -2.42973e-20)
(0.910158 0.07162 0)
(0.809359 0.0540544 -9.23756e-21)
(0.587464 0.0340471 0)
(0.286962 0.0139907 -5.00448e-20)
(0.0521342 0.00159553 5.91872e-20)
(0.539281 0.0548411 -5.01419e-22)
(1.04239 0.102146 -3.03332e-20)
(1.22462 0.14615 1.01157e-20)
(1.26345 0.165388 9.38926e-21)
(1.25229 0.184 -5.11291e-21)
(1.21876 0.197211 9.01915e-21)
(1.18143 0.20504 0)
(1.1413 0.209652 0)
(1.09858 0.208534 3.23001e-20)
(1.05371 0.200279 0)
(1.01171 0.184257 4.81701e-20)
(0.978939 0.165988 1.49024e-20)
(0.953165 0.147917 3.30017e-22)
(0.932077 0.130758 -3.38722e-20)
(0.911821 0.114554 0)
(0.872368 0.0986744 0)
(0.768791 0.0763725 -1.55061e-19)
(0.554463 0.0521056 3.8858e-19)
(0.273565 0.0225126 -2.30769e-19)
(0.0498866 0.00494023 -2.73337e-19)
(0.543087 0.0780575 6.48742e-20)
(1.07275 0.159701 -1.85755e-20)
(1.25786 0.207825 -4.31249e-21)
(1.2896 0.224685 -1.92372e-20)
(1.27075 0.240558 1.3791e-20)
(1.23066 0.249796 -1.89345e-20)
(1.18746 0.254264 1.01336e-20)
(1.14142 0.255772 0)
(1.09281 0.251363 -6.72821e-20)
(1.0418 0.240043 7.14003e-20)
(0.994704 0.222168 -1.31434e-19)
(0.957224 0.201729 6.36899e-20)
(0.929052 0.181663 -4.60483e-20)
(0.906477 0.163378 1.01237e-19)
(0.881817 0.146294 0)
(0.839521 0.12908 -3.93765e-20)
(0.73979 0.106462 0)
(0.541883 0.0726078 2.21887e-19)
(0.277514 0.0376343 -5.26646e-19)
(0.0602972 0.00795831 3.30338e-19)
(0.532476 0.110296 -3.20087e-19)
(1.08763 0.217924 1.27262e-19)
(1.27772 0.274109 2.02874e-20)
(1.30718 0.289189 0)
(1.28314 0.301855 8.20128e-21)
(1.23813 0.306307 -7.59669e-21)
(1.18995 0.306735 -1.07664e-20)
(1.1387 0.304468 0)
(1.08477 0.296393 4.75652e-20)
(1.02852 0.281341 -4.92584e-20)
(0.975817 0.259693 1.15494e-19)
(0.932747 0.235446 0)
(0.89951 0.214685 -9.72033e-20)
(0.872339 0.196583 5.36701e-20)
(0.848514 0.180208 1.4451e-19)
(0.810113 0.163664 -1.27196e-19)
(0.718547 0.138505 2.08968e-19)
(0.53698 0.0996025 -4.63641e-19)
(0.291299 0.0546519 2.93895e-19)
(0.0725263 0.0139485 -3.6822e-19)
(0.517271 0.134487 2.02274e-19)
(1.0919 0.272988 -1.49192e-19)
(1.28786 0.34119 6.31746e-20)
(1.3163 0.354691 -8.36927e-20)
(1.28864 0.364363 5.36497e-20)
(1.24036 0.364341 -7.17967e-21)
(1.18834 0.360854 3.65034e-21)
(1.13275 0.35463 -3.64617e-20)
(1.07412 0.342627 -4.81342e-20)
(1.0131 0.323983 -1.06125e-19)
(0.956427 0.299192 -2.49222e-19)
(0.912335 0.274985 -8.27778e-20)
(0.879379 0.253794 2.59271e-21)
(0.85345 0.234957 -1.92499e-19)
(0.825171 0.21685 -6.34621e-21)
(0.78427 0.19705 1.86829e-19)
(0.698016 0.169437 -5.79084e-20)
(0.532143 0.12649 -3.37098e-20)
(0.301954 0.0729471 0)
(0.0815554 0.0202098 7.90385e-19)
(0.49819 0.155504 0)
(1.08317 0.322897 4.72293e-20)
(1.28957 0.404885 3.23054e-20)
(1.31909 0.41851 -1.22969e-20)
(1.28895 0.426203 -6.75301e-20)
(1.23825 0.422169 8.83167e-21)
(1.18324 0.415058 8.41948e-21)
(1.12438 0.404905 6.36921e-20)
(1.06239 0.388921 -2.85002e-20)
(0.997785 0.366258 4.75178e-20)
(0.93743 0.33767 1.34438e-19)
(0.888132 0.309618 1.82988e-19)
(0.849607 0.284758 -1.13862e-19)
(0.81871 0.263855 2.09096e-19)
(0.79606 0.246368 -1.67671e-19)
(0.763121 0.229853 0)
(0.686734 0.201596 -4.43146e-19)
(0.532417 0.154219 5.95827e-19)
(0.310114 0.091047 4.49598e-20)
(0.0876206 0.026182 -8.38943e-19)
(0.483361 0.176308 -5.37513e-21)
(1.07455 0.372085 -3.2446e-19)
(1.2867 0.46632 -2.43664e-19)
(1.31696 0.480136 2.00002e-19)
(1.28471 0.486145 -3.78956e-20)
(1.23229 0.47864 1.72908e-20)
(1.17507 0.468249 5.24875e-21)
(1.11367 0.454453 -9.46826e-21)
(1.04853 0.434867 -1.03229e-19)
(0.980001 0.408546 5.22224e-22)
(0.916397 0.377258 -1.4693e-19)
(0.86714 0.346761 -1.95661e-19)
(0.832324 0.32196 1.2788e-19)
(0.806986 0.302391 -7.52632e-20)
(0.77824 0.284034 1.82673e-19)
(0.740239 0.261276 0)
(0.66589 0.231382 -2.75165e-19)
(0.522037 0.179786 4.06904e-19)
(0.311295 0.107134 7.774e-19)
(0.0898825 0.0314206 -9.12502e-19)
(0.468261 0.19392 -6.23488e-19)
(1.06029 0.416639 3.14435e-19)
(1.27969 0.523939 2.39489e-19)
(1.31121 0.538763 -2.17564e-19)
(1.27728 0.543756 1.12458e-20)
(1.22359 0.533171 5.18171e-20)
(1.16468 0.51983 -9.45551e-21)
(1.10116 0.5027 -2.40024e-20)
(1.03348 0.479701 -6.28053e-20)
(0.962485 0.449644 1.0746e-19)
(0.896687 0.413928 1.40369e-19)
(0.845382 0.38018 3.07374e-19)
(0.805813 0.352669 0)
(0.772742 0.328376 5.64836e-21)
(0.750571 0.30772 -5.07425e-19)
(0.721146 0.29111 1.16834e-19)
(0.654838 0.259542 5.92196e-19)
(0.514857 0.203708 -1.74128e-19)
(0.304706 0.121732 3.68501e-19)
(0.0884229 0.0342536 -3.0778e-20)
(0.459112 0.212976 6.13247e-21)
(1.04879 0.460607 2.93482e-19)
(1.27057 0.57914 1.83472e-19)
(1.30267 0.594691 -3.94608e-19)
(1.26717 0.598471 2.4248e-19)
(1.21261 0.58518 -6.74325e-20)
(1.15237 0.569338 6.67028e-21)
(1.0872 0.549299 5.74917e-20)
(1.01748 0.523246 1.13805e-19)
(0.944273 0.490027 -1.35643e-19)
(0.876405 0.451267 0)
(0.823378 0.415317 -1.20581e-19)
(0.785572 0.384858 1.38438e-19)
(0.760933 0.361321 1.8479e-19)
(0.733359 0.341902 -1.061e-19)
(0.698288 0.316881 -2.67025e-19)
(0.631834 0.284229 -8.09371e-20)
(0.499431 0.221699 -1.21943e-21)
(0.294543 0.131352 0)
(0.0842653 0.036668 0)
(0.450561 0.228492 -3.12688e-19)
(1.03541 0.500813 0)
(1.25937 0.630638 2.11948e-19)
(1.2921 0.647605 -9.87997e-20)
(1.25533 0.650396 -2.50748e-19)
(1.20018 0.634594 6.9561e-20)
(1.13892 0.616547 1.19971e-21)
(1.07243 0.593938 -3.11071e-20)
(1.00101 0.56506 7.481e-20)
(0.925695 0.528388 -5.38645e-20)
(0.855418 0.485715 7.91133e-20)
(0.800582 0.445631 3.774e-19)
(0.761303 0.413394 1.35123e-20)
(0.726312 0.386118 -1.89121e-19)
(0.704973 0.362875 3.6354e-19)
(0.678955 0.342538 4.50634e-21)
(0.618483 0.305108 8.65932e-20)
(0.486185 0.23925 -4.18998e-19)
(0.283111 0.138526 4.25153e-19)
(0.0788698 0.0382838 -5.07486e-19)
(0.444195 0.247495 3.55564e-23)
(1.02382 0.540152 0)
(1.24751 0.679763 0)
(1.28023 0.69791 9.10096e-20)
(1.24238 0.699461 9.99163e-20)
(1.18676 0.681274 -5.47074e-20)
(1.12459 0.661322 2.25851e-20)
(1.05697 0.636495 0)
(0.983938 0.605299 -1.19007e-19)
(0.906069 0.566333 1.97966e-19)
(0.833053 0.521279 2.38762e-19)
(0.777185 0.477684 -1.41808e-19)
(0.736949 0.441629 -1.77004e-19)
(0.713464 0.414024 4.18103e-19)
(0.686559 0.389987 -1.28657e-19)
(0.654107 0.36145 -1.55934e-19)
(0.592699 0.324269 -9.51264e-20)
(0.466145 0.250646 -4.54017e-19)
(0.269551 0.143556 6.4373e-20)
(0.0727612 0.03869 5.50822e-19)
(0.440445 0.266193 -1.25752e-19)
(1.01217 0.576522 -1.98054e-19)
(1.23459 0.725353 2.3575e-20)
(1.26743 0.745201 2.08074e-23)
(1.22881 0.745831 2.91889e-20)
(1.17285 0.725486 -1.53248e-19)
(1.10989 0.703752 0)
(1.04127 0.676963 2.254e-20)
(0.966865 0.643698 -1.77732e-20)
(0.887625 0.601943 3.1582e-19)
(0.81354 0.551829 -5.88006e-20)
(0.755013 0.505387 6.57324e-20)
(0.713133 0.467631 0)
(0.6783 0.433838 -2.28005e-19)
(0.658007 0.405937 2.8309e-19)
(0.634059 0.383488 0)
(0.576501 0.337579 -2.07637e-19)
(0.448075 0.261994 6.07846e-19)
(0.255041 0.146589 7.21103e-20)
(0.0662593 0.038178 -6.81629e-19)
(0.438479 0.283167 -2.80432e-19)
(1.00231 0.611864 3.60019e-19)
(1.22188 0.768717 0)
(1.25434 0.789985 2.28515e-19)
(1.21499 0.789565 0)
(1.15872 0.767195 1.39655e-19)
(1.09503 0.743877 0)
(1.02549 0.715283 0)
(0.949515 0.680198 -4.02293e-20)
(0.8672 0.636318 -3.06403e-19)
(0.787757 0.585978 -4.43872e-19)
(0.727395 0.536495 8.2222e-20)
(0.68727 0.492048 3.05911e-19)
(0.663609 0.45925 2.55772e-19)
(0.638493 0.431235 -9.08393e-19)
(0.607167 0.396094 -3.74048e-19)
(0.547963 0.352867 2.17671e-19)
(0.424684 0.267639 0)
(0.239067 0.147628 6.23896e-19)
(0.0593529 0.0367362 -7.38701e-19)
(0.437073 0.29893 3.10224e-19)
(0.992125 0.644203 -3.96586e-19)
(1.20881 0.80854 0)
(1.24101 0.831676 -1.03362e-20)
(1.20113 0.830703 -9.34117e-20)
(1.14461 0.806692 0)
(1.08027 0.781896 -7.4774e-21)
(1.00979 0.751706 2.5393e-20)
(0.932342 0.715269 -5.64865e-20)
(0.848672 0.670144 3.21999e-20)
(0.769804 0.616217 0)
(0.707877 0.56147 3.30468e-19)
(0.662557 0.517697 4.19896e-21)
(0.62631 0.476502 1.38813e-19)
(0.606796 0.441426 1.66991e-19)
(0.58524 0.413722 0)
(0.529569 0.359231 -3.65454e-19)
(0.404512 0.272914 7.16554e-19)
(0.222487 0.146603 -7.61551e-19)
(0.0526649 0.034469 1.60098e-18)
(0.435966 0.313919 0)
(0.983403 0.67601 0)
(1.19642 0.846567 -2.17551e-19)
(1.22783 0.871097 0)
(1.18735 0.869385 0)
(1.13068 0.843861 2.09385e-19)
(1.06581 0.817818 -1.0756e-20)
(0.994675 0.786289 1.71066e-20)
(0.916323 0.748392 -6.75491e-21)
(0.830898 0.701419 0)
(0.747091 0.644862 -7.07758e-20)
(0.680294 0.5904 -2.73201e-19)
(0.634282 0.539018 -3.40868e-19)
(0.610097 0.497956 -1.40965e-19)
(0.586007 0.462622 1.83397e-19)
(0.556522 0.419645 -4.35129e-19)
(0.499298 0.369807 7.90207e-19)
(0.378422 0.272878 5.88961e-21)
(0.205484 0.143484 -7.35779e-19)
(0.0461815 0.031784 -1.09045e-19)
(0.434749 0.32855 0)
(0.974258 0.705107 -3.10093e-19)
(1.1839 0.881295 2.4332e-19)
(1.21472 0.907516 0)
(1.17384 0.905492 0)
(1.11707 0.878891 -4.65441e-19)
(1.05186 0.851806 0)
(0.980069 0.818959 0)
(0.900145 0.780008 -1.04921e-19)
(0.811791 0.732263 5.81974e-20)
(0.725399 0.675805 -5.7458e-19)
(0.657692 0.616837 0)
(0.610694 0.563675 -3.70685e-19)
(0.570321 0.514043 1.14051e-20)
(0.550705 0.46766 -5.87075e-19)
(0.531635 0.432906 2.35589e-19)
(0.479636 0.366318 3.30584e-21)
(0.359829 0.271099 -8.40982e-19)
(0.19034 0.139127 3.98978e-19)
(0.0411186 0.0292121 1.16663e-19)
(0.433644 0.34272 0)
(0.966546 0.733967 -3.67924e-19)
(1.17214 0.914794 2.59196e-19)
(1.20194 0.942057 5.38082e-19)
(1.16057 0.939357 1.05823e-19)
(1.10382 0.91166 -7.20206e-20)
(1.03832 0.883726 4.28482e-20)
(0.965981 0.84994 -4.30823e-20)
(0.885342 0.810393 1.12236e-19)
(0.796628 0.761829 3.72083e-19)
(0.709302 0.70376 4.76688e-19)
(0.635492 0.64363 9.03094e-20)
(0.578044 0.585914 5.37357e-19)
(0.551194 0.533171 3.46507e-19)
(0.526946 0.487779 4.23587e-19)
(0.499558 0.428936 -2.63095e-19)
(0.447024 0.36944 -3.10183e-19)
(0.333645 0.262574 3.63972e-19)
(0.174425 0.13063 -2.15192e-19)
(0.038182 0.0294501 3.80383e-19)
(0.432426 0.356443 4.85091e-19)
(0.958343 0.760005 5.8411e-19)
(1.16033 0.945226 1.42772e-19)
(1.18944 0.973842 1.61923e-20)
(1.14778 0.970818 -3.70975e-19)
(1.09103 0.942383 1.35108e-19)
(1.02539 0.913802 -4.96217e-20)
(0.952868 0.879286 -2.15027e-20)
(0.871233 0.838684 -1.10812e-19)
(0.779827 0.789714 -4.13102e-19)
(0.686652 0.731022 2.93336e-20)
(0.608092 0.668443 0)
(0.556905 0.608411 0)
(0.507624 0.55073 -1.76809e-19)
(0.484363 0.48821 -6.9745e-19)
(0.467992 0.436475 5.70482e-19)
(0.426699 0.346546 3.46671e-19)
(0.329665 0.242067 0)
(0.180476 0.109364 6.86894e-19)
(0.0325399 0.00866799 -4.10346e-19)
(0.431387 0.369429 -2.59124e-19)
(0.951419 0.78586 2.24557e-19)
(1.1493 0.974774 -3.19056e-19)
(1.17737 1.00412 -3.40826e-19)
(1.13535 1.00037 -1.47971e-19)
(1.07876 0.971048 3.18554e-20)
(1.0131 0.941903 0)
(0.940184 0.906709 7.17083e-20)
(0.857842 0.866116 1.70202e-20)
(0.765172 0.817072 0)
(0.670994 0.759057 0)
(0.591695 0.696905 6.22557e-20)
(0.52188 0.634445 9.35545e-20)
(0.486245 0.570191 -1.90985e-19)
(0.455261 0.510348 5.03755e-19)
(0.425892 0.424398 -6.27582e-19)
(0.3829 0.335532 -7.4337e-19)
(0.313113 0.217534 6.57831e-19)
(0.212952 0.130591 -2.47167e-19)
(0.119698 0.089809 1.4213e-19)
(0.430061 0.38166 3.0026e-19)
(0.943874 0.808818 0)
(1.13825 1.00138 0)
(1.16571 1.03184 -1.14247e-19)
(1.12352 1.02775 9.24792e-20)
(1.06701 0.99783 -2.08267e-20)
(1.00124 0.968226 -1.86729e-19)
(0.928205 0.93264 -1.42027e-19)
(0.845083 0.89143 1.54369e-19)
(0.750531 0.841652 -3.29534e-20)
(0.652898 0.783132 7.68983e-20)
(0.565348 0.721035 -5.20077e-19)
(0.502103 0.659092 -5.63469e-19)
(0.439041 0.593592 -1.02059e-19)
(0.399881 0.510526 0)
(0.374891 0.435685 -1.20983e-20)
(0.343714 0.281798 4.10724e-19)
(0.299199 0.119159 -6.88812e-19)
(0.259036 -0.0345018 5.13136e-19)
(0.0801064 -0.090038 4.1225e-19)
(0.428888 0.393264 -6.54849e-19)
(0.937422 0.831769 -2.83824e-19)
(1.12791 1.02746 6.54085e-21)
(1.1544 1.05854 1.47624e-19)
(1.11194 1.05381 0)
(1.0556 1.0232 4.16145e-19)
(0.989912 0.99327 2.29626e-19)
(0.916664 0.957349 -4.1292e-20)
(0.832888 0.91636 -6.78998e-20)
(0.737362 0.868256 -3.12922e-20)
(0.637426 0.812367 2.90645e-20)
(0.548373 0.751975 4.59287e-19)
(0.465923 0.687711 5.50569e-19)
(0.415657 0.615463 9.85812e-20)
(0.367666 0.546032 5.39227e-19)
(0.307045 0.424452 0)
(0.206622 0.276653 0)
(0.0397139 0.270334 5.04566e-19)
(-0.0686531 0.62933 -3.33689e-20)
(0.00130519 1.50745 -6.44418e-19)
(0.427263 0.404289 3.56799e-19)
(0.930362 0.852093 8.49091e-19)
(1.11752 1.05099 -1.27307e-18)
(1.14342 1.08321 7.62226e-19)
(1.10082 1.0784 -8.66478e-20)
(1.04454 1.04751 5.49861e-19)
(0.978667 1.01747 0)
(0.905166 0.981569 1.59223e-19)
(0.820851 0.940824 0)
(0.723979 0.891924 3.2914e-19)
(0.621273 0.834745 -4.34278e-20)
(0.525743 0.776532 4.86936e-20)
(0.450308 0.719243 6.14302e-19)
(0.363465 0.656332 -2.22694e-19)
(0.278742 0.561792 -2.80991e-19)
(0.209267 0.487184 0)
(0.106932 0.575771 0)
(0.0366182 1.26005 0)
(0.0779662 2.43179 -2.84026e-19)
(0.108315 2.89543 -1.76147e-19)
(0.425782 0.414837 0)
(0.924355 0.872524 0)
(1.10783 1.07423 4.56009e-19)
(1.13282 1.10713 -6.34799e-19)
(1.08996 1.10196 4.30534e-19)
(1.0338 1.07076 -5.03027e-19)
(0.968025 1.04076 -2.62395e-20)
(0.894515 1.00504 2.04301e-20)
(0.809794 0.965015 1.2976e-20)
(0.711445 0.918918 -3.75267e-19)
(0.605399 0.867794 6.85102e-20)
(0.5075 0.813682 4.36783e-19)
(0.411127 0.754357 -6.06377e-19)
(0.340808 0.682929 -7.04233e-19)
(0.273956 0.626731 2.44687e-19)
(0.206737 0.746279 0)
(0.142653 1.49867 3.51817e-19)
(0.140611 2.67193 3.90667e-19)
(0.146997 3.08063 -4.37189e-19)
(0.137611 3.21892 4.7862e-19)
(0.423862 0.424595 0)
(0.91774 0.890306 6.93238e-19)
(1.09811 1.09497 -1.18054e-19)
(1.12261 1.12906 8.02555e-19)
(1.07961 1.12407 -4.51912e-19)
(1.02357 1.09291 0)
(0.957676 1.06312 0)
(0.883959 1.0278 0)
(0.798771 0.988577 -2.78472e-20)
(0.699951 0.942666 7.79992e-21)
(0.594342 0.88882 0)
(0.491594 0.837465 -4.27701e-19)
(0.406801 0.791327 0)
(0.295537 0.739983 5.01474e-19)
(0.215234 0.817337 -3.28487e-19)
(0.170996 1.44463 -2.74029e-19)
(0.17647 2.66216 -6.69088e-19)
(0.195906 3.12583 -3.37363e-19)
(0.186045 3.2714 -4.0054e-19)
(0.170827 3.3124 3.36813e-19)
(0.422178 0.433786 -2.34565e-19)
(0.912147 0.90833 1.51844e-20)
(1.08912 1.11563 -1.27411e-19)
(1.1128 1.15043 -6.41433e-19)
(1.06957 1.14531 0)
(1.01365 1.11415 0)
(0.947889 1.08473 0)
(0.874302 1.04996 -1.09359e-20)
(0.789037 1.01198 2.64048e-20)
(0.688906 0.96888 0)
(0.577759 0.924227 0)
(0.473965 0.87873 0)
(0.364408 0.832305 0)
(0.307413 0.826006 3.35696e-19)
(0.285477 1.18216 8.68577e-19)
(0.272922 2.33908 2.69048e-19)
(0.283691 3.08089 4.99719e-19)
(0.276281 3.2907 -3.31989e-19)
(0.225509 3.35881 1.2253e-19)
(0.191402 3.37144 0)
(0.420098 0.442418 2.37931e-19)
(0.905712 0.924175 -1.49795e-18)
(1.07985 1.13439 -4.237e-19)
(1.10315 1.17045 -1.02962e-19)
(1.05981 1.16572 1.15117e-19)
(1.0041 1.13484 -8.03609e-19)
(0.938319 1.10586 5.36098e-20)
(0.864666 1.07178 3.33481e-19)
(0.779081 1.03485 0)
(0.678921 0.99337 -2.15395e-20)
(0.571104 0.945782 1.95943e-20)
(0.465335 0.902241 0)
(0.382353 0.874504 0)
(0.328208 0.999107 -4.17018e-19)
(0.294087 1.83433 9.77173e-21)
(0.290318 2.92931 -1.54598e-19)
(0.309082 3.29521 2.71405e-19)
(0.28203 3.39793 1.2803e-19)
(0.214149 3.42371 -1.39692e-20)
(0.188072 3.43231 4.85501e-21)
(0.417984 0.451111 4.58759e-19)
(0.89975 0.941984 1.43459e-18)
(1.07053 1.15496 5.20344e-19)
(1.09312 1.19166 0)
(1.04965 1.18681 0)
(0.994115 1.15596 6.15795e-19)
(0.928584 1.12743 -3.70094e-19)
(0.855245 1.09394 -3.07658e-19)
(0.769944 1.05854 -1.14012e-20)
(0.669442 1.01972 1.26623e-19)
(0.556844 0.981313 -3.57356e-19)
(0.447251 0.945391 0)
(0.365333 0.949383 0)
(0.345884 1.34408 -2.41032e-19)
(0.357257 2.44408 -3.10622e-19)
(0.399103 3.19929 0)
(0.424983 3.3832 -3.8389e-20)
(0.355084 3.44827 1.89425e-19)
(0.280301 3.49262 -3.51844e-19)
(0.255606 3.51878 2.17119e-19)
(0.414953 0.460252 -8.68965e-19)
(0.892012 0.958691 -6.82934e-19)
(1.05988 1.17496 0)
(1.08225 1.21292 0)
(1.03882 1.20843 0)
(0.983704 1.17772 0)
(0.918376 1.14947 3.94542e-19)
(0.84532 1.11663 -4.11482e-19)
(0.760182 1.08218 0)
(0.660018 1.04524 -1.09992e-19)
(0.551322 1.00548 6.0333e-19)
(0.451222 0.974795 2.92869e-20)
(0.402245 1.06666 4.71046e-20)
(0.406936 1.72402 3.63674e-19)
(0.426656 2.87997 -1.31549e-19)
(0.462656 3.32932 0)
(0.445043 3.45988 -3.31288e-20)
(0.355123 3.54906 9.89158e-20)
(0.271321 3.61833 3.19762e-19)
(0.195231 3.59839 -2.65417e-19)
(0.411939 0.469443 4.11873e-19)
(0.884602 0.978503 -6.7308e-19)
(1.04884 1.19774 0)
(1.0706 1.23606 -1.64832e-19)
(1.02719 1.23117 6.23532e-19)
(0.972376 1.20022 0)
(0.907568 1.17223 0)
(0.835157 1.13973 7.73771e-19)
(0.750722 1.10656 8.0432e-21)
(0.651218 1.07239 8.22599e-21)
(0.537957 1.04075 -2.65191e-19)
(0.447655 1.0325 1.90669e-19)
(0.408638 1.23374 0)
(0.44284 2.1419 -1.75793e-19)
(0.49222 3.13718 1.39809e-19)
(0.553829 3.4367 -1.1111e-20)
(0.547539 3.54045 0)
(0.478501 3.63379 -1.73895e-19)
(0.402799 3.6788 -7.12996e-19)
(0.318961 3.64957 -1.80353e-19)
(0.407354 0.479055 -8.0002e-19)
(0.874827 0.996645 9.58134e-19)
(1.03613 1.21963 7.1121e-19)
(1.05788 1.25909 -1.83888e-19)
(1.01465 1.25443 -9.51489e-19)