/*--------------------------------*- C++ -*----------------------------------*\
  =========                 |
  \\      /  F ield         | OpenFOAM: The Open Source CFD Toolbox
   \\    /   O peration     | Website:  https://openfoam.org
    \\  /    A nd           | Version:  9
     \\/     M anipulation  |
\*---------------------------------------------------------------------------*/
FoamFile
{
    format      ascii;
    class       volScalarField;
    location    "9";
    object      p;
}
// * * * * * * * * * * * * * * * * * * * * * * * * * * * * * * * * * * * * * //

dimensions      [0 2 -2 0 0 0 0];

internalField   nonuniform List<scalar> 
8800
(
0.417762
0.369802
0.331584
0.303155
0.282793
0.268304
0.257994
0.250777
0.246134
0.244096
0.245051
0.248784
0.254932
0.263765
0.276098
0.293322
0.317461
0.350845
0.393126
0.450195
0.249975
0.257255
0.265853
0.2695
0.267855
0.262696
0.256422
0.250665
0.246186
0.243408
0.242959
0.245095
0.249082
0.254487
0.260794
0.266874
0.270615
0.269795
0.263486
0.254349
0.226093
0.232497
0.2372
0.241078
0.244097
0.245408
0.244723
0.242845
0.240904
0.239847
0.240571
0.242578
0.24491
0.24655
0.246419
0.244244
0.240786
0.236565
0.231557
0.227728
0.220631
0.22351
0.226895
0.229863
0.23193
0.233452
0.234567
0.235121
0.235192
0.235275
0.235592
0.236029
0.236104
0.2355
0.234349
0.232707
0.230293
0.22699
0.224
0.222495
0.216182
0.217594
0.220506
0.223687
0.226357
0.228351
0.229701
0.230556
0.231086
0.231433
0.231762
0.23189
0.231602
0.230788
0.229314
0.227114
0.224254
0.221074
0.218953
0.218381
0.215212
0.215786
0.217239
0.218978
0.220765
0.222591
0.224245
0.22556
0.226485
0.227109
0.227414
0.227296
0.226669
0.225535
0.224007
0.222326
0.220668
0.219056
0.218081
0.217873
0.214097
0.214382
0.215161
0.216192
0.21732
0.218394
0.21955
0.220656
0.221639
0.222403
0.222781
0.222689
0.222227
0.221501
0.220677
0.219778
0.218839
0.217961
0.217469
0.217371
0.212057
0.212191
0.212632
0.213305
0.214063
0.21508
0.216124
0.217169
0.218174
0.219046
0.219546
0.219589
0.219276
0.218711
0.218079
0.217465
0.216907
0.216415
0.216175
0.216129
0.2093
0.209366
0.209628
0.210077
0.210613
0.211264
0.212034
0.212927
0.213888
0.214826
0.215497
0.215781
0.215776
0.215612
0.215353
0.215056
0.214747
0.214484
0.21437
0.214349
0.206139
0.206184
0.206362
0.206693
0.207135
0.207707
0.208421
0.209284
0.210284
0.211358
0.212251
0.212783
0.213014
0.21305
0.21297
0.212836
0.212674
0.212542
0.212489
0.212476
0.202589
0.20262
0.202753
0.203003
0.203367
0.203873
0.204553
0.205436
0.206526
0.207789
0.208948
0.209749
0.210233
0.210498
0.210618
0.210651
0.210636
0.21061
0.210602
0.210593
0.198677
0.198705
0.198821
0.199044
0.199389
0.199895
0.200607
0.201574
0.202824
0.204355
0.20585
0.206976
0.207713
0.20819
0.208476
0.208639
0.208723
0.208765
0.208783
0.208776
0.194374
0.194396
0.194519
0.194748
0.195114
0.195665
0.196467
0.197588
0.199085
0.200972
0.202878
0.204347
0.2054
0.206098
0.206549
0.206831
0.206999
0.207093
0.207131
0.207125
0.189643
0.189668
0.189803
0.190062
0.190482
0.191127
0.192079
0.19343
0.195266
0.19762
0.200043
0.201975
0.203346
0.204287
0.204909
0.205308
0.205554
0.205693
0.20575
0.205744
0.184401
0.184429
0.184591
0.184903
0.185411
0.186197
0.187365
0.189036
0.191324
0.194281
0.197355
0.199818
0.20159
0.202814
0.203631
0.204159
0.204487
0.204675
0.204751
0.204744
0.178527
0.178562
0.178764
0.179153
0.179788
0.18077
0.182234
0.184332
0.187211
0.190942
0.194829
0.197953
0.200207
0.201769
0.202816
0.203494
0.203916
0.204158
0.204256
0.204248
0.171861
0.171905
0.172163
0.172658
0.173465
0.174713
0.17657
0.179229
0.182874
0.187591
0.192499
0.196441
0.199286
0.201259
0.202582
0.203441
0.203976
0.204282
0.204406
0.204395
0.164184
0.164242
0.164575
0.165212
0.16625
0.167852
0.170229
0.173623
0.178255
0.184226
0.190414
0.195369
0.198942
0.201418
0.203078
0.204155
0.204827
0.205212
0.205367
0.205353
0.155202
0.155279
0.155713
0.156542
0.157892
0.159969
0.163035
0.167388
0.173294
0.180855
0.18864
0.194847
0.199312
0.202405
0.204479
0.205825
0.206664
0.207143
0.207336
0.207319
0.144507
0.144611
0.145184
0.146278
0.14806
0.150779
0.154764
0.160377
0.167926
0.177496
0.187263
0.195009
0.20057
0.204419
0.207
0.208675
0.209717
0.210311
0.21055
0.210528
0.131527
0.13167
0.132438
0.133914
0.136308
0.139924
0.145137
0.152422
0.162092
0.174187
0.186394
0.196013
0.202906
0.207681
0.210889
0.212973
0.214266
0.214997
0.215292
0.215265
0.115445
0.115644
0.116698
0.118741
0.12201
0.126863
0.133809
0.143329
0.155744
0.170992
0.186163
0.198037
0.20654
0.212447
0.216432
0.219032
0.220647
0.221553
0.221914
0.221878
0.095066
0.0953537
0.0968527
0.0997771
0.104354
0.111025
0.120385
0.132931
0.148879
0.168009
0.18672
0.201263
0.211691
0.218979
0.223941
0.227211
0.229259
0.230409
0.230856
0.230802
0.0685019
0.0689442
0.071222
0.0756274
0.0822815
0.091725
0.104574
0.121193
0.141612
0.165411
0.188242
0.205866
0.218553
0.227518
0.233717
0.23788
0.240544
0.242058
0.242642
0.242563
0.0324254
0.0332252
0.0371586
0.044366
0.0546085
0.068456
0.0863207
0.108312
0.134229
0.163462
0.190922
0.211985
0.227248
0.238216
0.245989
0.251375
0.254956
0.257053
0.257875
0.257768
-0.0196299
-0.0173018
-0.00909133
0.00387468
0.0205022
0.0411575
0.0659422
0.0947321
0.127136
0.162437
0.194889
0.219635
0.237719
0.250991
0.260721
0.267795
0.272798
0.275978
0.277327
0.277187
-0.0980213
-0.0865911
-0.0678821
-0.0446801
-0.0185042
0.0111469
0.0443701
0.0809855
0.120596
0.162538
0.200455
0.229335
0.250733
0.266881
0.279259
0.288894
0.296409
0.301887
0.304861
0.30533
-0.181003
-0.156893
-0.126987
-0.0934329
-0.0575062
-0.0188043
0.0228096
0.067316
0.114466
0.163744
0.208126
0.242173
0.267843
0.287738
0.303558
0.316444
0.327098
0.336422
0.342478
0.343206
-0.245237
-0.218455
-0.180292
-0.138487
-0.0940727
-0.0471001
0.00244874
0.0545025
0.108836
0.164999
0.215274
0.253749
0.282759
0.305275
0.323166
0.33765
0.349473
0.359092
0.364668
0.365492
-0.296087
-0.2672
-0.22456
-0.177081
-0.126387
-0.0728063
-0.0165156
0.0422382
0.10311
0.165534
0.22092
0.262919
0.294251
0.318231
0.336958
0.351858
0.363878
0.373482
0.379167
0.380072
-0.336801
-0.307324
-0.261522
-0.209844
-0.154447
-0.0956773
-0.0338565
0.0306275
0.0972624
0.165314
0.225306
0.270346
0.303508
0.32853
0.347794
0.362889
0.374883
0.384198
0.38985
0.390788
-0.371023
-0.341345
-0.293333
-0.238419
-0.17925
-0.116233
-0.0497535
0.0197359
0.0915993
0.16487
0.229105
0.276864
0.311613
0.337484
0.35712
0.372291
0.3842
0.393358
0.398926
0.399889
-0.400839
-0.371142
-0.321542
-0.2641
-0.201832
-0.135216
-0.064679
0.00925567
0.0858486
0.163954
0.232249
0.282671
0.318984
0.3457
0.365736
0.381034
0.392905
0.401954
0.407408
0.40837
-0.427711
-0.397954
-0.347112
-0.287646
-0.222853
-0.153222
-0.0791901
-0.00129
0.0797072
0.162527
0.234915
0.288102
0.32608
0.353728
0.374231
0.389711
0.401589
0.410559
0.415908
0.416858
-0.452507
-0.422656
-0.370832
-0.309708
-0.242813
-0.170619
-0.093507
-0.0119985
0.0731489
0.160577
0.237157
0.293306
0.333141
0.361876
0.382958
0.398697
0.410644
0.419507
0.424765
0.425741
-0.47596
-0.445914
-0.393252
-0.330719
-0.262041
-0.187623
-0.107807
-0.0230406
0.0659963
0.157977
0.238936
0.298333
0.340301
0.37034
0.39215
0.408243
0.420307
0.429169
0.434247
0.43528
-0.498343
-0.468057
-0.414659
-0.35102
-0.280822
-0.204489
-0.122298
-0.0345697
0.0581451
0.154633
0.240172
0.303156
0.347603
0.379219
0.401956
0.418532
0.430789
0.439671
0.444614
0.445634
-0.519991
-0.489368
-0.435318
-0.370763
-0.299263
-0.221299
-0.137033
-0.0466501
0.0495069
0.150428
0.24073
0.307677
0.354997
0.388539
0.412456
0.429684
0.442242
0.451187
0.456018
0.456984
-0.540928
-0.509993
-0.455439
-0.390016
-0.317416
-0.238083
-0.152037
-0.0593046
0.0400298
0.145273
0.240475
0.311726
0.362362
0.39823
0.423651
0.441756
0.454759
0.463829
0.468579
0.469414
-0.561208
-0.529993
-0.474975
-0.408808
-0.33529
-0.254832
-0.167302
-0.0725293
0.0296979
0.139092
0.239248
0.315098
0.36948
0.408151
0.435475
0.454748
0.468387
0.477709
0.482397
0.483032
-0.58086
-0.549313
-0.493929
-0.427105
-0.352873
-0.271496
-0.182766
-0.0862752
0.0185312
0.131835
0.236914
0.317546
0.37608
0.418085
0.447804
0.468607
0.483082
0.492737
0.497421
0.497839
-0.599907
-0.567904
-0.512238
-0.444863
-0.370089
-0.288015
-0.198355
-0.100474
0.00657287
0.123485
0.233337
0.318813
0.381818
0.427706
0.460402
0.483207
0.498823
0.508949
0.513588
0.513774
-0.618165
-0.585933
-0.529835
-0.462053
-0.386871
-0.304305
-0.213987
-0.11503
-0.00610048
0.114087
0.228438
0.318677
0.386287
0.436475
0.472871
0.498337
0.515482
0.526143
0.530619
0.530533
-0.635654
-0.603218
-0.546702
-0.478609
-0.403139
-0.320287
-0.229554
-0.129849
-0.0193897
0.10369
0.222212
0.316954
0.38903
0.443752
0.484616
0.513799
0.533128
0.544243
0.548236
0.547788
-0.652362
-0.619588
-0.562802
-0.494484
-0.418831
-0.335871
-0.244963
-0.144812
-0.0331877
0.0923933
0.214678
0.313493
0.389665
0.448806
0.494796
0.529148
0.552162
0.563782
0.566005
0.564863
-0.668164
-0.635163
-0.578082
-0.509601
-0.4339
-0.350978
-0.260116
-0.159804
-0.0473583
0.0803375
0.205911
0.308244
0.387927
0.450953
0.502177
0.543125
0.572671
0.587125
0.585418
0.581297
-0.683161
-0.649885
-0.592553
-0.523984
-0.448374
-0.365657
-0.275073
-0.174895
-0.0619825
0.0674532
0.19586
0.30101
0.383607
0.449453
0.504905
0.553006
0.592464
0.61761
0.616781
0.597284
-0.697321
-0.663787
-0.606317
-0.537801
-0.462496
-0.380203
-0.290223
-0.190572
-0.0776418
0.0530615
0.183902
0.291116
0.375868
0.443127
0.499799
0.552858
0.599691
0.628623
0.620338
0.59631
-0.710551
-0.676905
-0.619229
-0.550858
-0.476028
-0.39432
-0.305332
-0.206512
-0.0940348
0.0374708
0.170316
0.27873
0.364361
0.431723
0.483107
0.533113
0.571816
0.581466
0.517646
0.472001
-0.722431
-0.689574
-0.630891
-0.562574
-0.488423
-0.40761
-0.320146
-0.222547
-0.111049
0.0207529
0.155194
0.263965
0.348893
0.416494
0.456229
0.484828
0.505683
0.46522
0.386035
0.335016
-0.768939
-0.699059
-0.641537
-0.574047
-0.500787
-0.421113
-0.334744
-0.238938
-0.129044
0.0024337
0.138119
0.246605
0.327243
0.397356
0.416046
0.411453
0.381687
0.312008
0.21869
0.168499
-0.725131
-0.710763
-0.655439
-0.59043
-0.518174
-0.440058
-0.356469
-0.263522
-0.15595
-0.0246125
0.112081
0.216635
0.285735
0.338217
0.343141
0.20716
0.0783645
-0.0107102
-0.102086
-0.0451291
-0.751498
-0.723349
-0.667971
-0.603123
-0.531613
-0.454789
-0.372432
-0.282025
-0.177265
-0.0474676
0.0904616
0.192593
0.251135
0.272554
0.204774
0.0156942
-0.156075
-0.279286
-0.413451
-0.31584
-0.769496
-0.737749
-0.681997
-0.616968
-0.546004
-0.470417
-0.389886
-0.302302
-0.201108
-0.0736982
0.0647524
0.164939
0.209357
0.197954
0.05228
-0.202963
-0.417415
-0.58469
-0.779016
-0.676481
-0.785918
-0.752459
-0.695932
-0.630449
-0.560006
-0.485702
-0.407448
-0.323291
-0.226168
-0.100612
0.0397103
0.137698
0.164405
0.107359
-0.127806
-0.434131
-0.713475
-0.960269
-1.24516
-1.19185
-0.800474
-0.766803
-0.709722
-0.643975
-0.574121
-0.501219
-0.425527
-0.345227
-0.252837
-0.13001
0.0137022
0.11227
0.117192
0.00432512
-0.30407
-0.659888
-1.00895
-1.32162
-1.72699
-2.03944
-0.814164
-0.780704
-0.723448
-0.657738
-0.5885
-0.517095
-0.444189
-0.368401
-0.281742
-0.162865
-0.015975
0.0864685
0.0709106
-0.097803
-0.46584
-0.85238
-1.23563
-1.54946
-1.73456
-2.06438
-0.827518
-0.794224
-0.737198
-0.671689
-0.603194
-0.533495
-0.4638
-0.393413
-0.31418
-0.200626
-0.0483102
0.0605002
0.0275747
-0.217217
-0.612623
-1.01154
-1.35587
-1.56622
-1.62011
-1.66432
-0.84076
-0.807611
-0.750762
-0.685575
-0.617992
-0.550233
-0.484314
-0.420454
-0.350672
-0.245318
-0.0879383
0.0350298
-0.0214873
-0.343579
-0.7436
-1.15056
-1.46222
-1.54084
-1.56301
-1.58591
-0.853926
-0.820747
-0.763895
-0.699089
-0.632515
-0.566958
-0.505383
-0.44935
-0.393023
-0.301538
-0.140024
0.00199528
-0.0812907
-0.47293
-0.868306
-1.27901
-1.6579
-1.6688
-1.6319
-1.62712
-0.866709
-0.833323
-0.776267
-0.711853
-0.64633
-0.583145
-0.526416
-0.479781
-0.440358
-0.373355
-0.218167
-0.0597728
-0.170062
-0.614052
-0.992733
-1.35977
-1.81458
-1.84315
-1.66785
-1.62614
-0.878587
-0.844848
-0.787489
-0.723379
-0.65885
-0.598081
-0.546625
-0.511113
-0.494709
-0.469593
-0.346328
-0.183292
-0.323128
-0.773678
-1.09502
-1.24349
-1.3668
-1.46529
-1.4988
-1.49062
-0.888897
-0.854556
-0.797086
-0.733073
-0.66935
-0.610879
-0.564942
-0.542326
-0.557451
-0.606448
-0.564601
-0.419146
-0.554564
-0.980719
-1.20809
-1.08951
-0.990868
-1.23669
-1.43594
-1.49618
-0.897176
-0.862093
-0.804324
-0.740206
-0.676967
-0.620396
-0.579874
-0.571084
-0.625956
-0.794049
-0.924254
-0.788161
-0.895229
-1.28914
-1.66859
-1.78949
-1.84221
-1.87288
-1.89064
-1.91487
-0.902739
-0.86684
-0.808495
-0.743969
-0.680716
-0.6253
-0.589337
-0.59295
-0.693554
-1.02205
-1.41982
-1.27846
-1.314
-1.71669
-2.41663
-3.06019
-3.24968
-3.08842
-2.83398
-2.71845
-0.904898
-0.868112
-0.808941
-0.743593
-0.679616
-0.624096
-0.590355
-0.60669
-0.744695
-1.24062
-1.97219
-1.75666
-1.59219
-1.92476
-2.74827
-3.76098
-3.93907
-3.56853
-3.14275
-2.98212
-0.903103
-0.865333
-0.805069
-0.738441
-0.672856
-0.615557
-0.580608
-0.600597
-0.761568
-1.34793
-2.30744
-1.9306
-1.46791
-1.46766
-1.83937
-2.37785
-2.44829
-2.09088
-1.7414
-1.59731
-0.897177
-0.858169
-0.796575
-0.728175
-0.660014
-0.598953
-0.558463
-0.569961
-0.725134
-1.30149
-2.15318
-1.59047
-0.800648
-0.259283
-0.0115329
0.0577881
0.115756
0.276953
0.373782
0.405439
-0.887145
-0.846847
-0.783504
-0.71286
-0.641275
-0.574686
-0.524311
-0.515391
-0.617156
-1.02178
-1.51524
-0.852569
-0.0430975
0.57815
0.975359
1.23744
1.38926
1.45605
1.47826
1.48132
-0.872915
-0.831562
-0.766136
-0.693034
-0.617524
-0.544167
-0.480948
-0.4437
-0.468947
-0.625577
-0.692246
-0.115206
0.50996
0.979557
1.28548
1.49194
1.61319
1.67531
1.70093
1.70509
-0.853697
-0.811841
-0.744958
-0.669309
-0.589947
-0.509813
-0.433369
-0.367535
-0.322136
-0.286377
-0.111686
0.315052
0.743925
1.068
1.28396
1.42962
1.52352
1.5809
1.61065
1.61689
-0.82907
-0.787277
-0.719673
-0.642168
-0.559618
-0.473916
-0.386547
-0.298317
-0.20494
-0.0737021
0.169552
0.489389
0.782614
1.01028
1.16983
1.2812
1.35881
1.41217
1.44154
1.44818
-0.796451
-0.755872
-0.689027
-0.610643
-0.526574
-0.437555
-0.343298
-0.241472
-0.122979
0.0419259
0.276494
0.526389
0.74072
0.908336
1.03235
1.12337
1.1904
1.23859
1.264
1.27078
-0.750533
-0.712808
-0.650441
-0.572928
-0.489518
-0.400086
-0.303657
-0.196526
-0.0696966
0.0976785
0.303828
0.502245
0.667069
0.796746
0.896316
0.97241
1.03056
1.07319
1.09718
1.10461
-0.689559
-0.656987
-0.597986
-0.525441
-0.445837
-0.359823
-0.26567
-0.160131
-0.0364693
0.118936
0.293476
0.451428
0.57996
0.68156
0.761192
0.823736
0.872377
0.908227
0.931301
0.938639
-0.60407
-0.582192
-0.529312
-0.464073
-0.392031
-0.31343
-0.226484
-0.128611
-0.0157615
0.120995
0.264844
0.388928
0.48691
0.56375
0.623648
0.670822
0.70847
0.737145
0.754538
0.759121
-0.48124
-0.470458
-0.433728
-0.382955
-0.324789
-0.259467
-0.185285
-0.100416
-0.00170394
0.115184
0.235943
0.337276
0.416155
0.476545
0.522315
0.556718
0.582302
0.601687
0.614572
0.617782
-0.3488
-0.344507
-0.322596
-0.289223
-0.248327
-0.199289
-0.140883
-0.0715976
0.010868
0.10884
0.20887
0.291793
0.355053
0.402377
0.436931
0.461529
0.478677
0.490061
0.496096
0.497482
-0.227291
-0.225111
-0.214532
-0.195942
-0.170639
-0.137378
-0.0949814
-0.0415591
0.0244213
0.104261
0.185717
0.252672
0.302905
0.339359
0.365032
0.382608
0.393991
0.400692
0.403887
0.404349
-0.127941
-0.127913
-0.124236
-0.115747
-0.101955
-0.0813359
-0.0521729
-0.0128463
0.0382433
0.101878
0.167367
0.220718
0.260129
0.288223
0.307441
0.319812
0.327293
0.33139
0.333182
0.333211
-0.0569652
-0.0578094
-0.0582447
-0.0560422
-0.0494243
-0.0370609
-0.0172741
0.0114609
0.0501996
0.0999178
0.151713
0.193815
0.224576
0.245916
0.26001
0.268984
0.274148
0.276687
0.277574
0.277514
-0.0115916
-0.0124555
-0.014045
-0.0143083
-0.0116365
-0.00452523
0.00860334
0.0295793
0.0589639
0.0975116
0.13803
0.170817
0.194526
0.21091
0.221721
0.228167
0.231651
0.233221
0.233701
0.233617
0.0158466
0.0152458
0.0139623
0.0134417
0.0149119
0.0193972
0.0281941
0.0428191
0.0650537
0.0947606
0.126316
0.151872
0.170269
0.182775
0.190651
0.195292
0.197759
0.198785
0.199028
0.198952
0.0327631
0.0324018
0.0316073
0.0312609
0.0322689
0.0354998
0.0419296
0.0526659
0.0689607
0.0918375
0.116239
0.135937
0.150044
0.15945
0.165358
0.16881
0.170568
0.17124
0.171386
0.171324
0.0436214
0.043406
0.0429235
0.0427507
0.0435057
0.0458197
0.0505165
0.0585459
0.0707851
0.088186
0.107045
0.12226
0.133082
0.140192
0.144633
0.147186
0.148465
0.148936
0.149029
0.148979
0.0503691
0.0502416
0.0499509
0.0499013
0.0505419
0.0523327
0.0558634
0.0618785
0.0711405
0.0842214
0.098716
0.11042
0.118611
0.12403
0.127394
0.129312
0.130255
0.130588
0.130647
0.130606
0.0541079
0.0540299
0.0538503
0.0538568
0.054379
0.0557644
0.0584671
0.0630504
0.07011
0.0800617
0.091015
0.0999175
0.106192
0.110337
0.112894
0.114336
0.115033
0.115267
0.115304
0.115271
0.0555957
0.0555473
0.0554437
0.0554893
0.0559254
0.0570091
0.0590832
0.0625755
0.0679551
0.0755326
0.0838477
0.0906203
0.0954081
0.098562
0.100498
0.101584
0.1021
0.102268
0.10229
0.102262
0.0554214
0.0553899
0.0553331
0.0553975
0.0557596
0.0566116
0.0582118
0.0608894
0.0649888
0.0707587
0.0770686
0.0822301
0.0858651
0.0882589
0.0897253
0.0905411
0.0909245
0.0910429
0.0910549
0.0910316
0.054005
0.053983
0.0539513
0.0540181
0.054313
0.0549806
0.0562159
0.0582661
0.0613981
0.0657939
0.0706054
0.0745109
0.0772735
0.0790879
0.0801946
0.0808063
0.0810895
0.0811728
0.0811778
0.0811585
0.0516481
0.051632
0.0516132
0.0516731
0.0519087
0.0524288
0.0533812
0.0549516
0.0573415
0.0606876
0.0643436
0.067311
0.0694074
0.0707811
0.0716158
0.072074
0.0722823
0.0723394
0.0723393
0.0723233
0.0485695
0.0485571
0.0485443
0.0485938
0.0487785
0.0491809
0.0499122
0.0511131
0.0529344
0.0554819
0.0582593
0.0605113
0.0620984
0.0631349
0.0637614
0.0641025
0.0642555
0.0642948
0.0642925
0.0642793
0.0449345
0.0449246
0.0449149
0.0449534
0.0450955
0.0454035
0.0459625
0.046879
0.0482663
0.0502013
0.0523076
0.054013
0.0552111
0.0559927
0.0564633
0.0567177
0.0568288
0.0568541
0.0568499
0.0568392
0.0408709
0.0408628
0.0408548
0.0408839
0.0409917
0.0412261
0.0416511
0.0423459
0.0433976
0.0448635
0.046458
0.0477469
0.0486509
0.0492377
0.0495894
0.0497771
0.0498568
0.0498725
0.0498678
0.0498593
0.0364797
0.036473
0.0364657
0.0364861
0.0365663
0.0367424
0.0370626
0.037587
0.0383817
0.0394889
0.0406912
0.0416615
0.0423398
0.0427785
0.0430387
0.0431755
0.0432313
0.0432393
0.0432336
0.043227
0.0318378
0.0318323
0.0318253
0.0318386
0.0318967
0.0320271
0.0322657
0.0326586
0.033254
0.0340835
0.034982
0.0357059
0.0362109
0.0365358
0.0367281
0.0368283
0.0368676
0.0368715
0.0368658
0.0368605
0.0270053
0.0270006
0.0269936
0.0270013
0.0270428
0.0271378
0.0273134
0.0276041
0.0280445
0.0286579
0.0293224
0.0298568
0.0302274
0.0304649
0.0306038
0.0306746
0.0307014
0.0307027
0.0306976
0.030693
0.0220297
0.0220257
0.0220193
0.0220234
0.0220517
0.0221185
0.0222441
0.0224531
0.0227714
0.0232159
0.0236979
0.0240844
0.024353
0.024523
0.0246204
0.0246681
0.0246839
0.0246819
0.0246765
0.024673
0.0169488
0.0169454
0.016939
0.016939
0.0169558
0.0170005
0.0170868
0.0172312
0.0174529
0.0177625
0.0180992
0.0183684
0.018554
0.0186701
0.0187354
0.0187661
0.0187741
0.0187694
0.0187642
0.0187616
0.0117898
0.011787
0.0117808
0.0117786
0.0117877
0.011815
0.0118695
0.0119626
0.0121059
0.0123059
0.0125217
0.0126934
0.0128097
0.0128832
0.012924
0.0129415
0.0129439
0.0129383
0.0129332
0.0129311
0.00657604
0.00657383
0.00656838
0.00656485
0.00656809
0.00658133
0.00660928
0.00665781
0.00673275
0.00683806
0.00695199
0.0070434
0.00710632
0.00714501
0.00716496
0.00717156
0.00716962
0.00716335
0.00715905
0.00715765
0.00132278
0.00132221
0.00132014
0.00131765
0.00131504
0.00131575
0.00131942
0.00132643
0.00133809
0.00135559
0.00137861
0.0014
0.00141533
0.00142488
0.0014299
0.00143185
0.00143073
0.00142649
0.00142321
0.00142267
-0.913855
-0.617995
-0.315444
-0.0783335
0.114031
0.27066
0.405365
0.519434
0.57129
0.553893
-0.410227
-0.226304
-0.0419937
0.115359
0.24895
0.361871
0.454386
0.520757
0.556082
0.566409
-0.0875041
0.0308569
0.151615
0.259373
0.352629
0.431075
0.493355
0.538856
0.570009
0.585856
0.130072
0.209833
0.293848
0.369942
0.436158
0.49204
0.537352
0.572784
0.59957
0.616476
0.290134
0.346842
0.406401
0.462311
0.511521
0.553897
0.589505
0.618539
0.640951
0.657983
0.415561
0.456847
0.503857
0.547071
0.586304
0.620942
0.650733
0.675353
0.694058
0.711132
0.521303
0.554887
0.594733
0.631732
0.665801
0.696394
0.722824
0.744511
0.76021
0.777413
0.617966
0.650351
0.687844
0.723001
0.755116
0.783838
0.808409
0.827992
0.841403
0.858797
0.71837
0.753751
0.79219
0.827729
0.859346
0.88677
0.909725
0.92756
0.93951
0.957322
0.836347
0.875854
0.915304
0.950632
0.980855
1.00633
1.02725
1.04343
1.05511
1.07349
0.982882
1.02314
1.05924
1.09027
1.11638
1.13892
1.15833
1.17415
1.18703
1.20523
1.15862
1.19121
1.21737
1.24001
1.26034
1.27937
1.29727
1.31403
1.32994
1.3482
1.34688
1.36467
1.38045
1.39726
1.41361
1.42831
1.44146
1.45558
1.47277
1.49251
1.529
1.53996
1.55222
1.56316
1.57255
1.58225
1.59324
1.6049
1.61488
1.63005
1.74009
1.74213
1.72704
1.71198
1.70577
1.71145
1.73013
1.76059
1.79272
1.82346
2.04616
1.90921
1.83302
1.79088
1.77333
1.77752
1.80484
1.86098
1.96456
2.17988
0.313928
0.310618
0.304846
0.295247
0.282557
0.270448
0.260496
0.252876
0.247473
0.244297
0.243791
0.24612
0.250742
0.257461
0.266388
0.277611
0.290381
0.302085
0.309327
0.313913
0.23139
0.237338
0.244528
0.250158
0.253419
0.253538
0.251071
0.247551
0.244252
0.241996
0.241638
0.243512
0.246691
0.250456
0.25379
0.255221
0.253577
0.249012
0.242714
0.235451
0.223369
0.225733
0.22952
0.232982
0.235682
0.237888
0.239254
0.239393
0.238663
0.237901
0.237898
0.238835
0.240045
0.240684
0.240118
0.238391
0.236018
0.233055
0.229318
0.226073
0.217976
0.218943
0.221523
0.224973
0.227791
0.2297
0.231008
0.231969
0.232577
0.232919
0.233215
0.23346
0.233436
0.23296
0.232051
0.230623
0.228391
0.225216
0.222019
0.220311
0.215465
0.21579
0.217349
0.21986
0.22234
0.224697
0.226678
0.228065
0.228941
0.229475
0.22986
0.230099
0.229913
0.229156
0.227706
0.225688
0.223376
0.220933
0.218779
0.217969
0.214797
0.21494
0.215618
0.216787
0.218045
0.219396
0.220688
0.221978
0.223122
0.224008
0.224556
0.224614
0.224221
0.223458
0.222524
0.221379
0.220186
0.21906
0.218119
0.217781
0.213181
0.213247
0.213647
0.214435
0.215389
0.216393
0.217497
0.218618
0.219655
0.220567
0.221207
0.221423
0.221208
0.22066
0.219867
0.219163
0.218364
0.217591
0.217036
0.21686
0.210743
0.210767
0.210961
0.211401
0.211961
0.212661
0.213503
0.21444
0.215435
0.216396
0.217166
0.217519
0.21749
0.217236
0.216886
0.216347
0.215998
0.215609
0.215354
0.215284
0.207767
0.207778
0.207904
0.208216
0.208662
0.20921
0.209881
0.21068
0.211599
0.212593
0.213511
0.214117
0.214368
0.214383
0.214264
0.214066
0.213837
0.213601
0.213457
0.213422
0.204413
0.204419
0.204504
0.204723
0.205062
0.205521
0.206129
0.206909
0.207866
0.20898
0.210109
0.21096
0.211452
0.21169
0.211769
0.211752
0.211686
0.211602
0.211552
0.211539
0.200682
0.200689
0.200752
0.200931
0.20122
0.201639
0.202228
0.203026
0.204063
0.205342
0.206742
0.207904
0.20868
0.209157
0.209436
0.209583
0.209647
0.209667
0.209675
0.209676
0.196576
0.196576
0.196649
0.196816
0.197098
0.197529
0.198158
0.199043
0.200239
0.201775
0.203524
0.205051
0.206123
0.206854
0.207319
0.207607
0.207777
0.207872
0.20792
0.207931
0.192066
0.192064
0.192139
0.192321
0.192631
0.193113
0.193834
0.194872
0.196305
0.198187
0.200385
0.202356
0.203796
0.204787
0.205451
0.205879
0.206145
0.206303
0.206384
0.206402
0.187093
0.187089
0.187177
0.187389
0.187752
0.188326
0.189194
0.190455
0.192218
0.194562
0.197334
0.199856
0.201715
0.203017
0.203899
0.204476
0.204841
0.205061
0.205173
0.2052
0.181553
0.181547
0.181655
0.181915
0.182363
0.183071
0.184146
0.185716
0.187919
0.190862
0.194362
0.197563
0.199934
0.201606
0.202743
0.203492
0.203968
0.204256
0.204403
0.204438
0.175308
0.1753
0.175437
0.175766
0.176331
0.177224
0.178579
0.18056
0.183341
0.187059
0.19148
0.195527
0.198526
0.200646
0.20209
0.203042
0.203649
0.204016
0.204204
0.204248
0.16817
0.16816
0.168337
0.16876
0.169484
0.170625
0.172354
0.174876
0.17841
0.183119
0.188704
0.193805
0.19758
0.200247
0.202064
0.203264
0.204029
0.204492
0.204728
0.204783
0.159882
0.159869
0.160102
0.160652
0.161591
0.163063
0.165287
0.168522
0.173033
0.179013
0.186065
0.192476
0.197208
0.200546
0.202821
0.204322
0.205282
0.205863
0.206159
0.206227
0.150093
0.150077
0.150387
0.151114
0.152343
0.15426
0.157145
0.161321
0.167105
0.174711
0.183605
0.191639
0.197548
0.201711
0.204546
0.206419
0.207618
0.208347
0.208717
0.208801
0.138321
0.138304
0.138727
0.139701
0.141328
0.14385
0.147626
0.153062
0.16051
0.17019
0.181385
0.191414
0.198763
0.203935
0.207459
0.209791
0.211288
0.212205
0.212671
0.212773
0.123894
0.123879
0.124473
0.125804
0.127986
0.131355
0.136391
0.14351
0.153137
0.165457
0.179495
0.19195
0.201043
0.207444
0.211813
0.214714
0.216586
0.217743
0.218337
0.218465
0.105815
0.105812
0.106683
0.108552
0.111557
0.116177
0.122966
0.132417
0.144914
0.160563
0.178066
0.193421
0.204599
0.212488
0.217901
0.22151
0.223855
0.225318
0.226079
0.226246
0.082537
0.0825715
0.0839232
0.0866538
0.0909796
0.0975337
0.10691
0.119575
0.135831
0.155625
0.177263
0.196009
0.209633
0.219307
0.22601
0.230529
0.233488
0.235349
0.236332
0.236556
0.0515383
0.0516928
0.053929
0.0581932
0.0648065
0.0744821
0.0877198
0.104851
0.12598
0.15082
0.177265
0.199869
0.216292
0.228071
0.236378
0.242098
0.245923
0.248367
0.249672
0.249973
0.00829308
0.00879759
0.0130397
0.0205494
0.0314239
0.046273
0.0652618
0.0884518
0.115671
0.146432
0.178264
0.205097
0.224614
0.238806
0.249067
0.25639
0.261499
0.264936
0.266824
0.267219
-0.0555483
-0.0533092
-0.0434018
-0.0288327
-0.00990619
0.0131994
0.0402571
0.0711315
0.105521
0.14287
0.180455
0.21171
0.234484
0.251295
0.263803
0.273132
0.280044
0.285024
0.288033
0.28846
-0.132526
-0.128183
-0.109653
-0.0835634
-0.0540642
-0.0214465
0.0143642
0.053384
0.0954303
0.140059
0.184367
0.221199
0.248412
0.269034
0.284985
0.297517
0.307536
0.315377
0.319168
0.320882
-0.21078
-0.199696
-0.171977
-0.135858
-0.096817
-0.0550983
-0.0107219
0.0363567
0.0860108
0.137897
0.188944
0.231333
0.26283
0.286987
0.306015
0.321313
0.333758
0.343764
0.350163
0.352998
-0.268688
-0.256613
-0.224012
-0.181379
-0.135028
-0.0858345
-0.0340163
0.0203166
0.0769797
0.13561
0.192819
0.23998
0.274789
0.301289
0.321931
0.338261
0.35129
0.361581
0.368273
0.371204
-0.314773
-0.302384
-0.266466
-0.219355
-0.16788
-0.113089
-0.0552696
0.00526458
0.0681378
0.132814
0.195458
0.246655
0.284037
0.312105
0.33365
0.350461
0.363701
0.374054
0.38085
0.383664
-0.352334
-0.340116
-0.302236
-0.251747
-0.196286
-0.137041
-0.0743719
-0.00865492
0.0596259
0.129789
0.197487
0.252359
0.291949
0.321281
0.343481
0.360561
0.373833
0.384092
0.390846
0.393558
-0.384561
-0.372535
-0.333291
-0.280272
-0.221653
-0.158741
-0.0919313
-0.0216564
0.0514978
0.126683
0.199041
0.257316
0.298955
0.329437
0.352212
0.369525
0.382843
0.393059
0.39984
0.402492
-0.413058
-0.40119
-0.360994
-0.305994
-0.244833
-0.178864
-0.108512
-0.0342684
0.0432556
0.123117
0.200014
0.261719
0.305456
0.337141
0.360548
0.378142
0.391545
0.401737
0.408542
0.411128
-0.439033
-0.42724
-0.386298
-0.329693
-0.266474
-0.197986
-0.124616
-0.0468301
0.0347341
0.119091
0.200511
0.265763
0.311752
0.344774
0.368914
0.386864
0.400406
0.410597
0.417437
0.419954
-0.463267
-0.451503
-0.409922
-0.351993
-0.287033
-0.216391
-0.140395
-0.05946
0.0258297
0.11449
0.200471
0.269485
0.317978
0.352552
0.37758
0.395992
0.409736
0.419984
0.426782
0.429223
-0.486252
-0.474481
-0.432325
-0.373295
-0.306883
-0.234386
-0.156099
-0.0723612
0.0163586
0.109185
0.199806
0.272865
0.324184
0.360589
0.386714
0.405724
0.419748
0.43009
0.436897
0.439277
-0.508372
-0.496501
-0.453804
-0.393855
-0.326229
-0.25215
-0.171881
-0.0856413
0.00623936
0.103074
0.198412
0.275815
0.330334
0.368919
0.396408
0.416197
0.430619
0.441113
0.447928
0.450261
-0.529779
-0.517756
-0.47452
-0.413843
-0.345146
-0.269732
-0.187769
-0.0993387
-0.00458302
0.0960706
0.196161
0.278186
0.336315
0.377486
0.40668
0.427488
0.442457
0.453199
0.460025
0.462319
-0.550484
-0.53831
-0.494591
-0.433286
-0.363688
-0.287161
-0.203773
-0.113465
-0.0161297
0.0881162
0.192925
0.279808
0.341941
0.386157
0.417462
0.439601
0.455312
0.4664
0.473281
0.475578
-0.570591
-0.558199
-0.514085
-0.452206
-0.381837
-0.304424
-0.219866
-0.127978
-0.0283848
0.0791952
0.188595
0.280484
0.346974
0.394704
0.428602
0.452455
0.469193
0.480795
0.487802
0.489996
-0.58999
-0.577434
-0.532988
-0.470536
-0.399563
-0.321448
-0.235976
-0.142816
-0.0412976
0.0693042
0.183114
0.28002
0.351122
0.402803
0.439834
0.4659
0.484006
0.496345
0.503565
0.505627
-0.60872
-0.595953
-0.55121
-0.48825
-0.416818
-0.338169
-0.25203
-0.157893
-0.0547871
0.058485
0.176446
0.278253
0.354051
0.410057
0.450842
0.479755
0.499636
0.512863
0.520298
0.522196
-0.626612
-0.61374
-0.568662
-0.505295
-0.433533
-0.354503
-0.267941
-0.173114
-0.0687656
0.0468245
0.168586
0.27503
0.355421
0.416012
0.461135
0.493695
0.516061
0.530407
0.537888
0.539467
-0.643772
-0.630752
-0.585326
-0.521635
-0.449643
-0.370399
-0.283604
-0.188382
-0.0831229
0.0344163
0.159586
0.270264
0.354985
0.420079
0.469929
0.507157
0.533237
0.549156
0.55612
0.556894
-0.660057
-0.646905
-0.601163
-0.537221
-0.465065
-0.38577
-0.298937
-0.203572
-0.0977429
0.0213532
0.149547
0.264003
0.352526
0.421614
0.476205
0.519098
0.550875
0.570185
0.575816
0.573703
-0.675525
-0.662205
-0.616138
-0.551992
-0.479774
-0.400552
-0.313859
-0.2186
-0.112504
0.00779422
0.138598
0.25629
0.348019
0.420161
0.478742
0.527663
0.567317
0.594446
0.601982
0.59059
-0.690116
-0.676683
-0.630331
-0.566075
-0.49395
-0.415
-0.32869
-0.233879
-0.127913
-0.00684194
0.126171
0.246579
0.340805
0.415291
0.476131
0.529972
0.578141
0.617138
0.630513
0.627949
-0.703844
-0.690271
-0.643754
-0.579431
-0.50758
-0.429111
-0.343397
-0.249407
-0.14399
-0.022628
0.112151
0.234673
0.330388
0.406367