/*--------------------------------*- C++ -*----------------------------------*\
  =========                 |
  \\      /  F ield         | OpenFOAM: The Open Source CFD Toolbox
   \\    /   O peration     | Website:  https://openfoam.org
    \\  /    A nd           | Version:  9
     \\/     M anipulation  |
\*---------------------------------------------------------------------------*/
FoamFile
{
    format      ascii;
    class       surfaceScalarField;
    location    "9";
    object      phi;
}
// * * * * * * * * * * * * * * * * * * * * * * * * * * * * * * * * * * * * * //

dimensions      [0 3 -1 0 0 0 0];

internalField   nonuniform List<scalar> 
17370
(
-0.0910551
0.0935033
0.286563
-0.0748995
0.0568989
0.364776
-0.0409112
0.0299991
0.42708
-0.0213356
0.0157925
0.504795
-0.0115319
0.00874392
0.60219
-0.0064761
0.004929
0.720605
-0.00363948
0.00273583
0.86381
-0.00196901
0.00142359
1.036
-0.000946101
0.000590897
1.24286
-0.000264709
-3.90992e-05
1.49149
0.000340455
-0.000672648
1.49152
0.00102725
-0.00149955
1.24316
0.00203766
-0.00279766
1.0364
0.00369406
-0.00497652
0.864189
0.00651951
-0.00878487
0.721323
0.0115702
-0.0158276
0.603472
0.0213673
-0.030026
0.508098
0.0409333
-0.0569167
0.432152
0.0749135
-0.0935117
0.365374
0.0910619
0.197949
-0.127515
0.0884872
0.0390279
-0.364906
0.354157
-0.0721863
0.0829355
-0.446711
0.454637
-0.0809353
0.0730095
-0.521051
0.529839
-0.0647136
0.0559255
-0.612769
0.621032
-0.0479857
0.0397226
-0.726907
0.733516
-0.0328237
0.0262148
-0.867497
0.872093
-0.021125
0.0165288
-1.03848
1.04159
-0.0130862
0.00997413
-1.24459
1.24685
-0.00757765
0.00531374
-1.49266
1.4946
-0.00344012
0.0015055
-1.49249
1.49425
0.000244025
-0.00200167
-1.24398
1.24583
0.00391591
-0.00576157
-1.03751
1.03988
0.00798411
-0.0103514
-0.866137
0.869563
0.0134361
-0.0168621
-0.724464
0.729524
0.0214339
-0.026494
-0.608803
0.61567
0.0330699
-0.0399369
-0.514998
0.522915
0.04817
-0.0560878
-0.439911
0.448191
0.0648557
-0.0731362
-0.375298
0.377274
0.0810422
-0.0830186
-0.257139
0.223946
0.0722417
-0.0390489
-0.0691944
0.0598061
0.00938833
-0.0501369
0.0564449
-0.374933
0.368625
-0.0554547
0.051741
-0.453991
0.457704
-0.0467873
0.042719
-0.527983
0.532051
-0.0386374
0.0348635
-0.621065
0.624839
-0.0306972
0.026724
-0.734569
0.738543
-0.022366
0.0184436
-0.873638
0.877561
-0.0144578
0.0111168
-1.04298
1.04632
-0.00782367
0.00507823
-1.24825
1.25099
-0.00223158
-0.000417054
-1.49645
1.4991
0.00304551
-0.00587102
-1.49695
1.49977
0.00858428
-0.0118318
-1.24967
1.25292
0.0151152
-0.0190277
-1.04532
1.04923
0.0228853
-0.027181
-0.876981
0.881277
0.0311116
-0.0352451
-0.739176
0.743309
0.0389855
-0.0430291
-0.626535
0.630579
0.0470652
-0.051987
-0.535263
0.540185
0.0556654
-0.0566161
-0.458231
0.459182
0.0502649
-0.0308146
-0.337229
0.317779
0.00941001
-0.0691304
0.0597204
-0.0544947
0.0509439
0.00355082
-0.0296203
0.0389286
-0.360007
0.350699
-0.041918
0.04106
-0.459642
0.4605
-0.0380357
0.0349342
-0.535696
0.538798
-0.031455
0.0284293
-0.628117
0.631143
-0.025254
0.0224982
-0.741637
0.744393
-0.0196154
0.017086
-0.880682
0.883212
-0.0142762
0.0116522
-1.04939
1.05202
-0.00866353
0.00582266
-1.25392
1.25676
-0.00254387
-0.000671355
-1.50217
1.50538
0.00386068
-0.00707412
-1.50295
1.50617
0.00984374
-0.0127471
-1.25611
1.25901
0.0152992
-0.0180339
-1.05255
1.05529
0.0204816
-0.0232687
-0.884561
0.887348
0.0259402
-0.0290502
-0.746653
0.749763
0.0320162
-0.0354207
-0.634372
0.637777
0.0384675
-0.0414397
-0.544264
0.547236
0.0422468
-0.0391872
-0.457856
0.454796
0.0297972
-0.0142982
-0.299827
0.284328
0.00357847
-0.0543851
0.0508066
-0.0484906
0.0470243
0.00146633
-0.014945
0.0227271
-0.341714
0.333932
-0.0274936
0.0286833
-0.460358
0.459168
-0.0281387
0.0267962
-0.541117
0.54246
-0.0252413
0.0237327
-0.633567
0.635075
-0.0219063
0.0200252
-0.746829
0.748711
-0.0177833
0.0156014
-0.885571
0.887753
-0.0130857
0.0106931
-1.05445
1.05684
-0.00794644
0.0052955
-1.25943
1.26208
-0.00220264
-0.000816351
-1.50844
1.51146
0.00381972
-0.00684851
-1.50923
1.51226
0.00942176
-0.0120925
-1.26172
1.26439
0.0144107
-0.0168219
-1.05783
1.06024
0.0189097
-0.0210421
-0.889909
0.892042
0.0228123
-0.0245509
-0.752382
0.754121
0.025999
-0.0274546
-0.640313
0.641769
0.0287086
-0.0291516
-0.549059
0.549502
0.0278701
-0.0229964
-0.450529
0.445655
0.0151205
-0.00613072
-0.271913
0.262923
0.0014957
-0.048324
0.0468283
-0.0463303
0.0460239
0.000306382
-0.00581869
0.0108092
-0.327676
0.322686
-0.015603
0.0183836
-0.457092
0.454311
-0.0199892
0.0204746
-0.542763
0.542278
-0.0206131
0.0203738
-0.635843
0.636083
-0.0196547
0.0187311
-0.749962
0.750885
-0.0173314
0.0156813
-0.88962
0.89127
-0.013496
0.0111732
-1.05918
1.06151
-0.00831684
0.00548705
-1.26482
1.26765
-0.00215685
-0.00111008
-1.51461
1.51788
0.00434992
-0.00763371
-1.51542
1.5187
0.0103739
-0.0130623
-1.26706
1.26975
0.0152142
-0.0172357
-1.06241
1.06443
0.0187385
-0.0200014
-0.893626
0.894889
0.0208392
-0.021428
-0.75515
0.755739
0.0215344
-0.0212821
-0.642185
0.641932
0.0206996
-0.0189849
-0.54874
0.547026
0.0161051
-0.0111937
-0.440669
0.435758
0.00608462
-0.00195723
-0.256877
0.25275
0.000351474
-0.0460987
0.0457472
-0.0458461
0.0457467
9.94676e-05
-0.00284059
0.00619289
-0.318597
0.315245
-0.0106708
0.0144273
-0.450938
0.447181
-0.0176025
0.0195384
-0.541064
0.539128
-0.0204804
0.0206382
-0.635935
0.635777
-0.0204165
0.0196288
-0.751794
0.752582
-0.018223
0.01652
-0.892952
0.894655
-0.0142056
0.011742
-1.0639
1.06636
-0.00870451
0.00565556
-1.27058
1.27363
-0.00203147
-0.00156071
-1.52128
1.52487
0.00513436
-0.00864061
-1.52208
1.52558
0.0115382
-0.014395
-1.27252
1.27538
0.0166677
-0.0187456
-1.06649
1.06857
0.020237
-0.0214245
-0.89617
0.897358
0.0219572
-0.0219939
-0.755864
0.755901
0.0216896
-0.0205821
-0.641345
0.640238
0.0185094
-0.0151874
-0.544429
0.541107
0.0112858
-0.00663637
-0.43092
0.426271
0.00312934
-0.000907629
-0.24975
0.247528
0.000145438
-0.0455222
0.0453768
-0.0457168
0.045718
-1.19519e-06
-0.00127807
0.00336871
-0.312559
0.310468
-0.00686076
0.0104377
-0.443353
0.439776
-0.0139889
0.0165668
-0.536718
0.53414
-0.0184007
0.0192219
-0.635363
0.634541
-0.0192424
0.0186853
-0.753208
0.753765
-0.0175193
0.0160034
-0.896314
0.89783
-0.0139054
0.0116224
-1.0688
1.07108
-0.00872149
0.00560248
-1.27677
1.27989
-0.00175627
-0.00205968
-1.52864
1.53246
0.00581047
-0.0094919
-1.52923
1.53291
0.0124274
-0.0151192
-1.2782
1.2809
0.0172099
-0.0190803
-1.07059
1.07246
0.0203801
-0.0212573
-0.898316
0.899193
0.0215337
-0.0212721
-0.755969
0.755708
0.0201966
-0.0180967
-0.638507
0.636407
0.0152804
-0.0114824
-0.537356
0.533558
0.00768736
-0.00396675
-0.422
0.41828
0.00167818
-0.000447769
-0.24589
0.24466
6.33868e-05
-0.0452953
0.0452319
-0.0457262
0.0457437
-1.7477e-05
-0.000527553
0.00163642
-0.308906
0.307797
-0.00376921
0.00623831
-0.4367
0.434231
-0.00897982
0.0111432
-0.531689
0.529525
-0.0128854
0.0139015
-0.633571
0.632555
-0.0143676
0.0142834
-0.754097
0.754181
-0.013682
0.0126942
-0.899069
0.900057
-0.0111429
0.00933176
-1.07313
1.07494
-0.00689487
0.00420062
-1.28285
1.28554
-0.000800001
-0.00260159
-1.53615
1.53955
0.00590842
-0.00910785
-1.53644
1.53964
0.0116082
-0.0138885
-1.2834
1.28568
0.0154971
-0.0167219
-1.07404
1.07526
0.0173941
-0.0176575
-0.899839
0.900103
0.0174189
-0.0165285
-0.755058
0.754167
0.0151591
-0.0130502
-0.634224
0.632115
0.0105768
-0.00752262
-0.530031
0.526977
0.00478758
-0.0023757
-0.415211
0.4128
0.00101895
-0.000308928
-0.243721
0.243011
6.19769e-05
-0.0451654
0.0451034
-0.0457769
0.0458189
-4.19622e-05
-8.08179e-05
0.000548405
-0.307054
0.306586
-0.00158589
0.00291773
-0.432367
0.431036
-0.00454472
0.00594119
-0.527734
0.526338
-0.00721725
0.00808252
-0.631574
0.630709
-0.00865868
0.00882414
-0.754092
0.753926
-0.00859446
0.00801389
-0.900817
0.901397
-0.00696808
0.00564214
-1.07651
1.07784
-0.00378642
0.00178052
-1.2879
1.28991
0.000748963
-0.00330042
-1.54255
1.5451
0.00576358
-0.00802838
-1.54239
1.54466
0.00973782
-0.0113508
-1.28767
1.28928
0.012368
-0.0129182
-1.07613
1.07668
0.0130137
-0.0127269
-0.900043
0.899757
0.0121143
-0.0110769
-0.753157
0.75212
0.00981548
-0.00813086
-0.630183
0.628498
0.00638518
-0.00439896
-0.524468
0.522481
0.00275356
-0.00138212
-0.410967
0.409596
0.000624395
-0.000209043
-0.242476
0.242061
4.69653e-05
-0.0450515
0.0450045
-0.0458695
0.045928
-5.85539e-05
0.000168038
-4.11807e-05
-0.306306
0.30618
-0.00036931
0.000958973
-0.430126
0.429537
-0.00173785
0.00245438
-0.525308
0.524591
-0.00315957
0.0036756
-0.63001
0.629494
-0.00405025
0.00416933
-0.753761
0.753642
-0.00402784
0.00364341
-0.901856
0.902241
-0.00292338
0.0019842
-1.07895
1.07989
-0.000664559
-0.000726734
-1.29158
1.29297
0.00244573
-0.00417071
-1.54722
1.54894
0.00581057
-0.00723447
-1.54647
1.5479
0.00822862
-0.00904807
-1.29049
1.29131
0.00944145
-0.00952877
-1.07697
1.07706
0.00932112
-0.00882681
-0.899335
0.89884
0.00816053
-0.00723825
-0.751123
0.750201
0.00625499
-0.00506948
-0.627076
0.62589
0.00393957
-0.00273442
-0.520936
0.519731
0.00177464
-0.000975028
-0.408562
0.407762
0.000502155
-0.00019979
-0.241718
0.241416
5.39841e-05
-0.0449557
0.0449017
-0.0459984
0.046077
-7.86092e-05
0.000367652
-0.000424326
-0.306164
0.306221
0.000364741
-0.000192329
-0.429183
0.42901
-7.3705e-05
0.000329849
-0.52413
0.523874
-0.000582377
0.000757239
-0.629156
0.628981
-0.000852451
0.000815088
-0.753594
0.753631
-0.000616167
0.000274613
-0.902588
0.90293
0.000294032
-0.000995464
-1.08069
1.08139
0.00195011
-0.00292441
-1.29413
1.2951
0.00409663
-0.00523109
-1.55034
1.55148
0.00625986
-0.00709336
-1.54899
1.54983
0.00754981
-0.00769492
-1.29176
1.2919
0.00767405
-0.00747901
-1.07699
1.0768
0.00713018
-0.0065799
-0.898311
0.89776
0.00596008
-0.00519286
-0.749361
0.748593
0.00444212
-0.00359727
-0.624899
0.624054
0.00283543
-0.00205035
-0.518774
0.517989
0.00142521
-0.000876905
-0.407117
0.406569
0.000509436
-0.000228743
-0.241132
0.240851
6.84984e-05
-0.0448412
0.0447727
-0.0461656
0.0462648
-9.9203e-05
0.000539503
-0.000744211
-0.306354
0.306559
0.000886021
-0.000960945
-0.428975
0.42905
0.00100761
-0.00104901
-0.523782
0.523824
0.00111496
-0.00120982
-0.628951
0.629046
0.0013693
-0.00158478
-0.753757
0.753973
0.00191228
-0.00230499
-0.903288
0.903681
0.00284824
-0.00344841
-1.08203
1.08263
0.00420907
-0.00495187
-1.29594
1.29668
0.0057939
-0.00654248
-1.5524
1.55315
0.00714275
-0.00754273
-1.55044
1.55084
0.00765162
-0.00751024
-1.29187
1.29173
0.00718169
-0.00677081
-1.07649
1.07607
0.00630276
-0.00570335
-0.897188
0.896588
0.00510452
-0.0044191
-0.747878
0.747193
0.00378701
-0.00310701
-0.623311
0.622631
0.0025126
-0.00190631
-0.517315
0.516709
0.00141078
-0.00094304
-0.406076
0.405608
0.000589092
-0.000281635
-0.240562
0.240254
8.85226e-05
-0.0446948
0.0446063
-0.0463773
0.0465044
-0.000127092
0.000727218
-0.00104908
-0.306823
0.307145
0.00135895
-0.00160867
-0.429216
0.429466
0.00186989
-0.00211997
-0.523976
0.524226
0.0024205
-0.00272708
-0.629251
0.629558
0.00310561
-0.00349814
-0.754277
0.754669
0.00398547
-0.004486
-0.904122
0.904622
0.00509588
-0.0057018
-1.08322
1.08382
0.00640314
-0.0070411
-1.29736
1.298
0.00769696
-0.00819776
-1.55376
1.55426
0.0085051
-0.008583
-1.55106
1.55114
0.00843837
-0.00804273
-1.29146
1.29106
0.00757416
-0.00700148
-1.07558
1.07501
0.00642299
-0.0057499
-0.895957
0.895284
0.00511985
-0.00443225
-0.746516
0.745829
0.00382023
-0.00317829
-0.621982
0.62134
0.00262522
-0.00206021
-0.516136
0.515571
0.00158465
-0.00110801
-0.405144
0.404668
0.000717095
-0.000352738
-0.239922
0.239557
0.000113248
-0.044506
0.0443927
-0.0466477
0.0468087
-0.000160969
0.000942889
-0.00138585
-0.307526
0.307968
0.00184678
-0.00225061
-0.429793
0.430197
0.00269589
-0.00312511
-0.524567
0.524996
0.00363121
-0.00412973
-0.629961
0.630459
0.00471768
-0.0052942
-0.755152
0.755729
0.00596786
-0.00661747
-0.905193
0.905842
0.0073578
-0.00804441
-1.08446
1.08515
0.00878204
-0.00940293
-1.29862
1.29924
0.00997132
-0.0103183
-1.55467
1.55502
0.0104191
-0.0102514
-1.55108
1.55092
0.00989138
-0.00931105
-1.29058
1.28999
0.00868637
-0.00794436
-1.07435
1.07361
0.007234
-0.0064433
-0.894558
0.893767
0.00572779
-0.00496624
-0.745112
0.74435
0.00430065
-0.00361127
-0.620684
0.619994
0.00302086
-0.00241531
-0.514994
0.514389
0.001895
-0.00135412
-0.404165
0.403624
0.000890755
-0.000443756
-0.239155
0.238708
0.000143768
-0.044265
0.0441213
-0.0469911
0.0471963
-0.000205204
0.00121382
-0.00179767
-0.308478
0.309062
0.00242298
-0.00298654
-0.430677
0.431241
0.00361824
-0.0042288
-0.525513
0.526123
0.00494401
-0.00564151
-0.631055
0.631753
0.00645278
-0.0072339
-0.756405
0.757186
0.00812646
-0.00896433
-0.906581
0.907419
0.00988891
-0.0107142
-1.0859
1.08672
0.0115593
-0.0122281
-1.29988
1.30055
0.0127787
-0.0130334
-1.55531
1.55557
0.0129768
-0.0126003
-1.55064
1.55027
0.0120391
-0.011252
-1.28932
1.28853
0.010442
-0.00950089
-1.07278
1.07184
0.008622
-0.00766359
-0.892899
0.891941
0.00681023
-0.00591254
-0.743529
0.742631
0.00513457
-0.00433339
-0.619257
0.618456
0.00364875
-0.00294444
-0.513741
0.513036
0.00233213
-0.00168322
-0.403034
0.402385
0.00111526
-0.000558513
-0.23821
0.237653
0.000181556
-0.0439597
0.0437782
-0.0474307
0.047694
-0.000263339
0.00156307
-0.00232195
-0.309727
0.310486
0.00314439
-0.00389405
-0.431889
0.432638
0.00473892
-0.00555559
-0.52683
0.527647
0.00650838
-0.00743334
-0.63256
0.633485
0.00850269
-0.00952476
-0.758084
0.759106
0.0106815
-0.0117542
-0.908368
0.909441
0.0129189
-0.0139371
-1.08764
1.08866
0.0149501
-0.0157188
-1.30126
1.30203
0.0163016
-0.0164993
-1.55579
1.55599
0.0163049
-0.0157201
-1.54979
1.5492
0.0149424
-0.0139089
-1.28762
1.28659
0.0128693
-0.0116789
-1.07078
1.06959
0.0105813
-0.00939646
-0.890876
0.889692
0.0083495
-0.00725446
-0.741642
0.740547
0.00630926
-0.00533809
-0.617577
0.616606
0.00450873
-0.00365376
-0.512264
0.511409
0.00290599
-0.00210616
-0.401667
0.400868
0.00139933
-0.000701906
-0.23703
0.236333
0.000228341
-0.0435747
0.0433464
-0.0479973
0.0483382
-0.000340907
0.0020216
-0.00300596
-0.311347
0.312331
0.00407837
-0.00505938
-0.433484
0.434465
0.00616368
-0.00722821
-0.528578
0.529643
0.0084648
-0.00966219
-0.634547
0.635744
0.011043
-0.0123593
-0.760273
0.761589
0.0138428
-0.0152099
-0.910652
0.91202
0.0166806
-0.0179498
-1.08979
1.09106
0.0191893
-0.0201026
-1.30286
1.30377
0.0207534
-0.0209095
-1.55616
1.55632
0.020572
-0.0197527
-1.54851
1.54769
0.0187185
-0.0173809
-1.28541
1.28407
0.0160534
-0.0145476
-1.06825
1.06674
0.0131695
-0.0116901
-0.888366
0.886887
0.010388
-0.00902979
-0.739328
0.737969
0.00785922
-0.00665717
-0.615529
0.614327
0.00563019
-0.00457002
-0.510463
0.509403
0.00364031
-0.00264221
-0.399977
0.398979
0.00175702
-0.000881482
-0.235552
0.234677
0.000286673
-0.0430915
0.0428048
-0.0487319
0.049179
-0.000447007
0.0026343
-0.00391502
-0.313441
0.314722
0.00531202
-0.00658596
-0.435558
0.436832
0.00800939
-0.00937468
-0.530859
0.532224
0.0109541
-0.0124839
-0.637127
0.638657
0.0142501
-0.0159355
-0.763092
0.764778
0.0178323
-0.0195735
-0.913555
0.915297
0.0214332
-0.0230219
-1.09247
1.09406
0.0245503
-0.02565
-1.30477
1.30587
0.0263929
-0.0265047
-1.55645
1.55657
0.0259966
-0.0248915
-1.54673
1.54563
0.0235401
-0.0218215
-1.28256
1.28084
0.0201323
-0.0182288
-1.06504
1.06314
0.0164958
-0.0146424
-0.885223
0.88337
0.0130157
-0.0113212
-0.736447
0.734752
0.00986095
-0.00835985
-0.612989
0.611488
0.00707477
-0.00574497
-0.50823
0.5069
0.00457676
-0.0033216
-0.397868
0.396613
0.00220862
-0.00110786
-0.233698
0.232597
0.000360456
-0.0424868
0.0421264
-0.0496914
0.0502877
-0.000596295
0.00347104
-0.00514582
-0.316154
0.317829
0.0069622
-0.00859811
-0.43825
0.439885
0.0104016
-0.0121233
-0.533824
0.535546
0.0141162
-0.0160596
-0.640459
0.642403
0.0183183
-0.0204825
-0.766698
0.768863
0.0229167
-0.0251409
-0.917227
0.919451
0.0274969
-0.0294866
-1.09579
1.09778
0.0313715
-0.0326955
-1.30705
1.30838
0.0335413
-0.033587
-1.55664
1.55668
0.0328571
-0.0313894
-1.54434
1.54288
0.0296387
-0.027441
-1.27889
1.27669
0.0252984
-0.0228968
-1.06099
1.05859
0.02072
-0.0183999
-0.881272
0.878952
0.0163688
-0.0142558
-0.732838
0.730725
0.012434
-0.0105564
-0.609814
0.607936
0.00894188
-0.0072623
-0.505442
0.503762
0.00578201
-0.00419141
-0.395227
0.393637
0.00278559
-0.0013978
-0.231371
0.229984
0.000456175
-0.0417333
0.0412772
-0.0509587
0.0517655
-0.000806769
0.00462358
-0.00682122
-0.31969
0.321887
0.00916959
-0.0112421
-0.441758
0.44383
0.0134941
-0.0156444
-0.537683
0.539833
0.0181594
-0.0206468
-0.644747
0.647234
0.0235686
-0.0263723
-0.77129
0.774094
0.0295076
-0.0323469
-0.92185
0.924689
0.0353205
-0.0377947
-1.09991
1.10238
0.0400951
-0.0416649
-1.30976
1.31133
0.0425986
-0.0425269
-1.55664
1.55657
0.0414948
-0.0395583
-1.54117
1.53923
0.0373019
-0.0345046
-1.27419
1.2714
0.0317967
-0.0287765
-1.05586
1.05284
0.0260501
-0.023155
-0.876302
0.873407
0.0206288
-0.0180064
-0.728307
0.725685
0.0157451
-0.0134077
-0.605832
0.603494
0.0113836
-0.00925746
-0.50195
0.499824
0.0073681
-0.00533145
-0.391919
0.389882
0.00354001
-0.00177791
-0.228458
0.226696
0.000583809
-0.0407983
0.0402145
-0.0526617
0.0537677
-0.001106
0.00623902
-0.00914449
-0.324335
0.32724
0.0121871
-0.0148132
-0.446346
0.448972
0.017637
-0.0203513
-0.542695
0.545409
0.0235832
-0.0268227
-0.650249
0.653489
0.0306409
-0.0342817
-0.777122
0.780763
0.038306
-0.0418898
-0.927648
0.931232
0.0455789
-0.0485897
-1.10495
1.10796
0.05132
-0.0531108
-1.31291
1.3147
0.0540615
-0.0537707
-1.55634
1.55605
0.0523114
-0.0497622
-1.53697
1.53443
0.0468679
-0.0433244
-1.26821
1.26467
0.039919
-0.0361379
-1.04941
1.04563
0.0327363
-0.0291368
-0.870064
0.866465
0.0260078
-0.022772
-0.72262
0.719385
0.0199872
-0.0171064
-0.600829
0.597948
0.0145936
-0.0119186
-0.497567
0.494892
0.00950323
-0.00686868
-0.387776
0.385142
0.00455351
-0.00228512
-0.224818
0.22255
0.000754236
-0.0396403
0.038886
-0.054996
0.056563
-0.00156697
0.00867783
-0.012597
-0.330491
0.33441
0.0165824
-0.0199435
-0.452371
0.455732
0.0235342
-0.027038
-0.54921
0.552714
0.0312852
-0.0355581
-0.657316
0.661589
0.0405468
-0.0452125
-0.784533
0.789199
0.050266
-0.0546722
-0.934865
0.939271
0.0591128
-0.0626494
-1.111
1.11454
0.0657496
-0.0676643
-1.31641
1.31833
0.0684827
-0.0678027
-1.55549
1.55481
0.065736
-0.0623876
-1.53145
1.5281
0.0586945
-0.054236
-1.26065
1.25619
0.0499834
-0.0452794
-1.04133
1.03662
0.0410544
-0.0365904
-0.862277
0.857813
0.0327194
-0.0287319
-0.715509
0.711522
0.0253143
-0.0217895
-0.594549
0.591024
0.018704
-0.0153821
-0.492049
0.488727
0.0123224
-0.00891938
-0.382574
0.379171
0.00590296
-0.00294763
-0.220265
0.21731
0.000969482
-0.0381988
0.0372293
-0.0582752
0.0606461
-0.0023709
0.0127316
-0.0181187
-0.338786
0.344173
0.0233282
-0.0276367
-0.460398
0.464707
0.0322665
-0.0368827
-0.557745
0.562362
0.0425224
-0.0481216
-0.666429
0.672028
0.0545059
-0.0603135
-0.793901
0.799708
0.0664516
-0.0716785
-0.943676
0.948903
0.0768161
-0.0807785
-1.11802
1.12198
0.0840873
-0.0859367
-1.32004
1.32189
0.0863836
-0.0850741
-1.55373
1.55242
0.0821693
-0.0778016
-1.5242
1.51983
0.0731319
-0.0675829
-1.25116
1.24561
0.0623327
-0.0565441
-1.03131
1.02552
0.0513455
-0.0458439
-0.852635
0.847134
0.0410654
-0.0361429
-0.706679
0.701757
0.0319317
-0.0276029
-0.586705
0.582376
0.0238153
-0.0197225
-0.485096
0.481003
0.0158957
-0.0115653
-0.375981
0.371651
0.00765794
-0.00379933
-0.214524
0.210665
0.0012337
-0.0363852
0.0351515
-0.063086
0.0669793
-0.0038933
0.0198587
-0.027404
-0.350305
0.35785
0.0342871
-0.0399217
-0.471252
0.476886
0.0460508
-0.0522395
-0.568988
0.575176
0.0596781
-0.0668061
-0.678148
0.685276
0.0746355
-0.081523
-0.805502
0.81239
0.0885921
-0.094436
-0.954029
0.959873
0.0999789
-0.104052
-1.1257
1.12977
0.107186
-0.108608
-1.32331
1.32474
0.10829
-0.106015
-1.55049
1.54822
0.101986
-0.0963602
-1.51477
1.50914
0.0905449
-0.0837566
-1.23941
1.23262
0.0773937
-0.070407
-1.01907
1.01208
0.0641323
-0.0574719
-0.840845
0.834185
0.0516598
-0.0456456
-0.695817
0.689803
0.0404803
-0.0351624
-0.576967
0.571649
0.0305094
-0.0254634
-0.476337
0.471291
0.0206531
-0.0151312
-0.36755
0.362028
0.0100462
-0.00496719
-0.20717
0.202091
0.00158866
-0.0340787
0.0324901
-0.0706545
0.0779115
-0.00725706
0.0337358
-0.0447572
-0.367122
0.378143
0.0539055
-0.0611481
-0.486128
0.49337
0.0691875
-0.0772551
-0.583683
0.591751
0.0865706
-0.0950413
-0.692763
0.701234
0.103946
-0.111482
-0.819118
0.826654
0.118931
-0.124818
-0.96536
0.971247
0.1301
-0.133656
-1.13327
1.13683
0.135959
-0.13637
-1.32542
1.32583
0.134729
-0.13103
-1.54506
1.54136
0.125519
-0.118378
-1.50265
1.49551
0.111256
-0.103125
-1.2251
1.21696
0.095593
-0.0873818
-1.00439
0.996176
0.0800254
-0.0722132
-0.826711
0.818899
0.0653739
-0.0582572
-0.682675
0.675559
0.0521067
-0.045755
-0.564995
0.558643
0.0401969
-0.0341167
-0.465303
0.459223
0.0280965
-0.0207651
-0.356622
0.349291
0.0137213
-0.00661079
-0.197483
0.190372
0.00201205
-0.0311302
0.0291181
-0.0850927
0.0881141
-0.00302142
0.021704
-0.0311525
-0.39243
0.401878
0.039813
-0.0475929
-0.506049
0.513829
0.0568966
-0.0666887
-0.60161
0.611402
0.0774469
-0.0870305
-0.709372
0.718956
0.097687
-0.107107
-0.83346
0.84288
0.116892
-0.125285
-0.976235
0.984627
0.133634
-0.140325
-1.13935
1.14604
0.146291
-0.150202
-1.32512
1.32903
0.152305
-0.151726
-1.53648
1.5359
0.148331
-0.142501
-1.48733
1.4815
0.135607
-0.126802
-1.20802
1.19922
0.118138
-0.107681
-0.987253
0.976795
0.0980169
-0.0873119
-0.810298
0.799593
0.0776664
-0.0673493
-0.667325
0.657008
0.0579849
-0.0483708
-0.550761
0.541147
0.0401254
-0.030926
-0.451659
0.44246
0.0224035
-0.0135224
-0.342084
0.333202
0.0068181
-0.00208549
-0.183851
0.179118
8.69195e-05
-0.0271869
0.0271
-0.0955089
0.0913543
0.00415455
-0.00204725
-0.00334884
-0.414503
0.419899
0.0107252
-0.0178234
-0.525601
0.532699
0.0267319
-0.0352186
-0.621305
0.629791
0.0448371
-0.0535986
-0.72852
0.737281
0.0629427
-0.0714132
-0.851882
0.860352
0.0802323
-0.0875289
-0.992787
1.00008
0.095013
-0.100724
-1.15263
1.15835
0.105817
-0.108938
-1.33279
1.33591
0.110102
-0.108915
-1.53472
1.53353
0.1051
-0.099062
-1.47512
1.46908
0.0919896
-0.0832598
-1.19016
1.18143
0.0748434
-0.0652068
-0.966318
0.956682
0.0561693
-0.0461286
-0.788424
0.778383
0.0371272
-0.0278726
-0.645243
0.635989
0.0199637
-0.0118495
-0.529272
0.521158
0.00492894
0.00171583
-0.43068
0.424035
-0.00646886
0.00934283
-0.322887
0.320013
-0.00899276
0.00600252
-0.172257
0.175247
-0.00257691
-0.0255998
0.0281767
-0.0934912
0.0894208
0.00407039
-0.0091674
0.00700501
-0.429142
0.431304
-0.00221299
-0.00356488
-0.542187
0.547965
0.0107701
-0.0179243
-0.638418
0.645573
0.0260032
-0.0334182
-0.745555
0.75297
0.0415547
-0.048803
-0.868193
0.875441
0.0561548
-0.0626117
-1.00726
1.01371
0.0690849
-0.0741511
-1.16375
1.16881
0.0783272
-0.0807526
-1.33856
1.34098
0.081687
-0.0803799
-1.53196
1.53065
0.0767571
-0.0712821
-1.4629
1.45743
0.0650704
-0.0577157
-1.17314
1.16579
0.0504312
-0.0424644
-0.947395
0.939429
0.0351477
-0.0271807
-0.769232
0.761265
0.0203823
-0.013437
-0.626798
0.619853
0.00775206
-0.00198361
-0.511902
0.506134
-0.00242905
0.00623099
-0.415502
0.4117
-0.00857107
0.00900371
-0.313472
0.313039
-0.00718604
0.00418226
-0.172901
0.175904
-0.00169136
-0.0281741
0.0298655
-0.090217
0.0865167
0.00370024
-0.0110309
0.0106958
-0.438275
0.43861
-0.00758544
0.00295176
-0.555115
0.559749
0.00313421
-0.00895032
-0.652421
0.658237
0.0156788
-0.0218862
-0.760095
0.766303
0.0286723
-0.0347579
-0.882242
0.888327
0.0413292
-0.0467706
-1.0198
1.02524
0.0524651
-0.056555
-1.17361
1.1777
0.0602809
-0.0624881
-1.34341
1.34562
0.0632709
-0.0619363
-1.52928
1.52795
0.058947
-0.0544344
-1.45196
1.44744
0.0492844
-0.0429536
-1.15883
1.1525
0.0370688
-0.0307462
-0.931888
0.925566
0.0248752
-0.0188582
-0.754036
0.748019
0.0134388
-0.00816023
-0.612834
0.607556
0.00387675
7.05975e-05
-0.499538
0.49559
-0.0028956
0.00521303
-0.405448
0.403131
-0.00651269
0.00622545
-0.308294
0.308581
-0.00479041
0.0027536
-0.173865
0.175901
-0.00115077
-0.0293281
0.0304789
-0.0873049
0.0843356
0.00296926
-0.0105367
0.0113452
-0.444081
0.443273
-0.00892229
0.00530465
-0.565685
0.569303
-0.000468488
-0.00462329
-0.664023
0.669114
0.010135
-0.015482
-0.772115
0.777462
0.0212434
-0.0264465
-0.894058
0.899261
0.0320281
-0.0368587
-1.0306
1.03543
0.041706
-0.0455535
-1.18176
1.18561
0.0488884
-0.0509069
-1.34767
1.34969
0.0517162
-0.0506672
-1.52675
1.52571
0.0482217
-0.0443082
-1.44273
1.43882
0.0400066
-0.0348619
-1.14663
1.14149
0.0299999
-0.02469
-0.919484
0.914174
0.0199802
-0.0150773
-0.742245
0.737342
0.0108735
-0.00669965
-0.602337
0.598163
0.00342421
-0.000460189
-0.490639
0.487675
-0.00178077
0.00346673
-0.398495
0.396809
-0.00423139
0.00427992
-0.304655
0.304607
-0.0034475
0.00193574
-0.173314
0.174826
-0.000875183
-0.0296515
0.0305266
-0.0851521
0.0827624
0.00238969
-0.00922122
0.0101533
-0.44777
0.446838
-0.00878518
0.00574884
-0.573793
0.57683
-0.00133927
-0.00287792
-0.673706
0.677923
0.00750146
-0.0120456
-0.782279
0.786823
0.0170615
-0.0216326
-0.904192
0.908763
0.0266839
-0.030894
-1.04002
1.04423
0.0352856
-0.0388323
-1.18927
1.19281
0.0419277
-0.0438704
-1.35163
1.35357
0.0447522
-0.0443044
-1.52482
1.52437
0.042251
-0.0390564
-1.43481
1.43162
0.0353344
-0.0308739
-1.1365
1.13204
0.0268784
-0.0221888
-0.909072
0.904382
0.0180931
-0.0139767
-0.732628
0.728512
0.0103848
-0.00680426
-0.594064
0.590483
0.00393673
-0.00116224
-0.48376
0.480986
-0.000625447
0.00209079
-0.392985
0.391519
-0.00305848
0.00323047
-0.301024
0.300852
-0.00261864
0.00155172
-0.172019
0.173086
-0.00070009
-0.0295519
0.030252
-0.0837156
0.0819207
0.00179492
-0.00748898
0.00850607
-0.4504
0.449383
-0.00729212
0.00495243
-0.580814
0.583153
-0.00109695
-0.0025772
-0.681914
0.685588
0.00686514
-0.0106798
-0.791168
0.794982
0.0149904
-0.018972
-0.913359
0.917341
0.0237184
-0.0275221
-1.04851
1.05231
0.0314365
-0.0348487
-1.19624
1.19966
0.0381918
-0.0401363
-1.35564
1.35759
0.0412899
-0.0410435
-1.52374
1.52349
0.039649
-0.0366829
-1.42843
1.42546
0.0335545
-0.0297228
-1.12762
1.12379
0.0260389
-0.0219852
-0.8999
0.895847
0.0182461
-0.014333
-0.724279
0.720366
0.0112643
-0.00788175
-0.586766
0.583384
0.00508592
-0.00260155
-0.477551
0.475067
0.000723262
0.000916338
-0.388203
0.386563
-0.00183609
0.00218614
-0.297681
0.297331
-0.00186486
0.00115988
-0.170394
0.171099
-0.000555352
-0.029235
0.0297904
-0.0829918
0.0815998
0.00139208
-0.00589456
0.00687663
-0.452457
0.451475
-0.00570286
0.00351611
-0.586757
0.588943
-0.000137482
-0.00302777
-0.689083
0.692248
0.00658787
-0.0101919
-0.798878
0.802482
0.0140795
-0.0181311
-0.921183
0.925234
0.0221358
-0.0257383
-1.05623
1.05983
0.0297721
-0.0329817
-1.20301
1.20622
0.0359396
-0.038378
-1.35953
1.36197
0.0398583
-0.0400461
-1.52343
1.52362
0.0389534
-0.0366465
-1.4228
1.42049
0.0338715
-0.0303548
-1.11974
1.11623
0.0270008
-0.0231718
-0.891729
0.8879
0.0196395
-0.0160505
-0.716525
0.712936
0.0128039
-0.0095788
-0.579835
0.57661
0.00692838
-0.0042514
-0.471902
0.469225
0.00220528
-0.000676247
-0.383392
0.381863
-0.00041111
0.00107743
-0.294229
0.293563
-0.00114842
0.000778743
-0.168476
0.168846
-0.000424479
-0.0287739
0.0291984
-0.0828798
0.0817048
0.00117504
-0.00435836
0.00501199
-0.454393
0.453739
-0.00404687
0.0019675
-0.592021
0.594101
0.000955276
-0.0039067
-0.695531
0.698482
0.00722948
-0.0103976
-0.805984
0.809152
0.0143389
-0.0176009
-0.928777
0.932039
0.0215333
-0.024936
-1.06361
1.06702
0.0288494
-0.0322554
-1.20946
1.21287
0.0355262
-0.0378236
-1.36426
1.36655
0.0397338
-0.0404132
-1.52384
1.52452
0.0400097
-0.0380144
-1.41814
1.41615
0.035604
-0.0323379
-1.11281
1.10954
0.0291763
-0.0254106
-0.883852
0.880086
0.0220351
-0.018352
-0.709102
0.705419
0.015105
-0.0117698
-0.573156
0.569821
0.0089213
-0.00632341
-0.466069
0.463472
0.00407198
-0.00229209
-0.378556
0.376777
0.000895536
2.33542e-05
-0.290521
0.289602
-0.00038086
0.000480999
-0.166139
0.166039
-0.00030834
-0.0281199
0.0284283
-0.083028
0.082162
0.00086601
-0.00316108
0.00330548
-0.456548
0.456404
-0.00255352
0.000561517
-0.596451
0.598443
0.00194433
-0.00470217
-0.701316
0.704074
0.00779474
-0.0110264
-0.81226
0.815492
0.0143339
-0.0177006
-0.935513
0.93888
0.0215568
-0.0247334
-1.07086
1.07403
0.0287124
-0.0320725
-1.21614
1.2195
0.0354274
-0.0382806
-1.36933
1.37218
0.0407409
-0.0417896
-1.52532
1.52637
0.0417017
-0.0404067
-1.41437
1.41308
0.0384473
-0.0353694
-1.10613
1.10305
0.0322337
-0.0286965
-0.876191
0.872654
0.024972
-0.0213635
-0.701447
0.697838
0.0180297
-0.0144867
-0.56644
0.562897
0.0116263
-0.00870612
-0.460067
0.457147
0.00632848
-0.00409239
-0.373683
0.371447
0.00253283
-0.00129937
-0.286468
0.285235
0.000416871
0.000113544
-0.163365
0.162835
-0.000219092
-0.0272284
0.0274475
-0.083528
0.0827792
0.000748783
-0.00228587
0.00242894
-0.458897
0.458754
-0.00120727
-0.000465432
-0.6008
0.602473
0.00301879
-0.00558383
-0.70649
0.709055
0.00847269
-0.0112789
-0.818462
0.821269
0.0146454
-0.0176659
-0.942254
0.945274
0.0214232
-0.0249736
-1.07766
1.08121
0.0285852
-0.0322541
-1.22296
1.22662
0.0360297
-0.0390228
-1.37504
1.37803
0.041931
-0.0438348
-1.52776
1.52966
0.0442737
-0.0436455
-1.41172
1.41109
0.0418757
-0.0391257
-1.09999
1.09724
0.0361981
-0.032553
-0.868676
0.865031
0.0289096
-0.0250895
-0.693681
0.689861
0.0215994
-0.0177869
-0.559122
0.555309
0.0146
-0.0114931
-0.453711
0.450604
0.00870079
-0.0061718
-0.368211
0.365682
0.00424615
-0.00262677
-0.281881
0.280262
0.0013997
-0.000359064
-0.160122
0.159082
-7.24226e-05
-0.0261681
0.0262405
-0.0841924
0.083579
0.000613393
-0.00141076
0.00135731
-0.461341
0.461394
-0.000369715
-0.00150458
-0.6046
0.606474
0.00387885
-0.00621961
-0.711314
0.713655
0.00912395
-0.011737
-0.824079
0.826692
0.0149023
-0.017986
-0.948739
0.951822
0.021592
-0.0250599
-1.08462
1.08809
0.0288434
-0.0325253
-1.23026
1.23394
0.0364959
-0.0402562
-1.38142
1.38518
0.0436909
-0.046015
-1.53168
1.53401
0.0472625
-0.0470683
-1.41044
1.41025
0.0458929
-0.043635
-1.09445
1.09219
0.0406681
-0.0370422
-0.86109
0.857464
0.0333433
-0.029216
-0.685607
0.68148
0.0255964
-0.0214685
-0.551462
0.547334
0.0180437