/*--------------------------------*- C++ -*----------------------------------*\
  =========                 |
  \\      /  F ield         | OpenFOAM: The Open Source CFD Toolbox
   \\    /   O peration     | Website:  https://openfoam.org
    \\  /    A nd           | Version:  9
     \\/     M anipulation  |
\*---------------------------------------------------------------------------*/
FoamFile
{
    format      ascii;
    class       volScalarField;
    location    "50";
    object      p;
}
// * * * * * * * * * * * * * * * * * * * * * * * * * * * * * * * * * * * * * //

dimensions      [0 2 -2 0 0 0 0];

internalField   nonuniform List<scalar> 
918
(
0.56137
1.20082
0.00191509
0.560761
-0.00804701
1.16781
-0.497547
0.698579
0.54154
-0.0957682
-0.0283721
0.538901
1.02864
0.794421
-1.11878
-0.00230067
0.658961
-0.376847
0.540609
-0.0413458
0.727851
0.548105
0.551133
0.541716
0.608402
0.770015
0.909845
0.0205552
0.00846219
0.00399641
-0.0124346
-0.0331921
-0.0274549
1.05145
1.10254
1.12524
0.50957
0.338171
-0.364675
-0.433439
-0.425969
-0.541511
0.693477
0.69223
-0.191503
0.701353
0.705959
0.52865
0.540907
0.541813
0.542864
0.541831
0.54322
0.414528
-0.0988748
-0.131563
-0.0753853
-0.0668378
0.0682843
-0.0305246
-0.0325017
-0.0264227
-0.0264248
0.459389
0.533957
0.530997
0.544157
0.553457
1.14037
1.11228
1.13842
1.05216
1.0686
1.00661
0.979209
0.815011
0.837144
0.780114
0.765843
-1.55386
-2.51085
-0.525855
-0.273667
-0.0150572
0.00192887
0.00932076
0.65402
0.654168
0.660178
0.66636
1.08773
-0.375887
-0.474404
0.540745
0.539546
0.547901
0.548598
0.544614
0.543706
-0.0332119
-0.0305119
-0.0394309
-0.0399933
-0.0378141
0.716894
0.715575
0.542251
0.539263
0.560239
0.5813
0.573385
0.2859
0.611808
0.625653
0.599729
0.760758
0.755813
0.764243
0.883514
0.847426
0.946699
0.969925
0.0169545
-0.000230143
-0.00894259
-0.0167942
-0.014407
0.505448
0.498071
0.524913
0.512961
0.515436
0.254086
0.119529
0.423842
0.449139
-0.281204
-0.343237
-0.422992
-0.451266
-0.56226
0.614227
0.685167
0.682488
-0.205776
-0.132573
-0.263461
-0.0592464
-0.120468
0.518982
0.525943
0.520968
0.536451
0.530933
0.532889
0.545161
0.542238
0.543795
0.476943
0.600647
0.340937
0.306392
-0.237818
-0.149016
-0.238905
-0.0549041
-0.0505511
0.082098
0.107414
0.0552645
0.0434465
-0.0434591
-0.0355607
-0.0392893
-0.0252458
-0.0265322
0.452274
0.441266
0.471964
0.479425
0.523328
0.524603
0.52826
0.526557
0.929972
0.952438
0.959919
0.93357
-3.5066
-6.29982
0.0531442
0.190529
-0.00535364
-0.0105025
0.00435591
-0.0079791
-0.00211083
-0.00343473
0.00697695
0.0049821
0.00827434
0.0106829
0.646609
0.64688
1.0075
1.01076
0.986235
0.937867
0.528896
0.530988
0.536515
0.532384
-0.0253291
-0.0276078
-0.0251713
0.707924
0.713132
0.711429
0.248103
0.159812
0.336196
0.364802
0.639534
0.628388
0.638204
0.661375
0.697764
0.977385
0.995589
0.993797
1.00208
1.04604
1.06238
1.02784
0.485158
0.495
0.490024
0.528075
0.525814
0.526736
0.522385
0.523793
0.521664
-0.0318465
-0.414095
0.498501
0.516654
0.498758
0.503574
0.693591
0.770792
0.667653
0.676378
0.673853
0.00892205
-0.0490682
0.262459
0.229134
0.392677
0.428594
0.407813
0.901331
0.861354
0.911554
0.884867
0.846009
0.872396
-0.365828
-1.87245
-0.987801
0.542385
0.355749
0.443714
0.0253626
0.00812671
0.013376
1.00411
1.07966
0.656586
0.828394
0.833388
0.732281
0.761413
0.821644
0.747261
0.782198
0.815986
0.793814
0.571116
0.511637
0.524983
0.839975
0.895876
0.131152
0.0721465
0.0279402
0.126036
0.182383
0.156946
1.0411
0.950767
1.02189
0.539017
0.539726
0.000262778
-0.010239
0.543922
0.543971
-0.0120742
0.000981734
0.426118
-0.827821
0.113716
0.532459
0.522514
0.539555
-0.0792955
0.367333
-0.0304118
0.0634177
0.00806377
0.536316
0.470299
0.430043
0.00530029
-0.0103367
-0.0358306
-0.207856
0.536688
0.534994
0.539023
0.539983
0.540653
-0.011803
-0.00740825
-0.00573299
-0.0343115
-0.0298461
-0.0402783
0.503766
0.522155
-0.161975
0.539163
0.541288
0.541111
0.534337
0.539981
0.538223
-0.00280851
-0.0110469
-0.0114279
0.230157
0.358453
0.667876
0.756897
0.639234
0.413396
0.176547
0.569868
0.633601
0.538674
0.693037
0.681304
0.696465
0.179008
0.0291628
0.187858
0.129604
0.530318
0.529007
0.520772
0.517787
0.534418
0.532523
0.537088
0.534086
0.537037
0.538428
-0.0370922
-0.0606294
-0.0746386
-0.140982
0.322521
0.58418
0.264249
0.294853
0.15564
-0.0232895
-0.0243575
-0.0297654
-0.0359609
0.0179782
-0.00687411
0.0587517
0.0592767
0.0318446
0.00498045
0.00994677
-0.00154095
0.00212218
0.529409
0.527804
0.534218
0.54339
0.479811
0.483563
0.448934
0.469381
0.454809
0.39446
0.429323
0.404635
-0.00172584
0.00915728
-0.000144007
-0.006164
-0.00187485
-0.021076
-0.0190523
-0.0155092
-0.0120901
-0.0187145
-0.0296824
-0.0278925
-0.166964
-0.282153
0.993798
0.921017
0.136196
0.525862
0.532296
0.529073
0.533937
0.537062
0.537886
0.535614
0.53217
0.522569
0.524172
0.520881
0.52164
-0.0942815
-0.234134
-0.0631996
-0.135061
0.148542
0.630826
0.370352
0.307347
0.302243
0.529079
0.932229
0.720045
0.697332
0.712638
-0.335642
0.0576564
-0.270106
0.348116
0.171945
0.66807
0.715981
0.735872
0.685087
0.638434
-0.101011
0.56116
-0.0596301
-0.00986358
0.190009
0.0707649
0.695727
0.665635
0.669241
0.686275
0.703431
0.671735
0.655243
0.649823
0.682519
0.686129
0.499215
0.261429
0.213869
0.175051
0.649921
0.535537
0.58957
0.504729
0.525425
0.528092
0.526709
0.508546
0.51606
0.51164
0.517952
0.52135
0.530133
0.530556
0.525887
0.52804
-0.0413572
-0.0444453
-0.0191246
-0.128856
-0.119559
-0.181004
-0.0550014
0.0829142
0.0450755
0.242008
0.347679
0.0596259
-0.052245
-0.0244188
0.0141534
0.186076
0.211981
0.0866601
0.17538
0.163618
0.147068
0.248617
0.2535
-0.0105139
-0.0146814
-0.0175015
-0.0193193
0.0344671
0.104399
0.114254
0.012411
0.00677217
-0.0225502
-0.0215935
-0.00823917
-0.0124351
-0.00884877
0.0253027
-0.0398098
-0.00746239
0.00817637
0.0148536
0.011491
0.00666155
0.521774
0.524054
0.523703
0.531149
0.54942
0.565621
0.522111
0.501771
0.492666
0.495656
0.468927
0.479113
0.474795
0.488402
0.509425
0.518692
0.516105
0.518847
0.501566
0.503238
0.489849
0.493529
0.468718
0.449924
0.43818
-0.0311067
0.00582834
-0.0002195
-0.0294111
-0.00114523
-0.0133633
0.00466941
0.0228987
0.00730538
0.00410283
-0.00530949
-0.0136152
-0.0124812
-0.0688679
0.0160589
-0.177255
-0.214895
-0.284758
0.895344
1.01891
0.817781
0.591234
0.608497
0.851143
0.936805
0.553782
0.742855
0.766945
0.589275
0.854744
0.53068
0.530288
0.527891
0.527367
0.528588
-0.00211792
0.101257
0.103494
0.163685
0.280414
0.393273
0.319346
0.194217
0.325652
0.328915
0.623221
0.636055
0.591604
0.615323
0.615804
0.43331
0.509049
0.561503
0.518455
0.570052
0.590931
0.546975
0.579166
0.529384
0.484088
0.48033
0.430655
0.450553
0.427249
0.409748
0.520766
0.498054
0.5086
0.498929
0.518431
0.542649
0.539441
0.571907
0.582825
0.502549
0.458793
0.468121
0.498495
0.459188
0.474113
0.490313
0.234559
0.13542
0.218509
-0.0698025
0.00561073
-0.00861436
-0.0561979
-0.00752459
0.277673
-0.41659
-0.392432
-1.02246
0.504606
0.964066
0.644503
0.617766
0.70032
0.682101
0.687119
0.704618
0.708794
0.640424
0.65683
0.658963
0.62145
0.645008
0.665357
0.662507
0.531026
0.395775
0.391915
0.343319
0.213757
0.251752
0.451973
0.374354
0.299294
0.300428
0.466784
0.354012
0.423133
0.459148
0.390307
0.344104
0.548114
0.613215
0.604852
0.579045
0.495462
0.509223
0.53336
0.568674
0.594672
0.62593
0.517512
0.523367
0.524613
0.522108
0.519361
0.522358
0.522549
0.525083
0.525799
0.528763
0.527788
-0.030869
-0.0189534
-0.03219
-0.0401619
-0.00881547
-0.0128089
0.0308014
0.017284
0.00184252
0.00795126
-0.018392
-0.0225878
-0.0177254
-0.00852587
0.108835
0.12143
0.105295
0.0658269
0.255299
0.385941
0.458731
0.334935
0.227881
0.251572
0.272783
0.00121997
0.0289242
0.0161976
0.0544385
0.0456697
-0.0169956
-0.0209151
-0.0190984
-0.0116554
-0.00271445
-0.0202661
-0.0227072
-0.0141986
-0.0185087
-0.0180665
-0.0221308
0.50399
0.497534
0.499196
0.493107
0.491836
0.505999
0.510215
0.512174
0.517581
0.519794
0.510035
0.515676
0.519403
0.00506638
-0.0195969
-0.0229251
-0.00990504
-0.0147682
-0.0140415
-0.0155706
0.125469
0.0539281
0.0584625
0.0125192
-0.117074
-0.0595191
0.493234
0.493145
0.486075
0.722708
0.572436
0.492835
0.590105
0.695249
0.276787
0.475354
0.308981
0.891522
0.786311
0.93276
0.545372
0.246913
0.406618
0.454717
0.264554
0.337456
0.332802
0.220208
0.252045
0.287221
0.388568
0.268309
0.244121
0.00157104
0.190734
0.304891
0.286355
0.413161
0.475258
0.266505
0.188013
0.141998
0.610654
0.629273
0.644662
0.61764
0.63836
0.581221
0.569793
0.588127
0.597917
0.592865
-0.749813
-0.456367
-1.40218
-0.720331
-0.267453
0.535504
0.502302
0.77247
0.654295
0.705236
0.689849
0.647793
0.615418
0.634507
0.661567
0.356563
0.467862
0.44288
0.447943
0.349272
0.280671
0.581175
0.575598
0.610257
0.633777
0.603191
0.634258
0.515309
0.514988
0.514541
0.510833
0.509088
0.511392
0.0695644
0.0387795
0.0738822
0.0546048
0.0319007
0.0204562
0.00957818
-0.000352266
-0.00687362
-0.00809569
0.00613953
0.00991481
0.17119
0.110817
0.0312803
0.0610242
0.00120103
-0.0671872
-0.0848679
0.0167462
0.111592
0.102262
0.407493
0.65879
0.478738
0.64604
0.487424
0.543235
0.475375
0.467311
0.493831
0.383411
0.463024
0.242821
-0.264377
-0.172853
0.791473
0.805977
0.588224
0.408011
0.176445
0.359295
0.552158
0.484943
0.522043
0.591175
0.580347
0.0238356
0.0857759
0.360633
0.587981
0.241114
0.232217
0.226343
0.405981
0.326782
)
;

boundaryField
{
    wall-4
    {
        type            zeroGradient;
    }
    velocity-inlet-5
    {
        type            zeroGradient;
    }
    velocity-inlet-6
    {
        type            zeroGradient;
    }
    pressure-outlet-7
    {
        type            fixedValue;
        value           uniform 0;
    }
    wall-8
    {
        type            zeroGradient;
    }
    frontAndBackPlanes
    {
        type            empty;
    }
}


// ************************************************************************* //
