/*--------------------------------*- C++ -*----------------------------------*\
  =========                 |
  \\      /  F ield         | OpenFOAM: The Open Source CFD Toolbox
   \\    /   O peration     | Website:  https://openfoam.org
    \\  /    A nd           | Version:  9
     \\/     M anipulation  |
\*---------------------------------------------------------------------------*/
FoamFile
{
    format      ascii;
    class       surfaceScalarField;
    location    "50";
    object      phi;
}
// * * * * * * * * * * * * * * * * * * * * * * * * * * * * * * * * * * * * * //

dimensions      [0 3 -1 0 0 0 0];

internalField   nonuniform List<scalar> 
1300
(
3.75095
5.62643
-3.27187
3.75095
-7.7455
5.62643
-4.34078
4.34078
-0.65524
0.65524
1.8764
1.87456
-2.81208
2.81208
-2.28808
2.28808
-2.54294
2.54294
-5.2464
5.2464
-5.06824
5.06824
4.66048
-4.66048
-6.30133
6.30133
-1.02081
1.02081
-3.71521
3.71521
3.16968
-3.16968
-2.165
2.165
-0.109879
0.109879
-0.553494
4.30445
3.19746
3.19746
-2.00334
2.00334
-4.86702
4.86702
6.21802
-6.21802
5.26308
-5.26308
-1.99121
-2.41108
1.80137
-11.5745
-5.94413
-5.94413
-8.44039
8.44039
-2.81396
2.81247
2.94517
-2.94517
-1.78158
1.78158
-4.29345
-0.0473254
-4.29345
4.32189
0.0188865
4.32189
-0.729932
0.0746921
-0.729932
3.93828
-3.93828
0.546056
0.109184
0.546056
3.06514
-3.06514
-1.8771
3.7535
1.87385
-1.87188
6.17633
-1.87907
3.75363
-5.99967
5.99967
-3.03217
0.22009
-3.03217
2.62732
0.184758
2.62732
-6.82142
6.82142
-2.31977
0.0316901
-2.31977
2.2534
0.0346795
2.2534
2.87606
-2.87606
-2.65025
0.10731
-2.65025
2.42695
0.11599
2.42695
0.353537
5.27289
-5.97997
8.79243
-5.27289
0.0264893
5.20837
0.0380323
5.20837
-5.1058
0.0375675
-5.1058
5.01284
0.0553958
5.01284
4.74904
-0.0885643
4.74904
-4.77644
0.115962
-4.77644
-3.4073
-4.03912
-6.44891
0.147575
-6.44891
-1.08145
0.0606365
-1.08145
0.944611
0.0762034
0.944611
-3.66409
3.66409
-4.10631
0.391091
-4.10631
3.1241
0.0455869
3.1241
1.8685
1.88245
5.61945
-5.61945
2.44977
-2.16143
-0.00356587
-2.16143
-2.20172
-3.06136
2.20172
-0.0367252
-0.339295
0.229417
-0.339295
3.15937
0.0380917
3.15937
2.26418
0.162769
-2.26418
0.260849
3.25713
-3.25713
1.34134
0.661991
1.34134
-5.56593
5.56593
4.95503
0.0578126
-4.95503
0.0880102
6.15616
0.0618566
6.15616
-6.19952
-0.0185021
-6.19952
2.56279
-4.97387
-2.58075
6.12237
0.178965
-6.12237
0.17824
2.9164
0.0287671
2.9164
-2.92009
2.92009
-2.98404
0.0388697
-2.98404
-2.18077
0.399195
-2.18077
1.48236
0.299219
1.48236
-4.19144
-0.102018
-4.19144
-4.22749
0.121181
4.22749
0.0944061
1.11899
-1.11899
-0.82564
0.0957079
-0.82564
-4.05824
-0.133198
4.05824
-0.119955
-3.83219
-0.106092
-3.83219
-3.02411
0.0400791
3.02411
0.0410266
3.11276
0.0466033
-3.11276
0.0476225
-1.87083
3.75328
-1.88013
3.75398
-5.6195
-0.380168
-5.6195
6.3083
-0.30863
6.3083
3.39118
0.324036
-3.39118
0.359006
2.48575
0.141576
2.48575
-6.78429
-0.0371336
-6.78429
6.80694
0.0144768
6.80694
2.38466
0.101087
-2.38466
0.0648959
2.21864
0.0347598
2.21864
2.89426
-0.0181989
2.89426
-2.87161
-0.00445315
-2.87161
2.79735
-2.79735
2.72791
0.0694382
-2.72791
0.0776608
-11.133
11.1145
-0.0351276
-11.0978
5.17324
5.17324
4.17804
0.570995
4.17804
-4.99283
0.216391
-4.99283
2.69921
-5.27995
3.0304
-6.4377
4.67102
-16.2455
4.33
-8.36912
6.67971
-6.67971
6.57278
0.10693
-6.57278
0.123866
-1.17926
0.0978114
-1.17926
-3.05872
-0.605366
-3.05872
4.31055
-0.64646
4.31055
-3.02849
3.02849
-3.07768
0.0491844
3.07768
0.0464192
2.19397
0.0246714
-2.19397
0.0325357
0.442401
0.103654
-0.442401
0.103106
3.46178
-0.204646
3.46178
-3.06447
-0.192669
-3.06447
-1.26535
0.086092
1.26535
0.0759908
-5.81486
0.248934
-5.81486
-11.1908
0.0929754
-11.1528
-6.10654
-6.10654
2.33385
11.1263
-2.89083
0.0192219
2.89083
0.0255693
2.97546
0.0530338
-2.97546
0.0553717
-2.86136
0.0640074
2.86136
0.0587288
-2.55598
0.375201
-2.55598
-1.07628
1.07628
-1.24614
0.169865
1.24614
0.236216
1.38399
-0.264997
1.38399
0.886881
0.0577294
-0.886881
0.0612417
-3.73957
-0.0926235
-3.73957
6.5395
-0.231201
6.5395
-2.9536
-0.110867
2.9536
-0.0593394
-0.033354
11.1478
-5.13989
0.0340863
5.13989
-11.2097
11.2438
-3.22736
0.671385
3.22736
0.950683
5.28567
0.280254
-5.28567
0.292843
6.7603
0.0466425
-6.7603
0.0805958
-2.56649
-0.492229
-2.56649
-5.0375
-0.582001
5.0375
-0.726953
-11.475
-0.202991
11.678
-11.4196
6.01785
0.13831
-6.01785
11.3821
-1.02706
-0.0919298
1.02706
0.0492189
1.70821
-0.324223
1.70821
3.64772
-0.185935
-3.64772
-0.0918511
-6.69031
-0.0939743
6.69031
-0.150813
-2.12332
-0.443171
2.12332
-0.415109
-4.26706
4.30515
1.90926
-2.4263
-2.54758
-5.48765
1.8519
1.90138
4.30167
-10.1864
-6.05906
-10.0082
7.26299
-6.97015
-9.25543
9.16687
7.80928
-7.91537
-5.7851
5.83152
6.48254
-6.44151
1.87874
1.87476
7.94584
-7.72575
-15.6446
15.2644
7.48862
-7.45693
15.7765
-15.8136
-17.8546
17.9012
-5.7013
5.80861
-6.73367
6.72922
-6.96301
6.90367
-2.87452
-3.56318
13.1397
-12.9922
8.53631
-8.53988
-8.56486
8.95596
3.38253
0.922626
3.42913
-1.88223
3.76097
-1.8714
3.78066
2.67368
-5.5482
2.60627
-5.15385
4.30068
4.23564
-4.26395
-1.2237
-5.92268
5.95145
-5.81723
5.87596
9.04791
-9.09523
-1.88513
3.75988
-1.86885
3.77024
-3.42505
-2.36005
3.37947
0.9222
8.09743
5.04231
-8.27639
-1.73181
-7.9934
7.80746
-8.20555
8.01288
-0.43564
5.81852
-5.38288
4.43138
-1.56044
7.37896
5.70255
5.91895
5.86643
-5.58617
1.10372
-6.4866
-6.39859
-2.38585
2.48156
2.29967
-2.19049
6.07654
1.73274
5.95659
-5.71306
-2.20232
-5.80568
3.82088
2.01064
3.87007
4.07774
2.4048
4.11782
3.03064
-3.0358
0.00516016
-3.05647
6.08711
0.724085
-5.41652
-4.49432
4.95934
2.9865
5.14409
-5.50618
-2.21957
-5.14717
-9.55801
-6.08657
-10.14
10.1013
5.16307
9.79271
-11.9715
11.8207
4.78699
2.70163
4.82167
-4.91889
-2.53804
-4.854
11.6258
-2.60351
-9.02232
-10.3219
-7.53269
10.3074
5.46908
10.9682
6.93301
11.0488
4.42
7.20583
-9.88908
2.3564
-3.86232
-1.83899
-3.78466
3.67117
2.13744
3.78716
-4.21538
-2.51828
-4.19616
-4.2918
-2.67121
4.31
2.41921
-4.40936
-3.79618
4.52023
2.38344
4.02504
-10.0841
4.34408
-7.90726
-9.20631
-3.78585
-9.08244
3.46826
2.62979
-6.09805
-2.07994
8.45749
-4.22185
7.23379
-5.1795
-3.36038
-5.14697
-6.81908
-1.74579
-6.6979
-8.89829
8.40606
-9.19527
8.54881
12.5896
-5.6796
-6.90995
-3.9683
-2.47321
3.92068
-0.49155
-3.71073
3.71589
0.0502349
3.8309
4.75353
4.26197
-3.88561
-1.93163
-3.83023
3.82811
2.04785
3.89211
6.78384
2.26407
6.80272
-6.54505
-2.55018
-6.64707
9.06024
-8.66104
2.87719
-2.7911
5.36954
2.64334
-5.16489
-2.82851
6.20845
-3.20741
-3.00104
-12.2009
10.5412
1.65975
-4.82196
-0.390585
-0.280707
-5.49252
-3.76291
5.37656
0.542384
11.0836
7.32065
-5.51275
5.76169
6.16527
6.22308
-0.175514
5.8218
-5.15041
5.2899
-2.53621
-2.75369
5.41739
-5.55059
-1.22967
-5.46346
4.23378
0.405994
1.60901
-1.37959
-1.85626
-0.529594
-1.79501
1.37627
0.923403
1.47993
0.924504
1.55705
-2.93645
0.558745
2.3777
-2.01195
-1.63175
-3.73482
-1.12316
4.85797
5.69276
2.1147
-5.60091
-0.204768
2.60547
-2.52927
-0.741547
-2.99327
2.21175
-2.9533
-3.66093
-1.99453
5.65547
-3.37022
-0.460016
3.31718
0.552883
-3.82653
-2.09615
3.78766
0.330151
-3.12662
6.19052
-3.0639
-5.05825
2.52807
3.55904
4.53871
-4.78962
2.44704
2.34258
-1.23059
4.23914
0.904956
4.38071
-6.84573
4.62616
5.77253
3.18342
-6.09657
0.949394
-5.89634
8.50989
-7.32717
-1.18272
4.12272
4.38716
7.10659
5.48297
-5.6972
12.8038
-1.17055
-6.15662
7.06689
-3.88347
4.8126
-8.69607
-10.2956
4.13895
-9.1764
10.944
-1.76758
-3.62328
-8.34821
12.7997
-1.2133
-11.5864
8.57942
-4.21595
-4.29698
8.51293
-6.81946
6.83502
-1.97938
-4.85564
-10.1131
-5.70051
10.2071
1.61362
-9.86304
12.2194
-2.65721
4.10133
0.720344
4.13609
3.26973
-5.43498
2.16525
3.54973
-5.52911
2.08182
-7.51679
-6.71836
12.0511
-5.3327
-10.5042
-9.51082
-0.993392
2.53693
9.68251
-9.46994
7.43755
2.03238
3.30507
0.587041
-3.37451
-0.410145
0.234863
4.53697
-4.77183
4.02202
4.18479
3.31303
1.22394
3.84343
2.10801
-3.869
-0.327161
-4.15939
1.48818
-1.74018
-3.6862
5.17438
-4.06546
0.379261
-2.74298
-3.50218
6.24515
-4.58196
3.03736
3.15316
5.08521
-4.91184
1.40966
-2.39523
-2.51661
2.6558
-4.39597
1.98349
3.19089
4.36693
0.57075
5.84753
6.20354
-8.47732
0.570059
11.2458
-9.51404
2.45965
8.58913
-9.89721
0.386387
-8.69606
1.0072
-5.22905
-5.09085
5.14089
-6.88668
-3.55518
6.17249
0.630235
-6.26689
-0.431
-6.04669
-2.8516
-6.48986
-3.05075
-6.14452
-8.74795
-1.65617
-7.09178
6.74989
-6.69315
-3.44687
7.4201
1.12871
-7.42031
7.32838
-7.50045
7.17623
0.0951339
3.62076
4.35711
1.8839
-2.39017
4.27407
-5.11301
7.37708
-8.69495
3.58194
4.16519
-6.71537
-4.52976
5.0342
4.02604
5.33342
8.91643
-10.3975
1.48105
-10.7018
12.0373
-1.33558
-16.4758
5.77404
-7.55937
2.51569
0.361504
2.6135
0.573183
2.49815
-3.07133
-2.21792
-2.14192
-2.40955
-3.46152
5.87107
1.12553
-3.49389
2.36836
-3.56351
4.68904
-0.161572
-3.33232
5.2926
-2.79446
5.65411
-3.72508
1.92903
3.41399
5.74187
-2.32789
4.38855
-1.7452
1.90148
-4.22936
-1.56004
-2.96318
5.10062
-3.28198
3.66124
-0.32879
3.99003
-4.08185
0.874439
-0.768818
3.41597
3.67682
4.29968
-3.07575
2.93072
-4.67592
-1.29865
-4.10517
-0.914282
-0.275374
-3.75013
4.0255
6.0153
-6.29068
-5.24367
9.54709
-4.30342
7.70771
-5.39056
-2.31715
-4.26397
-4.39707
3.88877
1.93303
9.64074
0.211367
-5.60193
-4.93905
-3.98836
3.14876
2.14114
-1.83863
3.49837
2.11933
-0.510327
0.482261
0.997665
1.80586
-1.3236
0.278818
1.52704
-1.10077
1.84929
0.756184
-1.90702
0.112005
-1.30578
3.51754
1.07192
-1.99532
0.671727
0.990982
-3.52719
4.98544
-2.64218
-2.34326
5.97642
1.13332
-3.7755
4.33014
-3.92415
2.35661
-3.47976
-1.41889
-5.34303
-3.61029
-2.53606
4.90442
-3.33501
5.44972
1.24349
-5.24495
6.48843
-3.68171
1.68718
-3.08122
3.8374
-1.00733
-2.07389
2.8693
2.78617
-3.01104
0.0177767
-0.141743
2.37854
-2.52029
-0.574758
-2.5867
-4.57276
4.90291
-2.10612
4.55316
2.16796
-1.91592
6.46908
1.80991
-3.72583
-3.24834
-3.70835
-1.38324
3.15547
-0.594663
-4.25933
-5.4503
4.15825
0.222468
-6.95728
7.77017
-0.812895
-3.97077
-0.655389
4.77811
-6.01321
0.484102
-3.9314
3.83878
4.74373
4.9662
-11.3815
-0.204894
-6.21841
1.13688
-7.35529
5.52404
-3.56724
7.70618
-10.3653
6.91839
-9.23655
6.52347
-0.831825
6.24448
-4.07924
2.77784
-8.47835
-6.86474
5.45032
-2.74869
6.17066
-3.10703
9.27769
-5.76424
5.23382
4.04387
-0.990152
-4.15682
-5.23776
4.24761
-0.00394195
4.13214
4.97774
-2.86973
4.65058
2.26368
-4.65891
-2.1323
-6.49537
1.83646
-3.34221
-1.91864
3.7551
3.16658
3.75362
1.23849
-3.34347
7.15453
-8.14793
-1.82184
-3.26902
5.22445
-0.976838
3.36498
-6.634
-1.86407
4.83981
-0.792226
-4.04758
0.839796
-4.39497
1.68228
-6.07725
5.2044
-5.6354
2.22034
-9.7797
-5.19997
-5.15075
-2.25859
-5.24186
-7.59556
5.33697
-1.82152
5.50686
-8.54676
7.75453
-3.49057
8.82754
-5.43907
-1.05079
5.85418
1.32205
10.1496
0.202589
-4.73235
-1.91124
3.91453
-2.00329
1.23751
-3.54754
0.366991
2.4735
3.50293
-6.70728
-0.00809259
-4.74044
-3.92383
7.94987
5.62326
11.6386
1.24108
9.13515
-1.18528
10.3762
4.14814
4.38435
-3.02982
4.51087
0.995687
4.57762
-0.899535
2.82856
1.71396
1.7746
0.754671
2.30792
1.3689
3.18236
0.111032
-2.03089
4.6277
-8.61606
-0.974228
-8.04507
1.1218
5.71638
-4.59458
3.03753
-0.896385
1.03424
-0.0137094
-1.4261
1.43981
-2.76739
-1.93642
-0.409385
-1.66056
2.33229
1.85697
-1.9229
-0.84449
0.359114
-3.96941
3.12065
-3.10287
-0.316707
6.17173
-2.79784
0.277551
-1.11066
-2.30915
-2.83875
2.72674
6.17641
0.292669
3.11251
5.19558
3.09943
0.229704
3.90683
-5.6744
-3.60997
-5.8793
-0.355253
4.42286
1.74014
7.94237
5.78401
4.80717
-1.82683
-9.97475
6.56795
-2.05709
5.23238
-1.1848
-4.89245
5.02681
2.35027
-5.65704
0.0216405
-4.87081
-6.9279
-0.518089
8.27262
-9.6315
8.58071
5.72911
1.36267
-4.4148
-0.735953
4.24493
0.139421
10.5157
-1.12662
-6.76787
7.89448
-4.58976
3.61553
0.78836
2.71001
2.22817
1.33178
-5.43609
-10.0307
-2.00009
-1.5271
-4.34336
0.514614
-2.37159
6.23737
-2.62184
3.92022
5.27264
6.30688
-2.14184
-4.14884
6.44526
-2.52504
3.78184
)
;

boundaryField
{
    wall-4
    {
        type            calculated;
        value           uniform 0;
    }
    velocity-inlet-5
    {
        type            calculated;
        value           uniform -3.75095;
    }
    velocity-inlet-6
    {
        type            calculated;
        value           uniform -5.62643;
    }
    pressure-outlet-7
    {
        type            calculated;
        value           nonuniform List<scalar> 8(3.27187 7.7455 4.40229 9.77311 7.44642 5.14354 5.72961 9.00102);
    }
    wall-8
    {
        type            calculated;
        value           uniform 0;
    }
    frontAndBackPlanes
    {
        type            empty;
        value           nonuniform List<scalar> 0();
    }
}


// ************************************************************************* //
