/*--------------------------------*- C++ -*----------------------------------*\
  =========                 |
  \\      /  F ield         | OpenFOAM: The Open Source CFD Toolbox
   \\    /   O peration     | Website:  https://openfoam.org
    \\  /    A nd           | Version:  9
     \\/     M anipulation  |
\*---------------------------------------------------------------------------*/
FoamFile
{
    format      ascii;
    class       volVectorField;
    location    "50";
    object      U;
}
// * * * * * * * * * * * * * * * * * * * * * * * * * * * * * * * * * * * * * //

dimensions      [0 1 -1 0 0 0 0];

internalField   nonuniform List<vector> 
918
(
(0.985162 -0.000504098 0)
(0.00501158 2.96625 0)
(0.00839619 0.872273 0)
(0.979703 0.00214744 0)
(-0.0138583 2.06458 2.97438e-20)
(-0.00704414 2.94879 -2.50066e-18)
(0.810984 1.15013 4.38061e-19)
(0.210522 0.104807 -1.5532e-20)
(0.999908 -0.000281741 0)
(0.061669 0.778796 0)
(0.0120545 0.584355 0)
(0.734798 -0.0176755 0)
(0.0111135 2.93033 0)
(0.00288603 2.79474 0)
(-0.0175502 3.15246 7.73917e-19)
(-0.0177673 1.91421 1.88731e-22)
(0.289299 0.0349639 1.02985e-18)
(0.186683 1.15407 3.11774e-19)
(0.962749 0.00501897 0)
(-0.00257968 0.515999 0)
(0.0244565 0.139522 -7.31717e-19)
(1.00198 -0.00497846 0)
(1.00022 -0.00978921 0)
(0.97573 -0.00643963 0)
(0.584201 -0.0343126 0)
(0.0152171 2.64073 0)
(-0.0148227 2.90997 9.22359e-19)
(0.0102281 0.930667 0)
(-0.00923337 1.17348 0)
(0.0105934 0.910348 0)
(-0.0151367 2.60588 0)
(-0.00281881 2.11494 -2.37542e-20)
(-0.0092455 1.89454 0)
(-0.020609 2.9876 -8.99798e-23)
(-0.0166887 3.0053 1.94351e-18)
(0.00210437 3.00019 0)
(0.871022 -0.00958137 0)
(0.404806 0.937305 1.83024e-19)
(0.79332 1.16575 -4.95888e-19)
(0.944164 1.00914 5.37853e-19)
(0.664356 1.25691 -1.0121e-19)
(0.665774 1.23573 5.84712e-19)
(0.246558 0.171964 1.51528e-20)
(0.223734 0.0785947 0)
(1.14518 0.555545 0)
(0.215238 0.163468 6.91053e-20)
(0.182533 0.103169 -7.17082e-20)
(0.919834 -0.00744528 0)
(1.00026 0.000156502 0)
(0.99991 0.000335712 0)
(1.00363 -0.00776691 0)
(1.00096 -0.000920475 0)
(1.00017 3.30082e-05 0)
(0.0751488 1.81827 -7.92864e-19)
(0.028768 0.975376 0)
(0.0948096 0.849301 0)
(0.0135116 0.929508 0)
(0.0359277 0.709867 0)
(0.00912622 2.00361 0)
(-0.00123317 0.827301 0)
(0.0105781 0.595459 0)
(0.000483876 0.816969 0)
(0.00863743 0.573491 0)
(0.840084 -0.0158597 0)
(0.843863 0.0303104 0)
(0.767581 -0.0066065 0)
(0.811565 0.0402562 0)
(0.705023 -0.019759 0)
(0.0146914 3.0004 9.27427e-19)
(0.0115088 3.00801 0)
(0.00611904 3.00278 0)
(0.0135491 2.99735 1.05308e-23)
(0.00797215 2.95847 -1.37838e-18)
(0.0144846 2.98201 0)
(0.0108318 2.90362 0)
(0.0248375 2.93056 2.11714e-24)
(0.0045431 2.82479 0)
(0.0307655 2.91619 0)
(-0.00539167 2.74581 0)
(0.307034 3.5476 0)
(-0.13167 3.62877 0)
(0.138924 3.24263 -7.20209e-19)
(-0.0129565 2.97915 0)
(-0.0165094 1.98586 0)
(-0.00704803 2.16728 -1.86146e-22)
(-0.0110425 1.91886 -8.0388e-21)
(0.388287 0.144372 -3.56955e-19)
(0.307652 0.0207697 -3.45786e-19)
(0.357171 0.15336 -1.07171e-18)
(0.264911 0.0411119 -7.02524e-19)
(0.226187 0.971247 0)
(0.267905 1.29967 -3.64392e-19)
(0.360459 1.22969 6.06986e-19)
(0.987457 0.00855784 0)
(0.941902 0.00583322 0)
(1.0003 0.000578773 0)
(1.00286 0.0093068 0)
(1.00302 0.00846424 -2.76603e-18)
(0.991911 0.00969858 2.08881e-18)
(-0.00315271 0.804754 0)
(-2.35566e-05 0.528041 0)
(-0.0343639 0.995361 0)
(-0.0222092 0.836378 0)
(0.00300664 0.509364 0)
(0.0444253 0.143439 2.26015e-19)
(0.110963 0.117143 0)
(0.993545 -0.00837763 0)
(0.954439 -0.00652433 0)
(0.756594 0.0468338 0)
(0.691728 0.0568932 0)
(0.664281 -0.031497 0)
(0.966253 -0.00793577 0)
(0.605169 0.0745836 0)
(0.444413 -0.0110233 1.5465e-18)
(-0.0369364 2.86318 6.8683e-19)
(0.0415784 2.90988 0)
(0.0538333 2.88554 0)
(-0.00405956 2.69992 0)
(-0.0134052 2.98505 8.74442e-19)
(-0.0179375 2.89498 0)
(-0.0154519 2.98807 -2.70926e-18)
(-0.0133165 2.92516 9.27173e-19)
(-0.0126979 1.34276 0)
(0.00723533 1.37144 0)
(-0.00743359 2.13395 3.04061e-22)
(-0.00623118 2.09839 0)
(-0.020561 1.90359 0)
(0.938291 -0.00752781 0)
(0.856943 -0.00987918 0)
(0.863335 0.00600804 0)
(0.949394 -0.00791227 0)
(0.883847 -0.00815445 0)
(0.516641 1.13059 -2.31046e-19)
(0.565801 1.1816 0)
(0.369157 0.882308 3.40946e-20)
(0.31142 0.741199 0)
(0.904729 1.04823 -1.47794e-19)
(1.02077 0.857904 2.97071e-19)
(0.352177 1.35003 0)
(0.519388 1.31488 0)
(0.54231 1.26066 0)
(0.118641 0.184675 -3.03146e-19)
(0.276516 0.163971 0)
(0.245993 0.0779233 1.98265e-19)
(0.992497 0.912945 0)
(1.06585 0.768565 0)
(1.09055 0.710107 -2.31409e-19)
(1.12471 0.61479 0)
(1.17574 0.400967 5.61451e-20)
(0.957635 -0.0087675 0)
(0.962445 -0.0100795 0)
(0.901626 -0.00796421 0)
(0.984186 -0.00916383 0)
(0.974676 -0.00936361 0)
(0.937097 -0.00636644 0)
(1.00019 0.00233616 0)
(1.0009 0.00141011 0)
(0.99991 0.000852679 0)
(0.0350966 2.07025 4.38533e-19)
(0.119814 1.7613 0)
(0.0172584 2.18459 6.79021e-19)
(0.0481698 1.87217 -5.70249e-19)
(0.10162 1.16223 -2.55205e-19)
(0.0445412 1.04969 0)
(0.141857 1.00255 0)
(0.00855815 0.88759 0)
(0.0154956 0.659795 0)
(-0.000823966 2.23606 -1.03072e-21)
(0.0179155 2.00754 0)
(-0.0013297 2.23776 -4.29935e-20)
(0.0111577 2.01322 7.27843e-20)
(0.00366093 0.859152 0)
(0.00192344 0.841514 0)
(0.00850397 0.621264 0)
(0.00170883 0.810821 0)
(0.00844248 0.556803 0)
(0.937002 0.00949561 0)
(0.848137 -0.0149786 0)
(0.926568 0.000161091 0)
(0.841415 -0.0129649 0)
(0.812054 -0.000195278 0)
(0.900298 0.0209448 0)
(0.875539 0.0255077 0)
(0.78885 -0.00294892 0)
(0.00576247 3.0649 -8.66591e-21)
(0.0165887 3.05769 0)
(0.014648 2.96905 0)
(0.00868994 2.87628 0)
(0.923383 3.96232 0)
(1.23751 3.29546 9.29381e-19)
(0.0696734 3.07136 0)
(-0.0289171 2.90339 0)
(-0.00190053 1.39213 0)
(-0.0171145 1.69262 0)
(-0.00698435 1.52705 0)
(-0.0262261 2.56368 -8.85735e-21)
(-0.00787653 2.24954 0)
(-0.0157119 2.39973 0)
(0.00341095 1.94163 1.37817e-21)
(-0.00313623 2.23754 5.3004e-21)
(-0.0047026 2.20227 8.05245e-21)
(-0.00458185 1.92847 0)
(0.429831 0.127239 5.42544e-19)
(0.352656 0.0117413 -5.32548e-19)
(0.25988 1.58214 0)
(0.274192 0.7449 -3.16316e-19)
(0.177052 1.66831 -1.05702e-18)
(0.226551 1.21072 1.05946e-18)
(0.902132 0.00642507 0)
(0.967455 0.011088 0)
(0.974583 0.010789 0)
(0.923377 0.00643618 0)
(-0.0033956 0.812025 0)
(0.00446499 0.80714 0)
(0.00372771 0.538502 0)
(0.183976 0.15448 6.38011e-19)
(0.152947 0.140844 -7.5351e-19)
(0.150414 0.107608 0)
(1.09213 0.0844463 2.79467e-20)
(1.07436 0.0384177 0)
(1.00844 0.0391095 0)
(0.903795 -0.00636267 0)
(0.473948 0.107636 0)
(0.526196 0.0877056 -2.47238e-18)
(0.394982 0.00697759 9.25457e-19)
(0.00886069 2.98122 7.36484e-19)
(-0.0324636 2.8657 4.69128e-20)
(0.00361012 3.0503 -1.8336e-20)
(0.0201539 3.04332 6.5138e-19)
(-0.0149842 2.99656 3.04369e-20)
(-0.012946 2.94943 -1.22423e-22)
(-0.0172804 3.01195 -5.62628e-19)
(0.0148815 3.02379 4.07708e-19)
(0.0074007 3.03691 -6.46147e-19)
(0.933312 -0.00144767 0)
(0.939017 -0.00340516 0)
(0.845198 -0.00942253 0)
(0.956626 0.0118351 0)
(0.942849 0.0131208 0)
(0.881677 0.0059649 0)
(0.917463 0.0168824 0)
(0.926196 0.0148564 0)
(0.83857 0.00294296 0)
(0.719332 1.40814 3.83339e-20)
(0.752593 1.5169 0)
(0.185912 0.323062 7.17354e-20)
(0.22405 0.665864 5.78913e-19)
(0.262195 0.7223 -3.3726e-19)
(0.265798 0.531119 6.70443e-19)
(0.341028 0.802437 1.594e-18)
(0.13758 0.226876 3.75004e-19)
(0.328476 0.162418 7.45019e-19)
(0.303498 0.165246 1.94442e-19)
(0.254105 0.0596232 3.6962e-19)
(1.16492 0.458562 4.87338e-20)
(1.18207 0.25351 4.38862e-20)
(0.00902807 2.23172 2.64406e-19)
(0.0426881 1.93874 0)
(0.967658 0.0287732 0)
(0.941238 0.0135356 0)
(0.866442 -0.0183246 0)
(0.0113673 3.07439 0)
(0.0198349 2.94423 1.19575e-18)
(0.0164153 2.95638 0)
(0.00634348 2.85049 -1.18608e-18)
(0.00636487 3.09187 2.90517e-19)
(0.00699708 3.08218 0)
(0.785524 1.81886 -1.59341e-19)
(1.24538 2.49546 4.05669e-19)
(0.767527 1.95828 -1.23412e-18)
(0.0197773 2.98124 -6.35644e-19)
(0.0352601 3.00008 0)
(-0.0345581 2.8772 0)
(-0.00309729 2.21791 -1.28879e-20)
(-0.00282591 2.24026 -1.59906e-20)
(0.00540409 1.97537 -7.43456e-21)
(0.277042 1.38999 1.02885e-18)
(0.233236 0.534995 -7.0571e-19)
(0.0633251 1.99496 7.73607e-19)
(0.135699 1.88236 -9.20284e-19)
(0.180233 1.50312 9.3395e-20)
(0.00569968 3.11837 -1.61972e-18)
(0.0117624 3.11919 1.77386e-18)
(-0.00925547 2.98052 8.07204e-19)
(-0.00423433 2.97724 -7.63443e-19)
(-0.0214519 2.8807 -8.22127e-19)
(0.00843212 3.09912 -2.15943e-18)
(0.00149662 3.10566 2.17776e-18)
(0.278411 0.691718 0)
(0.244726 0.681373 -1.19779e-18)
(0.0965825 0.225646 5.31545e-19)
(0.354208 0.928233 1.11279e-18)
(0.19272 0.271719 -1.71572e-18)
(1.17616 0.172481 6.75796e-20)
(1.18269 0.307616 0)
(1.16452 0.120902 -1.23998e-20)
(0.00100763 2.24798 -1.67432e-21)
(0.00386773 2.24076 0)
(0.0267353 1.97408 0)
(0.340131 1.29887 -3.69979e-19)
(0.37184 1.13949 -8.0169e-19)
(0.20695 0.371275 1.42818e-18)
(1.00587 -0.0108464 0)
(1.00766 -0.00764393 5.1039e-19)
(-0.0105392 1.32172 0)
(-0.0261103 1.31362 0)
(1.00222 0.00350528 1.80629e-21)
(1.00367 0.00945713 1.04187e-18)
(-0.0171638 2.54689 1.12225e-20)
(-0.0222198 2.58959 0)
(0.0347446 3.17763 4.22784e-19)
(0.393236 3.48763 0)
(1.1673 0.65595 -6.36965e-20)
(1.01289 0.013104 -2.14428e-21)
(1.02129 -0.010342 0)
(1.0017 0.000119421 7.4717e-23)
(0.103004 1.36003 0)
(0.143961 2.5756 0)
(0.024281 1.30606 0)
(-0.000738624 2.62406 4.17231e-20)
(-0.0209291 2.57984 1.62418e-20)
(1.00026 0.0292915 2.51482e-21)
(1.06236 0.00411959 0)
(1.09611 0.024013 0)
(-0.0198265 1.7333 0)
(-0.0160275 2.58504 0)
(0.00259009 1.30635 0)
(0.299384 1.47332 -1.64058e-19)
(1.01128 -0.00963828 0)
(1.00939 -0.0149188 0)
(1.00237 0.000736053 6.52164e-19)
(1.00547 -0.00481565 -7.6658e-19)
(1.00118 -0.000988592 0)
(-0.00378838 1.45797 0)
(0.000230431 1.36903 0)
(0.00187305 1.41535 0)
(-0.000858135 1.29438 0)
(-0.00839882 1.27609 0)
(0.00108661 1.25923 0)
(1.03479 -0.006228 0)
(1.02014 0.0156444 -8.72907e-22)
(0.814586 1.26428 2.51748e-19)
(1.00224 0.000304592 -6.49939e-19)
(1.00407 0.00524879 7.60568e-19)
(1.00117 0.00206524 0)
(1.01277 0.0103224 6.46576e-19)
(1.008 0.00829821 -7.83344e-19)
(1.00857 0.0146882 0)
(-0.0215311 2.61469 0)
(-0.0235527 2.59605 -1.27275e-20)
(-0.0212119 2.60918 8.97631e-21)
(1.23232 0.263439 6.02194e-19)
(1.1587 0.0849802 0)
(0.0413276 3.07776 -9.36896e-19)
(0.0647528 2.85521 -6.81814e-20)
(0.140141 3.1922 1.43636e-18)
(0.135248 3.22049 -2.06892e-19)
(0.134287 3.23214 0)
(0.0188536 3.13738 2.42371e-19)
(0.0749698 3.16 9.2416e-19)
(0.0676697 3.1855 -4.56735e-19)
(0.0218283 3.12965 0)
(0.61259 0.277815 0)
(0.539451 0.31804 0)
(1.13737 0.691777 1.50213e-19)
(1.13276 0.812223 -1.40196e-19)
(1.19416 0.579093 0)
(1.22218 0.513986 0)
(1.0161 0.0133336 -1.2053e-18)
(1.01499 0.0142643 1.51294e-18)
(1.02528 -0.00988115 0)
(1.02334 -0.0119078 0)
(1.00643 0.00259162 0)
(1.01041 0.00370754 0)
(1.00457 0.00184999 0)
(1.0098 0.00620341 0)
(1.00783 0.00595186 0)
(1.00451 0.00468174 0)
(0.0917229 1.35735 0)
(0.0856838 1.32666 0)
(0.122783 1.39375 0)
(0.137856 1.40317 0)
(0.144846 2.60047 0)
(0.185288 2.66908 -4.32108e-19)
(0.100277 2.6563 0)
(0.0846282 2.65845 2.06564e-19)
(0.0376445 2.67946 -1.66373e-19)
(0.0151772 1.31443 0)
(0.0195316 1.2459 0)
(0.0203219 1.32679 0)
(0.0328569 1.26898 0)
(0.0011601 1.98201 -1.05087e-20)
(-0.0198271 2.60789 -3.56027e-21)
(-0.00920932 2.66533 3.12184e-20)
(-0.0182322 2.68378 0)
(-0.0219639 2.6137 -3.62341e-20)
(-0.0217924 2.60855 -6.02007e-21)
(0.010096 1.98066 1.03987e-20)
(-0.00719887 2.3952 4.77682e-21)
(-0.0137995 2.41767 -3.54079e-20)
(1.01044 0.0372123 1.23016e-18)
(1.00573 0.0161438 -1.51959e-18)
(1.00156 0.0445153 -1.23125e-18)
(0.978049 0.022138 1.57132e-18)
(1.0636 0.00791829 0)
(1.04888 -0.00852254 0)
(1.09317 0.034099 0)
(1.0735 0.0123258 0)
(1.07129 1.44532e-05 0)
(1.13882 0.0815055 0)
(1.11018 0.0435348 0)
(1.11338 0.0315274 0)
(-0.0202913 2.43602 2.4531e-22)
(-0.00574862 2.00853 0)
(-0.00961828 2.21666 0)
(-0.0179053 2.60553 -4.0352e-21)
(-0.015704 2.61474 -7.7716e-23)
(0.00864744 1.56618 -2.30181e-20)
(0.00210641 1.49605 2.34368e-20)
(-0.00745783 1.38657 0)
(-0.0097641 1.39317 0)
(-0.011745 1.38771 0)
(0.00225555 1.3077 0)
(0.0129696 1.23629 0)
(0.378922 1.48967 2.6571e-19)
(0.419822 1.49173 1.42189e-19)
(0.598201 2.45064 -2.40774e-19)
(0.400553 2.5461 7.10316e-19)
(0.351379 2.06358 7.2409e-20)
(1.02101 -0.00816935 0)
(1.01548 -0.00977702 0)
(1.0149 -0.0155101 0)
(1.00742 -0.001134 0)
(1.00493 -0.000931031 0)
(1.00777 -0.00472934 0)
(1.00925 -0.00367529 0)
(1.01419 -0.00443794 0)
(1.02088 0.0161824 1.18032e-18)
(1.01786 0.0156337 -1.51119e-18)
(1.02125 0.0181647 -1.18925e-18)
(1.01904 0.0168404 1.48618e-18)
(0.776623 1.31514 0)
(0.712634 1.36562 2.37245e-19)
(0.889953 1.21463 8.95695e-20)
(0.936159 1.16015 -1.19189e-19)
(1.15747 2.60488 2.86923e-19)
(0.786335 0.117318 6.02968e-19)
(1.16118 0.106732 0)
(1.20857 0.191328 -4.84083e-19)
(1.19484 0.153092 -2.05369e-20)
(1.00532 0.153379 0)
(0.13236 2.95937 5.48973e-19)
(0.109248 2.86534 -1.19047e-18)
(0.0186389 2.37559 7.98894e-19)
(0.0905643 -0.0821582 -3.52102e-19)
(0.338356 3.41724 -2.09313e-19)
(0.193206 3.31055 0)
(0.236512 3.35186 2.72598e-19)
(0.242489 3.03243 -1.82077e-18)
(0.336561 3.19127 0)
(0.00664283 3.1208 4.72398e-20)
(0.0174889 3.12945 -5.53954e-19)
(0.0153188 3.12557 8.15327e-19)
(0.0348562 3.13958 0)
(0.0329482 3.15044 0)
(1.21439 2.60316 0)
(0.544073 0.818639 -5.34145e-19)
(1.0593 0.984357 4.5127e-22)
(0.994249 1.0689 0)
(0.847157 0.968559 -1.14068e-19)
(1.08397 0.886095 2.83569e-20)
(0.348393 0.364208 -9.06258e-19)
(0.670417 0.313314 -1.96727e-20)
(0.612142 0.218607 4.22968e-19)
(0.564061 0.35267 3.11706e-20)
(0.468709 0.311038 -1.25381e-18)
(0.636581 0.321895 0)
(0.700395 0.416919 7.18585e-19)
(0.708683 0.420084 0)
(0.598242 0.34519 0)
(0.547092 0.260169 0)
(0.81047 0.616058 4.23816e-19)
(1.23231 0.285324 -5.08664e-19)
(1.23129 0.423438 0)
(1.24093 0.363934 0)
(0.722104 0.190019 6.2846e-19)
(0.857755 0.542472 -3.89456e-19)
(0.755926 0.512984 6.90879e-19)
(0.952901 0.435202 -7.59254e-19)
(1.01948 0.0148253 8.10427e-19)
(1.01772 0.0142806 -8.1552e-19)
(1.01592 0.015469 0)
(1.03625 -0.00577165 0)
(1.02975 -0.00848167 -7.64055e-19)
(1.02778 -0.0120425 7.56489e-19)
(1.02494 0.0101592 0)
(1.02351 0.0138429 0)
(1.01141 0.00410189 0)
(1.01424 0.00907423 0)
(1.01514 0.00405539 0)
(1.01424 0.00282205 0)
(0.0630973 1.3422 0)
(0.0659352 1.29709 0)
(0.143187 1.36979 4.27372e-22)
(0.272228 1.47003 8.50354e-20)
(0.165329 1.441 1.77238e-19)
(0.197392 1.44781 -2.90001e-19)
(0.164877 1.39478 0)
(0.131539 1.59593 -7.92259e-20)
(0.115221 1.57027 0)
(0.349098 2.01563 -1.0527e-19)
(0.344644 2.3483 6.23652e-19)
(0.188638 1.45426 6.90766e-20)
(0.261365 1.38498 2.06555e-20)
(0.197144 1.37416 -1.67234e-20)
(0.272768 1.32843 -1.06833e-19)
(0.240464 1.57883 0)
(0.263283 1.61797 1.15369e-19)
(0.0294774 2.26565 -3.41917e-20)
(0.0423549 2.66939 0)
(0.0648275 2.40258 1.4468e-19)
(0.0609852 2.42307 0)
(0.0685417 2.67191 -2.28823e-19)
(0.0483071 2.69934 0)
(0.0263932 1.41974 1.5314e-20)
(0.032689 1.47129 0)
(0.0283097 1.38861 0)
(0.0230457 1.39191 -1.72791e-20)
(-0.000364791 2.65199 -1.6959e-20)
(0.028648 2.69781 1.88862e-19)
(0.00967396 2.72185 1.33505e-21)
(0.00238626 1.8301 1.02712e-20)
(-0.00371405 1.68255 3.26771e-21)
(0.0151946 1.29809 0)
(0.0178518 1.22028 0)
(0.0453188 1.57907 -8.24307e-21)
(0.0283946 1.45383 -1.37436e-20)
(0.0353521 1.51824 1.73339e-20)
(0.038138 1.60309 0)
(-0.0256889 2.26732 6.51698e-20)
(-0.0261694 2.55053 -2.67021e-20)
(-0.0136805 2.44532 8.10992e-23)
(-0.00221283 1.84638 -1.24491e-20)
(-0.0232351 2.49784 -3.85657e-21)
(-0.0194481 2.44086 2.40909e-20)
(1.01913 0.0210368 -8.05981e-19)
(1.01511 0.0268461 8.10583e-19)
(1.01415 0.0162667 0)
(1.01226 0.0712328 1.13815e-18)
(0.989477 0.0599193 -1.28151e-18)
(0.946599 0.0446604 1.43507e-18)
(1.0137 0.109655 -1.51663e-19)
(1.04258 -0.0058022 0)
(1.05082 -0.0015484 7.29042e-19)
(1.03887 -0.00991849 -7.30484e-19)
(1.07082 0.0417016 -4.34051e-20)
(1.06425 0.0233281 3.74154e-19)
(1.06327 0.0557519 0)
(1.0532 0.0490305 -1.34519e-19)
(1.03246 0.0421156 0)
(1.02566 0.038461 0)
(1.02782 0.0131558 0)
(1.02406 0.0159001 0)
(1.03982 0.0319192 2.76982e-19)
(1.03879 0.0266802 -6.12123e-19)
(1.05087 0.0336241 -2.93642e-19)
(1.04814 0.033642 -3.23393e-19)
(1.07073 0.0635355 6.31468e-19)
(1.09582 0.0515286 0)
(1.10414 0.0948311 0)
(-0.0199668 2.27276 4.11502e-20)
(-0.0165618 2.01391 -3.77198e-22)
(-0.0132038 2.02027 0)
(-0.0234018 2.44652 -4.09542e-20)
(-0.0178352 2.40341 1.53334e-22)
(-0.0284403 2.4765 3.74863e-21)
(-0.018994 2.62185 4.78002e-21)
(-0.0199156 2.56353 -1.08816e-21)
(-0.0188874 2.5138 2.08577e-21)
(-0.0138235 2.61694 1.67574e-21)
(-0.0190558 2.61828 -5.38471e-22)
(-0.000360207 1.48426 -3.28435e-22)
(0.00958232 1.61515 -1.79929e-20)
(0.364201 1.43752 -1.11693e-19)
(0.365707 1.37462 3.85167e-20)
(0.6533 1.41601 -2.29667e-19)
(0.520231 1.484 -1.39866e-19)
(0.577991 1.44953 0)
(0.593897 2.42751 2.0801e-19)
(0.661585 2.42128 3.38935e-19)
(0.411297 2.5178 8.65239e-20)
(0.402834 2.54323 -6.19503e-19)
(0.511207 2.48603 6.16696e-19)
(0.553613 2.46444 0)
(0.489327 2.52099 -5.63207e-19)
(0.248125 2.5936 1.16284e-18)
(0.354462 2.56659 -7.90166e-20)
(0.284182 2.6552 -1.60532e-18)
(0.946724 2.38016 7.30627e-19)
(0.837909 2.38518 0)
(1.01105 0.000464295 2.6461e-20)
(1.0153 -0.005442 -2.14697e-20)
(1.01763 -0.00357009 -3.9216e-19)
(1.01499 -0.000919168 3.94245e-19)
(1.01242 0.00116221 0)
(0.642271 1.28723 0)
(0.667298 1.18457 0)
(0.779339 1.0965 0)
(0.660019 1.14707 0)
(1.1869 2.61885 5.93923e-20)
(1.07572 2.36596 0)
(0.838154 2.17555 3.85088e-21)
(0.825981 2.44138 0)
(0.923273 2.53325 -4.23974e-19)
(0.958882 2.489 2.82091e-19)
(0.808549 0.175708 0)
(0.764461 0.150025 1.63717e-19)
(0.916598 0.147525 9.53692e-19)
(0.83148 0.149189 -3.56961e-19)
(0.792981 0.0848453 -1.10113e-18)
(1.07937 0.235954 -9.09349e-19)
(0.995771 0.294274 -1.61505e-20)
(0.929189 0.296886 8.74022e-19)
(1.00738 0.226071 7.30601e-19)
(0.950802 0.192536 -1.2648e-18)
(0.915314 0.195505 1.58073e-19)
(0.954768 0.258583 -3.36334e-19)
(0.93009 0.22056 0)
(0.992767 0.187962 6.23895e-19)
(1.04693 0.189414 0)
(1.04321 0.216358 0)
(1.10537 0.11849 2.93698e-19)
(1.07095 0.176823 -1.45394e-20)
(1.07379 0.237019 -1.5984e-19)
(1.10147 0.203332 0)
(1.0229 0.046226 6.24885e-19)
(1.03981 0.0590827 7.79237e-19)
(1.03376 0.0445606 -6.19835e-19)
(1.04253 0.0658259 -5.2225e-19)
(1.01894 0.073522 -8.00336e-19)
(0.98803 0.160224 0)
(0.99827 0.105941 0)
(0.964971 0.0677854 -5.11301e-19)
(0.910409 0.0912955 2.00731e-19)
(1.0392 0.105144 7.21949e-19)
(1.06891 0.121545 -8.47047e-19)
(1.07513 0.154687 7.56357e-19)
(1.02887 0.145024 0)
(1.07452 0.109928 0)
(1.05462 0.0905795 -3.46537e-19)
(1.04387 0.0955943 -5.90664e-19)
(0.583054 1.07074 1.41302e-19)
(0.61001 1.39666 -4.28024e-20)
(1.15695 2.73425 -2.2863e-19)
(1.22298 3.07613 1.83746e-21)
(1.24904 2.71757 -1.30146e-19)
(1.27827 2.7011 -3.02441e-20)
(1.20634 2.34208 -1.06445e-20)
(1.21052 2.98016 -9.38309e-20)
(1.23031 2.94552 2.35435e-19)
(1.21349 3.22944 -1.43378e-19)
(1.37375 2.96109 1.98204e-19)
(1.36332 2.87938 0)
(0.553863 0.826243 -5.03782e-20)
(0.125426 1.24059 5.76157e-19)
(0.542413 0.406379 5.87407e-19)
(0.381737 0.154359 6.45544e-19)
(0.503624 0.348634 7.08531e-19)
(0.543054 0.451953 -1.14165e-18)
(0.545716 0.451554 9.33349e-19)
(0.484123 0.361785 -3.56232e-19)
(0.387347 0.293396 8.08028e-19)
(0.729938 0.259107 -3.61236e-19)
(0.691079 0.281444 0)
(0.65891 0.20054 8.08392e-21)
(0.735519 0.505884 3.77979e-19)
(0.707847 0.474222 -1.37766e-18)
(0.614275 0.453535 1.36481e-20)
(0.61979 0.442942 0)
(0.683452 0.719253 4.02924e-19)
(0.845605 0.773429 4.06325e-19)
(0.769577 0.855436 -4.75141e-19)
(0.892105 0.810387 -1.60253e-19)
(0.922915 0.85439 -3.93543e-20)
(0.930211 0.854166 4.03001e-20)
(0.855839 0.650541 -7.02284e-19)
(0.938527 0.705864 1.48865e-19)
(0.997196 0.721412 0)
(0.988031 0.698457 -2.02542e-19)
(1.02511 0.334498 2.18691e-19)
(1.14364 0.300193 2.98197e-19)
(1.06637 0.273413 3.72002e-19)
(1.01148 0.366737 -4.41252e-19)
(1.06077 0.432811 0)
(1.1187 0.416434 0)
(0.919787 0.368823 4.3958e-21)
(0.842047 0.300108 0)
(0.882297 0.296973 4.11892e-19)
(0.910432 0.303949 -6.00494e-21)
(0.946872 0.43799 2.11572e-18)
(0.905566 0.495367 5.46249e-19)
(0.909234 0.460821 -5.81254e-19)
(0.82985 0.445416 6.22683e-19)
(0.812596 0.438502 3.73971e-19)
(0.781482 0.420071 -3.67665e-19)
(1.02731 -0.000351532 6.533e-19)
(1.02 -4.02257e-05 0)
(1.01851 0.000890549 4.25921e-19)
(1.02169 -0.00168599 -9.64812e-19)
(1.02231 0.00434628 4.68671e-19)
(1.02036 0.0113113 -9.81567e-19)
(1.0213 0.0106941 0)
(1.02058 0.0109352 -2.04545e-19)
(1.01597 0.00773672 5.13154e-19)
(1.01667 0.0105059 -2.56035e-19)
(1.01737 0.00985513 1.88569e-19)
(0.027943 1.31872 0)
(0.0337517 1.36157 0)
(0.0434261 1.31966 0)
(0.0473077 1.27639 0)
(0.0707776 1.38395 -2.66804e-20)
(0.0779157 1.35385 1.51923e-20)
(0.111346 1.52061 -1.83207e-20)
(0.093874 1.36636 -1.0275e-21)
(0.033203 1.45847 -6.18256e-21)
(0.0372838 1.45125 4.95256e-21)
(0.0624748 1.36841 -8.01559e-21)
(0.0545838 1.37006 2.74321e-20)
(0.0484349 1.34587 3.91439e-21)
(0.0385582 1.36937 6.06572e-22)
(0.106415 2.37331 -1.59773e-19)
(0.0951677 2.42005 0)
(0.169943 2.04804 1.10751e-19)
(0.109769 1.7091 4.3132e-20)
(0.231238 2.04346 -9.13246e-20)
(0.203164 2.43632 0)
(0.264304 2.38675 -6.08022e-19)
(0.303551 2.38455 4.30596e-19)
(0.229905 2.00386 -2.53768e-19)
(0.153632 2.16417 1.70784e-19)
(0.142371 2.27462 0)
(0.0160615 1.87777 -1.48216e-20)
(-0.00204361 2.39575 -6.15623e-20)
(0.00371766 2.15024 0)
(0.009643 2.45832 -1.34227e-20)
(0.0259521 2.30315 1.89352e-20)
(0.0157359 1.40076 -3.43757e-21)
(0.0152866 1.38641 6.03891e-20)
(0.0152373 1.39139 -2.16182e-20)
(0.0203761 1.39208 -1.49097e-20)
(0.0255502 1.42347 0)
(0.0120384 1.37367 0)
(0.00492577 1.29084 -2.386e-20)
(0.0127979 1.36438 6.41216e-21)
(0.014101 1.36503 0)
(0.00895991 1.28276 -1.66643e-20)
(0.0164789 1.21304 3.53911e-20)
(1.04055 0.0115886 0)
(1.0466 0.00786171 -6.84042e-20)
(1.03854 0.0216152 -4.93422e-19)
(1.04822 0.0204493 0)
(1.05205 0.020285 0)
(1.03626 0.0117531 -6.7132e-21)
(1.03096 0.011598 7.92813e-19)
(1.03172 0.0164809 9.60957e-19)
(1.02564 0.0203679 0)
(1.02268 0.0207597 0)
(1.03508 0.0253272 4.92016e-19)
(1.02591 0.0265758 0)
(1.02403 0.026613 0)
(-0.0152564 2.01713 0)
(0.0064169 1.64569 -3.61228e-21)
(-0.00105244 1.75239 -2.34033e-20)
(0.005059 1.37615 0)
(-0.002847 1.54562 -7.65174e-21)
(-0.00248522 1.45391 6.0109e-21)
(0.000433465 1.38832 0)
(0.392356 1.66338 0)
(0.369551 1.30395 -7.39094e-20)
(0.303526 1.34455 0)
(0.423544 1.30543 1.20039e-20)
(0.468834 1.462 0)
(0.450264 1.40844 2.18057e-20)
(1.03672 2.68258 -1.54832e-20)
(0.967712 2.40943 -9.18455e-19)
(0.91996 2.1948 1.03961e-18)
(0.851663 2.37715 2.42925e-19)
(0.848352 2.49356 0)
(0.918329 2.48932 0)
(0.930035 2.3739 0)
(0.908832 2.36233 -9.46663e-19)
(0.689331 2.45976 -3.9621e-19)
(0.801641 2.4494 -9.8019e-20)
(0.812404 2.42328 7.4574e-20)
(0.696028 2.39482 0)
(0.800787 2.39018 0)
(0.759232 2.40319 -3.69324e-19)
(0.769101 2.48396 0)
(0.627177 1.09735 0)
(0.484905 0.915033 -5.08596e-19)
(0.561882 0.95191 -3.22832e-20)
(0.524218 1.04884 0)
(0.524537 0.994912 7.63151e-19)
(0.791865 0.879347 -1.33374e-19)
(0.802436 1.01616 0)
(0.776879 0.980424 1.92056e-19)
(0.661294 1.0338 0)
(0.663944 0.93769 0)
(1.16544 2.75691 -2.32687e-19)
(1.14309 2.82013 -9.87201e-20)
(0.932109 2.33754 1.03055e-19)
(0.899874 2.31711 -8.41427e-20)
(1.1308 2.73043 0)
(1.08437 2.70025 1.01265e-19)
(1.09091 2.48441 -3.18016e-19)
(0.985756 2.23594 -3.07132e-20)
(0.498823 1.34689 0)
(0.51349 1.07372 -1.24608e-19)
(0.575404 1.17159 0)
(0.857599 0.239159 0)
(0.777327 0.191093 0)
(0.709947 0.15366 0)
(0.850337 0.239546 -6.48315e-19)
(0.749812 0.22897 3.77035e-19)
(0.927181 0.0776879 -4.14363e-19)
(0.941219 0.124587 0)
(0.922079 0.137467 1.78032e-19)
(0.858657 0.112292 7.14403e-19)
(0.825271 0.069861 -4.4692e-19)
(1.15935 3.35467 -7.19991e-19)
(1.2079 3.27399 0)
(1.15708 3.38325 -1.48735e-18)
(0.64499 3.54429 1.26293e-18)
(0.868481 3.11247 7.09875e-20)
(0.520793 0.826549 6.07663e-19)
(0.430658 0.824217 0)
(0.323406 0.442588 -1.51861e-19)
(0.458894 0.663007 8.66787e-19)
(0.544556 0.409476 -2.0446e-19)
(0.511899 0.481428 2.36823e-19)
(0.666136 0.516127 5.0979e-19)
(0.700159 0.547641 0)
(0.651959 0.589545 0)
(0.610744 0.534246 0)
(0.998995 0.608315 9.5425e-20)
(0.911571 0.544687 -5.31368e-19)
(0.937844 0.577714 4.02447e-19)
(0.969633 0.5162 -4.10865e-19)
(1.07833 0.488859 0)
(1.08657 0.579071 -1.01501e-19)
(0.852384 0.398326 -8.53694e-19)
(0.854987 0.386868 -1.05478e-18)
(0.794346 0.386074 6.65805e-19)
(0.79729 0.358715 -6.80077e-19)
(0.84538 0.320071 -5.32907e-19)
(0.794488 0.318759 6.53594e-19)
(1.02666 0.00582924 -4.98919e-19)
(1.02638 0.00604881 1.01528e-18)
(1.02932 2.45201e-05 6.33248e-19)
(1.03352 0.000938888 -7.62685e-19)
(1.03362 0.00887572 0)
(1.03004 0.00954882 -1.24139e-18)
(0.0615228 1.64322 2.32261e-20)
(0.0446289 1.57897 0)
(0.0847699 1.69362 1.39882e-19)
(0.0951461 1.67566 -1.23292e-19)
(0.0878395 1.53336 3.43541e-20)
(0.0860412 1.52159 0)
(0.0110084 1.67782 0)
(-0.00275377 1.48383 1.13434e-21)
(-0.000273958 1.42943 -1.01968e-21)
(-0.0031927 1.54143 6.05878e-21)
(0.00356661 1.87704 6.08567e-22)
(-0.00780573 1.93158 3.12155e-21)
(0.49959 1.36945 -2.77353e-19)
(0.492901 1.37249 3.04524e-19)
(0.450514 1.30077 -3.34603e-20)
(0.438125 1.29378 7.96008e-21)
(0.633912 1.30405 0)
(0.548402 1.3929 9.96589e-20)
(0.564126 1.39929 -9.70505e-20)
(0.462427 1.28761 3.25351e-20)
(0.519015 1.24194 0)
(0.571334 1.20789 0)
(0.656276 2.41919 5.82131e-19)
(0.6711 2.45957 1.26951e-18)
(0.715852 2.47014 -8.74428e-19)
(0.612484 2.44469 -2.02931e-19)
(0.561195 2.53584 2.84985e-19)
(0.509867 2.50962 -7.60174e-19)
(0.978341 2.3797 -5.81698e-19)
(1.01386 2.39231 0)
(0.925916 2.17274 -6.71625e-19)
(1.05487 2.67962 0)
(1.05715 2.66639 0)
(0.606513 2.26621 -1.21045e-19)
(1.04058 3.15845 1.32951e-19)
(0.911431 3.02877 -3.67266e-20)
(0.274481 0.882254 0)
(0.307094 0.734266 -3.19523e-19)
(0.472667 0.691825 -3.22303e-19)
(0.383961 2.01194 0)
(0.464663 2.78223 -4.94163e-20)
(0.419518 2.54549 0)
(0.702529 0.669138 -8.52977e-19)
(0.783991 0.677858 1.15341e-18)
(0.80538 0.621478 -1.14053e-18)
(0.681285 0.632278 -1.09946e-19)
(0.736186 0.588969 -4.53155e-19)
(1.00359 2.75989 -1.01104e-19)
(1.04268 2.8181 -1.65334e-19)
(0.636487 2.13555 6.80862e-19)
(0.592049 1.70499 -4.85421e-19)
(0.698169 1.89945 -4.07651e-19)
(0.989636 2.44336 -1.13922e-19)
(0.995593 2.43571 2.98224e-19)
(0.656674 1.83512 2.825e-20)
(0.44845 1.32576 1.45917e-19)
)
;

boundaryField
{
    wall-4
    {
        type            noSlip;
    }
    velocity-inlet-5
    {
        type            fixedValue;
        value           uniform (1 0 0);
    }
    velocity-inlet-6
    {
        type            fixedValue;
        value           uniform (0 3 0);
    }
    pressure-outlet-7
    {
        type            zeroGradient;
    }
    wall-8
    {
        type            noSlip;
    }
    frontAndBackPlanes
    {
        type            empty;
    }
}


// ************************************************************************* //
