/*--------------------------------*- C++ -*----------------------------------*\
  =========                 |
  \\      /  F ield         | OpenFOAM: The Open Source CFD Toolbox
   \\    /   O peration     | Website:  https://openfoam.org
    \\  /    A nd           | Version:  9
     \\/     M anipulation  |
\*---------------------------------------------------------------------------*/
FoamFile
{
    format      ascii;
    class       volScalarField;
    location    "30";
    object      p;
}
// * * * * * * * * * * * * * * * * * * * * * * * * * * * * * * * * * * * * * //

dimensions      [0 2 -2 0 0 0 0];

internalField   nonuniform List<scalar> 
2200
(
0.977152
0.955651
0.939742
0.92407
0.909453
0.896925
0.886555
0.87843
0.872678
0.869634
0.869995
0.873696
0.879922
0.888388
0.898994
0.911716
0.926453
0.942279
0.958273
0.979783
0.909579
0.906319
0.903392
0.899271
0.893808
0.887327
0.880697
0.874717
0.870176
0.867692
0.868057
0.871226
0.876278
0.882639
0.88954
0.896213
0.901819
0.905945
0.90885
0.912171
0.869696
0.869916
0.871977
0.873318
0.873698
0.872837
0.870828
0.868093
0.865483
0.863908
0.864337
0.866635
0.869802
0.872947
0.875227
0.87622
0.875945
0.874833
0.873027
0.872791
0.847273
0.848729
0.851314
0.853747
0.856172
0.858174
0.859297
0.859496
0.859038
0.858622
0.859099
0.860341
0.861421
0.861689
0.860932
0.8592
0.856983
0.854729
0.852151
0.850722
0.832911
0.834878
0.837699
0.840544
0.843407
0.846215
0.848657
0.850501
0.85168
0.852368
0.852925
0.853212
0.852781
0.851501
0.849512
0.847031
0.84438
0.841619
0.838832
0.836899
0.825678
0.827267
0.829475
0.832014
0.834674
0.837317
0.839859
0.842208
0.844137
0.845503
0.84616
0.845954
0.844935
0.843271
0.841221
0.83897
0.836569
0.834181
0.832057
0.830483
0.822487
0.823513
0.824778
0.82663
0.828746
0.830869
0.832971
0.835134
0.837197
0.838846
0.839636
0.83941
0.838431
0.837072
0.835554
0.833868
0.832072
0.83043
0.829276
0.828258
0.819899
0.820561
0.821209
0.822546
0.824193
0.825891
0.827602
0.829429
0.831323
0.833051
0.834016
0.834029
0.833455
0.832605
0.831618
0.830454
0.829225
0.82816
0.827639
0.826977
0.816849
0.817269
0.817705
0.818774
0.820111
0.82154
0.823036
0.82464
0.82634
0.828032
0.829207
0.82962
0.829538
0.829172
0.828585
0.827838
0.826991
0.82625
0.825959
0.825528
0.813294
0.813574
0.813979
0.814935
0.816139
0.817477
0.818918
0.820441
0.822036
0.82371
0.82516
0.826074
0.826449
0.82644
0.826115
0.825591
0.824971
0.824412
0.824176
0.823887
0.809076
0.809254
0.809656
0.810598
0.811835
0.813292
0.814922
0.816652
0.818435
0.820311
0.822128
0.823465
0.824157
0.824271
0.824005
0.823536
0.823021
0.822544
0.822323
0.822125
0.804325
0.804426
0.804819
0.805757
0.807071
0.808684
0.810593
0.812737
0.815052
0.817469
0.819706
0.821219
0.82195
0.822062
0.821851
0.821494
0.821055
0.820668
0.820485
0.82037
0.799401
0.799435
0.799824
0.800756
0.802071
0.80373
0.805724
0.808078
0.810851
0.813873
0.816602
0.818421
0.819383
0.819848
0.819962
0.819811
0.819541
0.819273
0.819147
0.819088
0.794515
0.794454
0.794863
0.795703
0.797041
0.798702
0.800662
0.803036
0.805984
0.809462
0.812871
0.815491
0.817228
0.818322
0.818879
0.819029
0.818993
0.818906
0.818839
0.818811
0.789591
0.789472
0.789879
0.790712
0.792064
0.793895
0.796014
0.798621
0.801859
0.805833
0.810049
0.813573
0.816095
0.817764
0.818732
0.819281
0.819532
0.819612
0.819601
0.819577
0.784338
0.784341
0.784617
0.785448
0.787035
0.789025
0.791558
0.794756
0.798717
0.803554
0.808723
0.81302
0.81607
0.818147
0.819561
0.820435
0.82091
0.821144
0.821213
0.821191
0.778297
0.778264
0.778644
0.779604
0.781228
0.783435
0.786393
0.790265
0.795178
0.801233
0.807653
0.812937
0.816701
0.819363
0.82127
0.822485
0.823221
0.823633
0.823773
0.823741
0.771047
0.770973
0.7714
0.772482
0.774241
0.776689
0.780042
0.784535
0.790431
0.797882
0.805905
0.812624
0.817544
0.821122
0.823656
0.825372
0.826481
0.827108
0.827329
0.827278
0.762289
0.762211
0.762651
0.763822
0.765852
0.768746
0.772733
0.778131
0.78525
0.794336
0.804267
0.812668
0.818934
0.823532
0.826845
0.829186
0.830755
0.831614
0.831901
0.831819
0.751519
0.751453
0.752013
0.75346
0.755955
0.759575
0.764613
0.771389
0.780273
0.791477
0.803597
0.813791
0.821433
0.827056
0.831174
0.834085
0.836032
0.837082
0.837439
0.837335
0.738395
0.7383
0.739019
0.740859
0.744051
0.748705
0.755129
0.763774
0.775016
0.788915
0.80364
0.815948
0.825111
0.831877
0.836773
0.840252
0.842613
0.843856
0.844271
0.84414
0.721736
0.721675
0.722689
0.725127
0.729302
0.735355
0.743685
0.75478
0.768932
0.786102
0.803958
0.818773
0.829719
0.837841
0.84373
0.847926
0.850701
0.852142
0.852627
0.852467
0.700735
0.700604
0.701972
0.70529
0.710911
0.719067
0.730105
0.7444
0.762189
0.783256
0.804738
0.82242
0.83547
0.845124
0.852164
0.857209
0.860532
0.862244
0.862798
0.862577
0.673133
0.673236
0.675489
0.680281
0.688244
0.699548
0.714317
0.732883
0.755149
0.780768
0.806375
0.827203
0.842546
0.853898
0.862238
0.868211
0.872115
0.874096
0.874711
0.874447
0.636398
0.636753
0.640528
0.648346
0.660263
0.676362
0.696455
0.720441
0.748128
0.779053
0.809218
0.833404
0.851148
0.864305
0.874018
0.881029
0.885617
0.887938
0.888621
0.888248
0.587511
0.588027
0.595293
0.60816
0.626458
0.649721
0.676679
0.707307
0.741322
0.778125
0.813125
0.840842
0.861161
0.876237
0.887472
0.895637
0.900983
0.903531
0.90415
0.903706
0.522058
0.525055
0.540706
0.562376
0.589421
0.620863
0.655716
0.693858
0.734977
0.77839
0.818992
0.851006
0.874607
0.892324
0.905657
0.915616
0.922339
0.925334
0.925836
0.925573
0.446784
0.456918
0.483261
0.514808
0.551648
0.591973
0.634838
0.680783
0.729328
0.779824
0.826666
0.863693
0.891321
0.912409
0.928616
0.940788
0.949567
0.953417
0.95418
0.954444
0.380435
0.396091
0.429053
0.468854
0.514834
0.563789
0.614767
0.668505
0.7243
0.781631
0.834465
0.876134
0.907271
0.93104
0.949338
0.963348
0.97303
0.97824
0.979791
0.979769
0.33065
0.344541
0.382734
0.42832
0.481325
0.537404
0.595726
0.656686
0.71937
0.783349
0.841891
0.887758
0.921681
0.947545
0.96767
0.983141
0.993451
0.998808
1.00029
1.0004
0.289704
0.302653
0.344156
0.393557
0.451805
0.513521
0.578096
0.645454
0.714498
0.784668
0.84824
0.897596
0.933885
0.961381
0.982217
0.998062
1.00897
1.01453
1.01627
1.01641
0.25426
0.267466
0.311359
0.363606
0.425899
0.492148
0.561956
0.634827
0.709469
0.785079
0.853286
0.905813
0.943997
0.972218
0.993635
1.00984
1.02101
1.02695
1.02888
1.02904
0.223333
0.236679
0.282504
0.337138
0.402759
0.472805
0.547016
0.624561
0.704085
0.784575
0.856966
0.912145
0.951723
0.98098
1.00289
1.0193
1.0309
1.03712
1.03926
1.03938
0.195421
0.208848
0.256324
0.313163
0.381714
0.454962
0.532867
0.61442
0.698307
0.783358
0.859689
0.917391
0.958335
0.988342
1.01077
1.02744
1.03903
1.04563
1.04757
1.04745
0.169918
0.183302
0.23201
0.290951
0.362131
0.43811
0.519204
0.604324
0.692218
0.781562
0.861529
0.921631
0.964223
0.995095
1.01785
1.03472
1.04623
1.05253
1.05464
1.0545
0.145834
0.159523
0.209156
0.270103
0.343585
0.421953
0.505834
0.594128
0.685555
0.77855
0.862095
0.925254
0.969618
1.00135
1.0246
1.04148
1.05293
1.05917
1.06125
1.06122
0.123138
0.136959
0.187419
0.250207
0.325737
0.406263
0.4926
0.583659
0.678206
0.774865
0.862725
0.929009
0.974988
1.0078
1.03129
1.04818
1.05968
1.0657
1.06788
1.06783
0.101708
0.115518
0.166647
0.230992
0.308272
0.390792
0.479364
0.572894
0.67047
0.770949
0.862516
0.931791
0.980252
1.01418
1.03812
1.05512
1.06656
1.0725
1.07448
1.07446
0.0810502
0.0950446
0.14664
0.212273
0.291033
0.375382
0.46603
0.561895
0.662198
0.765825
0.861069
0.934169
0.985172
1.02053
1.04525
1.06233
1.07367
1.07931
1.08128
1.08117
0.0607009
0.075325
0.127252
0.193962
0.273949
0.359944
0.452528
0.55053
0.653266
0.760087
0.859668
0.936211
0.989873
1.02731
1.05291
1.07005
1.08095
1.0864
1.088
1.08784
0.0406589
0.0560964
0.108357
0.176033
0.257056
0.344496
0.438807
0.538765
0.643937
0.753729
0.856414
0.936591
0.994186
1.03438
1.0613
1.07852
1.08866
1.09327
1.09455
1.0943
0.021061
0.037243
0.0899225
0.158527
0.240437
0.329088
0.424904
0.526667
0.633902
0.746007
0.85192
0.936799
0.998158
1.04149
1.07063
1.08816
1.09702
1.10028
1.10071
1.10049
0.00207582
0.0188013
0.0719685
0.14147
0.224165
0.313833
0.410908
0.51417
0.623098
0.737469
0.846658
0.935208
1.00103
1.04883
1.08102
1.09981
1.10734
1.1067
1.10592
1.10649
-0.016272
0.000853901
0.0545518
0.124909
0.208318
0.298816
0.396868
0.501314
0.611798
0.728145
0.839885
0.932247
1.00301
1.05559
1.09235
1.1139
1.1212
1.11628
1.11084
1.10866
-0.033947
-0.0164923
0.0377274
0.108872
0.192927
0.284096
0.382911
0.48832
0.600125
0.718139
0.832055
0.927943
1.00306
1.06152
1.10433
1.131
1.14238
1.13161
1.12741
1.13206
-0.0509614
-0.0331817
0.0215459
0.0933909
0.178026
0.269756
0.369188
0.475368
0.588148
0.707505
0.823197
0.921681
1.00106
1.06538
1.11549
1.15012
1.16997
1.14801
1.10376
1.06148
-0.0672476
-0.0492179
0.00596527
0.0783841
0.163496
0.25567
0.355547
0.462236
0.575703
0.696074
0.813287
0.913305
0.995872
1.06596
1.12437
1.17023
1.20543
1.20773
1.22588
1.2777
-0.0827686
-0.064657
-0.00910404
0.0637125
0.149146
0.241591
0.341698
0.448621
0.562454
0.683438
0.801256
0.902038
0.986812
1.06066
1.12311
1.17162
1.1998
1.19635
1.16465
1.17415
-0.0974904
-0.079466
-0.0236198
0.0494318
0.135046
0.227597
0.327755
0.434681
0.548488
0.669461
0.787209
0.888208
0.972141
1.04552
1.10675
1.15157
1.15295
1.11004
1.05183
1.04182
-0.11143
-0.0936427
-0.0375765
0.0355454
0.121197
0.213683
0.313718
0.420406
0.533792
0.654094
0.771253
0.870878
0.951795
1.01919
1.07341
1.09123
1.06197
0.991854
0.920554
0.905676
-0.124621
-0.10718
-0.0509903
0.0220404
0.107593
0.199844
0.299572
0.405774
0.518353
0.637488
0.75329
0.850541
0.92534
0.979976
1.00969
1.00166
0.952991
0.853975
0.768147
0.750003
-0.137524
-0.120495
-0.0642534
0.00855332
0.0938863
0.185771
0.285031
0.390515
0.50201
0.619562
0.732991
0.82607
0.893593
0.932637
0.92813
0.895521
0.791227
0.670686
0.564485
0.5406
-0.151034
-0.134368
-0.0780694
-0.00554096
0.0795099
0.170988
0.269684
0.374314
0.484505
0.599934
0.710133
0.798437
0.859339
0.875134
0.838834
0.754118
0.598557
0.44674
0.319239
0.293956
-0.165662
-0.149229
-0.0927517
-0.0204768
0.0642774
0.155364
0.253456
0.357128
0.465833
0.578824
0.685054
0.767806
0.816546
0.805691
0.748233
0.599393
0.396349
0.181204
-5.81878e-05
-0.0463334
-0.181494
-0.165142
-0.108364
-0.0362782
0.0482193
0.138945
0.236403
0.339044
0.44611
0.556218
0.657299
0.734216
0.768032
0.725052
0.634386
0.441127
0.202107
-0.0941974
-0.422469
-0.566132
-0.198594
-0.182218
-0.124999
-0.0530198
0.0312829
0.12167
0.21848
0.320011
0.425274
0.532265
0.627719
0.698677
0.716028
0.640122
0.498555
0.282767
0.0369623
-0.319972
-0.922752
-1.50305
-0.216999
-0.200508
-0.142729
-0.0707572
0.0134687
0.103572
0.199747
0.300139
0.403556
0.507298
0.596808
0.659661
0.659493
0.564312
0.366988
0.117621
-0.0997908
-0.352153
-0.937494
-2.51412
-0.236705
-0.220107
-0.16161
-0.0895949
-0.00538172
0.0844511
0.179965
0.279151
0.380581
0.480854
0.564646
0.618291
0.599141
0.503379
0.267341
0.00745354
-0.153126
-0.204472
-0.214487
-0.616017
-0.257641
-0.241058
-0.181829
-0.109833
-0.0256299
0.0638615
0.158573
0.256321
0.355454
0.451897
0.530238
0.574069
0.537479
0.455501
0.218777
-0.00990252
-0.137015
-0.152205
-0.104929
-0.148524
-0.279769
-0.263203
-0.203334
-0.131496
-0.0473378
0.041681
0.135413
0.231525
0.328016
0.420008
0.493529
0.527779
0.482035
0.401649
0.179707
-0.00233434
-0.0964874
-0.105979
-0.15292
-0.162415
-0.303006
-0.286315
-0.22612
-0.154606
-0.0704546
0.0179424
0.110532
0.204761
0.298286
0.385746
0.454757
0.479839
0.43186
0.338297
0.147841
0.00562536
-0.0797559
-0.0462695
-0.0703704
-0.0726108
-0.327127
-0.310037
-0.25005
-0.178989
-0.0948081
-0.00725458
0.0840137
0.176234
0.266495
0.349392
0.413723
0.429138
0.388583
0.269506
0.108329
0.00480983
-0.0527102
-0.0877657
-0.0668295
-0.073761
-0.351594
-0.334192
-0.275071
-0.204487
-0.120156
-0.0336847
0.0561613
0.146244
0.233022
0.311386
0.371348
0.376227
0.345958
0.204761
0.0658312
-0.00933188
-0.00345355
-0.0661377
-0.0390061
-0.0464889
-0.375881
-0.358407
-0.300759
-0.230526
-0.146145
-0.0610139
0.0273293
0.115223
0.198028
0.272087
0.328824
0.323426
0.297392
0.153097
0.0310139
-0.0384104
-0.00418088
-0.0394244
-0.0378362
-0.0391942
-0.399471
-0.38237
-0.326334
-0.256467
-0.17244
-0.0888205
-0.00200607
0.0836624
0.162414
0.232155
0.287632
0.273481
0.238212
0.109296
0.0196194
-0.0384528
-0.0557512
-0.0394917
-0.0431714
-0.0391703
-0.421687
-0.405318
-0.350677
-0.281404
-0.198641
-0.116442
-0.0311227
0.052275
0.127064
0.191988
0.248232
0.225295
0.176656
0.0721304
0.0180607
-0.0144638
-0.0752082
-0.0327445
-0.0413079
-0.0331388
-0.441587
-0.426305
-0.373163
-0.304686
-0.224132
-0.143101
-0.0593093
0.0219752
0.0933738
0.152296
0.210307
0.179884
0.108998
0.0259005
0.0154755
0.0490322
-0.0313221
-0.00875751
-0.0303107
-0.0270151
-0.458036
-0.444183
-0.392963
-0.325776
-0.247778
-0.167679
-0.085509
-0.00641596
0.0626163
0.114614
0.174168
0.13882
0.0377303
-0.0246038
0.0171313
0.128315
0.0628537
0.0192652
-0.00936045
-0.0260422
-0.469926
-0.457917
-0.409378
-0.343814
-0.267941
-0.189168
-0.108745
-0.0314897
0.0357263
0.0810367
0.13886
0.106282
-0.0430384
-0.142872
-0.121281
-0.113167
-0.119484
-0.125568
-0.138762
-0.135088
-0.476292
-0.46633
-0.421061
-0.3575
-0.283536
-0.206345
-0.127716
-0.0519675
0.0146002
0.0554085
0.103178
0.0855669
-0.125471
-0.398092
-0.62844
-0.755549
-0.768511
-0.707577
-0.649469
-0.600815
-0.476232
-0.46819
-0.426753
-0.365373
-0.293276
-0.217836
-0.140829
-0.066367
0.000203338
0.0422069
0.0764742
0.0680844
-0.16705
-0.564584
-1.10232
-1.42475
-1.4435
-1.38413
-1.2592
-1.16881
-0.468919
-0.461798
-0.42482
-0.366327
-0.296471
-0.222823
-0.147
-0.0724762
-0.00375471
0.0446494
0.0759738
0.0777241
-0.103756
-0.401505
-0.791752
-0.972571
-0.920439
-0.826633
-0.699068
-0.620406
-0.451119
-0.443814
-0.413108
-0.35918
-0.292115
-0.220051
-0.144954
-0.069141
0.00522795
0.0658517
0.110118
0.161949
0.175235
0.264254
0.338648
0.442103
0.56684
0.662775
0.730841
0.800169
-0.418323
-0.41163
-0.390648
-0.343892
-0.28039
-0.209875
-0.134643
-0.0563579
0.026751
0.108271
0.180761
0.315728
0.519164
0.867819
1.21085
1.50217
1.71769
1.85471
1.92629
1.94891
-0.371593
-0.367159
-0.359424
-0.321487
-0.262321
-0.192658
-0.117076
-0.0354029
0.0557171
0.159089
0.262844
0.419656
0.720137
1.14416
1.56596
1.92291
2.18053
2.33218
2.39918
2.41782
-0.332884
-0.331939
-0.327783
-0.296704
-0.241651
-0.172564
-0.0954281
-0.0114152
0.0819711
0.195161
0.315017
0.431828
0.718674
1.07922
1.43807
1.74799
1.98187
2.12226
2.18614
2.20472
-0.303416
-0.305007
-0.299038
-0.27393
-0.220178
-0.151979
-0.0747547
0.00828967
0.0976828
0.203377
0.316413
0.395775
0.608235
0.886608
1.15809
1.39029
1.57208
1.6874
1.74227
1.75992
-0.267776
-0.268917
-0.267691
-0.247776
-0.195279
-0.129826
-0.0554499
0.0234396
0.105305
0.194216
0.296308
0.357986
0.498493
0.715923
0.932894
1.10608
1.24116
1.33496
1.37857
1.39033
-0.220602
-0.221855
-0.223132
-0.20682
-0.160788
-0.102151
-0.0351677
0.0362262
0.108101
0.180257
0.269755
0.324301
0.404701
0.56699
0.739391
0.867127
0.964304
1.03471
1.06569
1.07227
-0.150294
-0.151749
-0.153942
-0.142994
-0.108454
-0.0633822
-0.00938628
0.0505384
0.111415
0.170725
0.246697
0.29607
0.339706
0.45624
0.586668
0.679215
0.748255
0.798328
0.821617
0.82926
-0.066157
-0.0678829
-0.0688951
-0.0618819
-0.0409202
-0.0114256
0.0265079
0.0712634
0.121449
0.168841
0.229806
0.271767
0.298429
0.383847
0.476598
0.539859
0.589917
0.63154
0.647416
0.651643
0.0195943
0.0182484
0.0173104
0.0205991
0.0310505
0.0472484
0.0699329
0.0987573
0.137747
0.171945
0.216512
0.252399
0.267187
0.335432
0.403574
0.444656
0.482824
0.509922
0.524063
0.529145
0.0916066
0.0906258
0.0896769
0.0904288
0.0937854
0.100318
0.111757
0.127391
0.154327
0.177034
0.206271
0.236431
0.243666
0.299769
0.349228
0.381305
0.407499
0.424726
0.433469
0.436129
0.143117
0.142484
0.141333
0.139545
0.138346
0.139336
0.144005
0.151517
0.167548
0.182586
0.201851
0.222052
0.23349
0.270817
0.305576
0.33115
0.348898
0.358623
0.362003
0.361337
0.174164
0.173667
0.172409
0.169576
0.166004
0.164024
0.164811
0.168089
0.17707
0.188157
0.201736
0.21338
0.224928
0.250077
0.272044
0.288066
0.298308
0.300682
0.300005
0.298869
0.190386
0.189975
0.188763
0.18617
0.18209
0.17899
0.177895
0.178847
0.184582
0.193251
0.203087
0.209209
0.215011
0.234327
0.247776
0.25596
0.259509
0.257787
0.254895
0.253722
0.197438
0.197164
0.196205
0.194078
0.190536
0.18755
0.186
0.186087
0.19118
0.197883
0.205358
0.207829
0.208946
0.224511
0.236023
0.240735
0.242121
0.243188
0.241727
0.238927
0.198251
0.198132
0.197559
0.196032
0.193524
0.191168
0.190138
0.190299
0.1957
0.202297
0.211285
0.212733
0.213605
0.225789
0.236311
0.241278
0.243731
0.244726
0.244161
0.241316
0.194045
0.194098
0.193972
0.193208
0.191838
0.190503
0.190584
0.191724
0.197581
0.207581
0.222865
0.226235
0.229479
0.236492
0.244826
0.248267
0.245331
0.239631
0.237714
0.237258
0.184473
0.184746
0.185072
0.185176
0.184957
0.18542
0.186742
0.191172
0.198144
0.210592
0.229822
0.243728
0.247394
0.250997
0.253986
0.25481
0.254005
0.251497
0.249903
0.250551
0.167924
0.168379
0.16917
0.170314
0.171041
0.172873
0.175563
0.182153
0.191121
0.207275
0.232107
0.25592
0.260698
0.264757
0.270747
0.278227
0.296376
0.311624
0.314607
0.311664
0.144265
0.144975
0.14559
0.146755
0.148344
0.151551
0.155362
0.163237
0.173482
0.192752
0.223622
0.248113
0.26804
0.267344
0.287796
0.308918
0.335622
0.358158
0.368315
0.356526
0.112273
0.1132
0.114025
0.115361
0.117072
0.12002
0.123693
0.129938
0.138329
0.156797
0.189145
0.220075
0.235521
0.232247
0.262181
0.289086
0.303985
0.314352
0.324793
0.318808
0.0694154
0.0703118
0.0712531
0.072464
0.0739013
0.0755582
0.0766946
0.07736
0.0789967
0.091351
0.126887
0.166411
0.168116
0.172773
0.200025
0.225311
0.239073
0.236917
0.242818
0.243804
0.018206
0.0188792
0.0194578
0.0199862
0.0198061
0.017937
0.0127741
0.00230254
-0.00944258
-0.00944979
0.0350001
0.0991813
0.1068
0.126121
0.159007
0.184045
0.217438
0.223674
0.21227
0.217608
-0.0393177
-0.0390615
-0.0392342
-0.0400374
-0.0428781
-0.0503268
-0.0661207
-0.0916504
-0.126598
-0.145215
-0.091347
0.0124844
0.0437006
0.081779
0.135042
0.163284
0.195206
0.219019
0.199544
0.2017
-0.0929537
-0.0933502
-0.0947641
-0.0977094
-0.104573
-0.11968
-0.150248
-0.202066
-0.273853
-0.315277
-0.251388
-0.107151
-0.0493171
0.0102459
0.0726292
0.116896
0.119274
0.138064
0.137397
0.136135
-0.133926
-0.135282
-0.138156
-0.142931
-0.153319
-0.176399
-0.221567
-0.300348
-0.422964
-0.498374
-0.417803
-0.246427
-0.162603
-0.0604414
0.00330826
0.0622822
0.077801
0.0560416
0.0704146
0.0671259
-0.146475
-0.147888
-0.150493
-0.158651
-0.175072
-0.204475
-0.25391
-0.344914
-0.511621
-0.629765
-0.55677
-0.353179
-0.243452
-0.110637
-0.0306207
-0.00120791
0.0422367
0.0236276
0.0268818
0.026109
-0.131082
-0.133336
-0.135807
-0.141422
-0.156444
-0.187905
-0.243329
-0.337241
-0.48772
-0.616279
-0.570797
-0.378771
-0.230845
-0.131975
-0.041153
-0.0171861
-0.019845
-0.0116084
-0.011485
-0.0111583
-0.0827153
-0.083884
-0.0853447
-0.0884546
-0.0976475
-0.121596
-0.171097
-0.254537
-0.366872
-0.45842
-0.414732
-0.271316
-0.171684
-0.138742
-0.0945416
-0.0244673
-0.0453349
-0.0365519
-0.0351758
-0.0342589
-0.00141481
-0.00180482
-0.00116772
-0.000502103
-0.00287892
-0.0131819
-0.0370451
-0.0835993
-0.141664
-0.181696
-0.155093
-0.0970021
-0.123404
-0.158118
-0.162503
-0.0938321
-0.062375
-0.0469716
-0.0406918
-0.0387375
-0.921675
-0.054032
0.218149
0.502775
0.69351
0.858389
0.995816
1.13531
1.28489
1.36229
0.0825606
0.502908
0.52688
0.720705
0.853035
0.971367
1.07405
1.16457
1.1943
1.15058
0.47892
0.700367
0.741213
0.880749
0.972361
1.05677
1.1264
1.1783
1.1819
1.19461
0.71775
0.868365
0.904478
1.01161
1.06987
1.13117
1.17788
1.21118
1.22091
1.24411
0.905678
1.00863
1.03903
1.11127
1.15573
1.19925
1.23242
1.25724
1.26752
1.29869
1.05054
1.12243
1.1529
1.19824
1.23511
1.26634
1.29137
1.31235
1.32693
1.35491
1.17229
1.22443
1.25054
1.27969
1.30829
1.33268
1.35312
1.37258
1.38773
1.41404
1.27751
1.31579
1.33721
1.35845
1.37995
1.39981
1.41747
1.43575
1.45071
1.47433
1.37284
1.40185
1.4191
1.43482
1.4514
1.46776
1.48347
1.50053
1.51413
1.53644
1.46179
1.48267
1.49785
1.51128
1.52509
1.53904
1.55259
1.56722
1.57874
1.59841
1.54811
1.564
1.57797
1.58996
1.602
1.61367
1.62481
1.63649
1.64415
1.66097
1.63365
1.6466
1.6604
1.67208
1.68265
1.69239
1.70115
1.70939
1.71296
1.72425
1.72299
1.73399
1.74746
1.75668
1.7641
1.77129
1.77848
1.78503
1.78605
1.79348
1.82143
1.82616
1.83421
1.8387
1.84198
1.84644
1.85244
1.8602
1.86403
1.87391
1.93474
1.92104
1.9136
1.90798
1.90532
1.90672
1.91321
1.92561
1.94037
1.97003
2.05566
1.99993
1.96907
1.952
1.94385
1.94383
1.95254
1.97206
2.00406
2.07325
)
;

boundaryField
{
    wall-4
    {
        type            zeroGradient;
    }
    pressure-outlet-7
    {
        type            fixedValue;
        value           uniform 0;
    }
    velocity-inlet-6
    {
        type            zeroGradient;
    }
    velocity-inlet-5
    {
        type            zeroGradient;
    }
    frontAndBackPlanes
    {
        type            empty;
    }
}


// ************************************************************************* //
