/*--------------------------------*- C++ -*----------------------------------*\
  =========                 |
  \\      /  F ield         | OpenFOAM: The Open Source CFD Toolbox
   \\    /   O peration     | Website:  https://openfoam.org
    \\  /    A nd           | Version:  9
     \\/     M anipulation  |
\*---------------------------------------------------------------------------*/
FoamFile
{
    format      ascii;
    class       surfaceScalarField;
    location    "30";
    object      phi;
}
// * * * * * * * * * * * * * * * * * * * * * * * * * * * * * * * * * * * * * //

dimensions      [0 3 -1 0 0 0 0];

internalField   nonuniform List<scalar> 
4262
(
0.107145
0.470843
0.0955825
0.705149
0.0694163
0.858469
0.0474094
1.02077
0.0310084
1.21492
0.0198434
1.44938
0.0125094
1.7332
0.00728467
2.07626
0.00329412
2.48923
-0.000207824
2.98579
-0.00376424
2.98585
-0.00776439
2.48924
-0.0129412
2.07621
-0.020134
1.73306
-0.0311517
1.44924
-0.0474011
1.21477
-0.0692501
1.02061
-0.0954196
0.858473
-0.107139
0.705305
0.47085
0.112897
0.357946
0.135341
0.682704
0.120489
0.873321
0.0980453
1.04321
0.0749523
1.23801
0.0532132
1.47112
0.0346901
1.75172
0.0204414
2.09051
0.00919244
2.50048
-0.00102964
2.99602
-0.0111383
2.99596
-0.0220987
2.5002
-0.0361043
2.09022
-0.0546383
1.75159
-0.076381
1.47098
-0.0996259
1.23801
-0.122341
1.04333
-0.136453
0.872585
-0.113372
0.682224
0.357478
0.0920451
0.265901
0.124969
0.649781
0.121071
0.877219
0.104707
1.05958
0.086092
1.25663
0.0670361
1.49018
0.0481132
1.77064
0.0302405
2.10838
0.0139904
2.51673
-0.00157217
3.01158
-0.0170789
3.01146
-0.0332277
2.51635
-0.0509041
2.1079
-0.0692534
1.76994
-0.0876415
1.48937
-0.105421
1.25579
-0.120624
1.05853
-0.125293
0.877253
-0.0922655
0.649197
0.265212
0.0639799
0.201921
0.104855
0.608905
0.106642
0.875433
0.0951614
1.07106
0.0809584
1.27083
0.0663301
1.50481
0.050606
1.78637
0.0337813
2.12521
0.0162217
2.53429
-0.00248953
3.03029
-0.0210247
3.03
-0.0380719
2.5334
-0.0541212
2.12394
-0.069239
1.78506
-0.0834681
1.5036
-0.0974705
1.26979
-0.108984
1.07005
-0.106278
0.874547
-0.064549
0.607467
0.200663
0.0375234
0.164397
0.0808565
0.565572
0.0913104
0.864979
0.0842887
1.07808
0.0717115
1.28341
0.0595852
1.51693
0.046664
1.79929
0.0320847
2.13979
0.0157324
2.55065
-0.0030984
3.04912
-0.0215754
3.04848
-0.0372729
2.5491
-0.0512795
2.13795
-0.0637967
1.79757
-0.0754408
1.51524
-0.0874701
1.28182
-0.093862
1.07644
-0.082481
0.863166
-0.0381335
0.56312
0.16253
0.0193847
0.145013
0.0569059
0.528051
0.0721816
0.849703
0.0703441
1.07992
0.0620201
1.29173
0.0514741
1.52748
0.0402158
1.81055
0.0277112
2.15229
0.0129324
2.56542
-0.00433537
3.06639
-0.0213125
3.06545
-0.0353771
2.56316
-0.0470702
2.14964
-0.057163
1.80767
-0.0667991
1.52488
-0.0743466
1.28937
-0.0753294
1.07742
-0.0588455
0.846682
-0.0200072
0.524282
0.142522
0.0105347
0.134478
0.0422265
0.496359
0.0583869
0.833543
0.0588362
1.07947
0.053072
1.29749
0.0442451
1.53631
0.0342567
1.82054
0.0229554
2.16359
0.0100278
2.57835
-0.0052625
3.08168
-0.0202635
3.08045
-0.0324754
2.57537
-0.0426459
2.15981
-0.0517103
1.81673
-0.0596594
1.53283
-0.0642062
1.29392
-0.0624902
1.0757
-0.0447435
0.828935
-0.0113369
0.490875
0.131186
0.00661973
0.127858
0.0329453
0.470034
0.0492553
0.817233
0.0508046
1.07792
0.0459459
1.30235
0.0379945
1.54426
0.0287051
1.82982
0.018074
2.17422
0.00632236
2.5901
-0.00676245
3.09476
-0.0192658
3.09296
-0.0298619
2.58597
-0.0390531
2.16901
-0.0468183
1.8245
-0.053246
1.53925
-0.0567954
1.29747
-0.0539049
1.07281
-0.0357207
0.810751
-0.00747067
0.462625
0.123715
0.00451445
0.123344
0.025742
0.448806
0.0413156
0.801659
0.0434544
1.07578
0.0390387
1.30677
0.0319974
1.5513
0.0237119
1.83811
0.0142414
2.18369
0.00351196
2.60083
-0.00833379
3.10661
-0.0196326
3.10426
-0.0290361
2.59537
-0.0370797
2.17705
-0.0435241
1.83094
-0.0490167
1.54475
-0.0518402
1.30029
-0.0476452
1.06862
-0.0293938
0.7925
-0.00565226
0.438883
0.118063
0.00327367
0.12007
0.0202876
0.431792
0.034976
0.786971
0.0378762
1.07288
0.0338704
1.31077
0.0269888
1.55818
0.0191106
1.84599
0.0102297
2.19257
0.000354828
2.61071
-0.0106724
3.11764
-0.0209206
3.1145
-0.0289419
2.6034
-0.0355279
2.18364
-0.0413809
1.83679
-0.0461541
1.54952
-0.0478437
1.30198
-0.0423572
1.06313
-0.0245929
0.774736
-0.0046676
0.418958
0.113395
0.00252441
0.117546
0.0156738
0.418643
0.0287298
0.773915
0.0319782
1.06963
0.0286927
1.31406
0.0226261
1.56425
0.0155909
1.85302
0.00742919
2.20074
-0.0020939
2.62023
-0.0129254
3.12847
-0.0227761
3.12436
-0.0301937
2.61081
-0.0357709
2.18921
-0.0403532
1.84138
-0.0439487
1.55312
-0.0446172
1.30265
-0.0380841
1.0566
-0.0209645
0.757616
-0.0041726
0.402166
0.109222
0.00178531
0.11576
0.011337
0.409091
0.0226467
0.762605
0.0257852
1.06649
0.0228272
1.31702
0.0172506
1.56982
0.010544
1.85973
0.002804
2.20848
-0.00626065
2.6293
-0.0166003
3.13881
-0.0257394
3.13349
-0.0320054
2.61708
-0.0362578
2.19346
-0.0393511
1.84447
-0.0413871
1.55515
-0.0407656
1.30203
-0.033652
1.04949
-0.0177055
0.741669
-0.0038882
0.388349
0.105334
0.00086465
0.114896
0.00680621
0.40315
0.0153598
0.754051
0.017752
1.0641
0.015063
1.31971
0.0102014
1.57469
0.0040354
1.8659
-0.00315215
2.21566
-0.0112324
2.63738
-0.01976
3.14734
-0.0268445
3.14058
-0.0316219
2.62186
-0.0347993
2.19664
-0.037203
1.84687
-0.0383447
1.55629
-0.0370246
1.30071
-0.0293954
1.04186
-0.0145857
0.72686
-0.00347392
0.377237
0.10186
-0.00010396
0.115
0.00221997
0.400826
0.0085224
0.747749
0.0104306
1.06219
0.00767892
1.32246
0.00287541
1.57949
-0.00329954
1.87207
-0.0103786
2.22274
-0.0178029
2.6448
-0.0248663
3.1544
-0.0302293
3.14594
-0.033555
2.62518
-0.0356452
2.19873
-0.0363013
1.84753
-0.0357216
1.55571
-0.0330615
1.29805
-0.0248973
1.03369
-0.0116896
0.713652
-0.00291836
0.368466
0.0989419
-0.000986532
0.115986
-0.00120628
0.401046
0.00219514
0.744348
0.00287871
1.06151
9.70142e-05
1.32524
-0.00450978
1.5841
-0.010426
1.87799
-0.0171916
2.22951
-0.0242863
2.65189
-0.0308469
3.16096
-0.0352638
3.15036
-0.0371834
2.6271
-0.0373669
2.19892
-0.0364555
1.84662
-0.0347874
1.55405
-0.0311623
1.29442
-0.0225456
1.02508
-0.010297
0.701403
-0.00268825
0.360857
0.0962536
-0.00223321
0.118219
-0.004693
0.403505
-0.00461706
0.744272
-0.00461455
1.06151
-0.00791645
1.32854
-0.0130431
1.58922
-0.0190496
1.88399
-0.025627
2.23609
-0.0324511
2.65872
-0.0384774
3.16699
-0.0416405
3.15352
-0.0418666
2.62733
-0.0404959
2.19755
-0.038526
1.84465
-0.0352991
1.55082
-0.030084
1.2892
-0.0208474
1.01584
-0.00965908
0.690215
-0.00271435
0.353912
0.0935393
-0.00328845
0.121508
-0.00812295
0.40834
-0.011073
0.747222
-0.0137666
1.0642
-0.0176948
1.33247
-0.0229665
1.59449
-0.0291203
1.89015
-0.0356756
2.24264
-0.0420278
2.66507
-0.0470728
3.17203
-0.0487617
3.15521
-0.0471891
2.62575
-0.0440968
2.19445
-0.0405833
1.84114
-0.0362029
1.54644
-0.0303208
1.28332
-0.0208068
1.00632
-0.00992784
0.679336
-0.00288482
0.346869
0.0906545
-0.00399187
0.1255
-0.0112544
0.415602
-0.0168407
0.752808
-0.0211111
1.06847
-0.026512
1.33787
-0.0332399
1.60122
-0.0405173
1.89743
-0.0478536
2.24998
-0.0545107
2.67173
-0.0589182
3.17644
-0.058772
3.15506
-0.0553494
2.62233
-0.0507469
2.18985
-0.0456352
1.83602
-0.0396828
1.54049
-0.0321121
1.27575
-0.0216736
0.995886
-0.0107982
0.668461
-0.00325319
0.339324
0.0874013
-0.00510825
0.130608
-0.014729
0.425223
-0.0232845
0.761363
-0.0294478
1.07463
-0.0357504
1.34417
-0.0432924
1.60876
-0.0516161
1.90575
-0.0603273
2.25869
-0.0679805
2.67938
-0.0726483
3.18111
-0.0718475
3.15426
-0.067379
2.61786
-0.060619
2.18309
-0.053293
1.8287
-0.0456768
1.53287
-0.036934
1.26701
-0.025386
0.984338
-0.0131318
0.656207
-0.00396357
0.330156
0.0834377
-0.00627957
0.136887
-0.0179366
0.43688
-0.0290893
0.772516
-0.0376393
1.08318
-0.0458658
1.3524
-0.0552662
1.61817
-0.0656068
1.91609
-0.0761122
2.26919
-0.0853635
2.68863
-0.0907728
3.18652
-0.0891343
3.15263
-0.082942
2.61167
-0.0746976
2.17485
-0.0658416
1.81984
-0.0559921
1.52302
-0.0444366
1.25545
-0.0301934
0.970095
-0.0159246
0.641938
-0.0048908
0.319122
0.0785469
-0.0084953
0.145383
-0.0239181
0.452303
-0.0384393
0.787037
-0.0492127
1.09396
-0.0590049
1.36219
-0.0703544
1.62951
-0.0828354
1.92857
-0.0955587
2.28192
-0.106323
2.6994
-0.111717
3.19191
-0.109225
3.15013
-0.101684
2.60413
-0.0912302
2.16439
-0.0795922
1.8082
-0.0670484
1.51048
-0.0526946
1.2411
-0.0361084
0.953509
-0.0192948
0.625124
-0.00586268
0.30569
0.0726842
-0.0104908
0.155873
-0.0296606
0.471473
-0.0483908
0.805768
-0.0628123
1.10838
-0.0756928
1.37507
-0.0899037
1.64373
-0.105453
1.94412
-0.120664
2.29713
-0.132668
2.7114
-0.13795
3.19719
-0.134118
3.1463
-0.12401
2.59402
-0.111066
2.15145
-0.0967326
1.79387
-0.0811641
1.49491
-0.0630611
1.223
-0.0426236
0.933071
-0.022663
0.605164
-0.00683603
0.289863
0.0658482
-0.0150315
0.170905
-0.0409494
0.497391
-0.0649596
0.829778
-0.0831628
1.12658
-0.0990226
1.39093
-0.116673
1.66138
-0.135308
1.96275
-0.152663
2.31448
-0.1656
2.72434
-0.169899
3.20149
-0.163002
3.1394
-0.149879
2.5809
-0.133675
2.13524
-0.115353
1.77555
-0.0955614
1.47512
-0.0737862
1.20122
-0.0503849
0.90967
-0.0270349
0.581813
-0.00796362
0.270792
0.0578846
-0.0190004
0.189905
-0.0526928
0.531083
-0.0847412
0.861826
-0.109444
1.15129
-0.131432
1.41292
-0.153649
1.68359
-0.175151
1.98426
-0.193708
2.33304
-0.205719
2.73635
-0.206954
3.20273
-0.196634
3.12908
-0.179704
2.56397
-0.159504
2.11504
-0.137684
1.75373
-0.114402
1.45183
-0.0886109
1.17543
-0.06013
0.881189
-0.0316025
0.553286
-0.00903203
0.248221
0.0488526
-0.032945
0.22285
-0.0788305
0.576969
-0.119312
0.902308
-0.150414
1.18239
-0.177816
1.44032
-0.203765
1.70954
-0.227068
2.00756
-0.24523
2.3512
-0.255038
2.74616
-0.252437
3.20012
-0.236076
3.11272
-0.213226
2.54112
-0.188107
2.08993
-0.161409
1.72703
-0.133322
1.42375
-0.103135
1.14524
-0.0705259
0.84858
-0.037302
0.520062
-0.0103364
0.221256
0.0385162
-0.0471344
0.269985
-0.11627
0.646104
-0.17179
0.957828
-0.21034
1.22094
-0.243543
1.47353
-0.271733
1.73773
-0.29418
2.03001
-0.309009
2.36603
-0.312719
2.74987
-0.301618
3.18902
-0.277937
3.08904
-0.24999
2.51317
-0.220242
2.06018
-0.189865
1.69665
-0.158578
1.39246
-0.124011
1.11068
-0.0843511
0.808921
-0.041786
0.477497
-0.0102265
0.189696
0.0282897
-0.0324926
0.302477
-0.0905722
0.704184
-0.142056
1.00931
-0.185813
1.26469
-0.226803
1.51452
-0.262679
1.77361
-0.296761
2.06409
-0.326369
2.39564
-0.347538
2.77103
-0.354207
3.19569
-0.340935
3.07577
-0.312642
2.48488
-0.275657
2.02319
-0.232995
1.65399
-0.187029
1.34649
-0.137908
1.06155
-0.0845975
0.75561
-0.0360774
0.428977
-0.00788175
0.161501
0.0204079
-0.0106097
0.313087
-0.0408747
0.734449
-0.0786196
1.04706
-0.115224
1.3013
-0.150793
1.55009
-0.18468
1.8075
-0.215959
2.09537
-0.241787
2.42147
-0.258049
2.7873
-0.257745
3.19539
-0.236053
3.05408
-0.203316
2.45214
-0.16628
1.98616
-0.127796
1.61551
-0.0883486
1.30705
-0.0499357
1.02314
-0.0187492
0.724424
-0.00137559
0.411603
0.00166039
0.158465
0.0220683
0.00259231
0.310495
-0.0187204
0.755762
-0.046295
1.07463
-0.0752912
1.33029
-0.104693
1.57949
-0.133884
1.83669
-0.161232
2.12271
-0.183516
2.44375
-0.196534
2.80031
-0.194042
3.1929
-0.174525
3.03456
-0.145558
2.42317
-0.110221
1.95082
-0.0719959
1.57728
-0.0358718
1.27092
-0.00590455
0.993174
0.013212
0.705307
0.0151045
0.409711
0.00620103
0.167368
0.0282693
0.00271695
0.307778
-0.00831693
0.766795
-0.0287072
1.09502
-0.0527758
1.35436
-0.0774016
1.60411
-0.102137
1.86142
-0.125418
2.146
-0.144256
2.46259
-0.154525
2.81058
-0.150113
3.18848
-0.129693
3.01414
-0.0996762
2.39316
-0.0664802
1.91763
-0.0356167
1.54642
-0.00929816
1.2446
0.0107661
0.97311
0.0210653
0.695008
0.0182464
0.41253
0.00683026
0.178784
0.0350996
0.00502928
0.302749
-0.00269628
0.774521
-0.0203463
1.11267
-0.0404955
1.37451
-0.0614038
1.62502
-0.0827427
1.88276
-0.103001
2.16625
-0.119647
2.47924
-0.12895
2.81989
-0.125662
3.1852
-0.107505
2.99599
-0.0824717
2.36812
-0.0571267
1.89228
-0.0321074
1.5214
-0.00734362
1.21984
0.0120676
0.953699
0.0198701
0.687205
0.0154088
0.416991
0.00528991
0.188903
0.0403895
0.00585362
0.296895
0.000537736
0.779837
-0.0150222
1.12823
-0.033428
1.39292
-0.0523088
1.6439
-0.0713931
1.90185
-0.0896302
2.18449
-0.104776
2.49438
-0.112965
2.82808
-0.109156
3.18139
-0.0923817
2.97921
-0.0711357
2.34688
-0.0470016
1.86815
-0.0221343
1.49653
-0.00198117
1.19969
0.0113439
0.940374
0.0169325
0.681617
0.011974
0.42195
0.00383993
0.197037
0.0442294
0.00386237
0.293033
-6.46181e-05
0.783764
-0.0135791
1.14175
-0.0301742
1.40951
-0.0475174
1.66125
-0.0650679
1.9194
-0.0820324
2.20146
-0.09638
2.50873
-0.104937
2.83663
-0.103843
3.18029
-0.0906484
2.96602
-0.0698483
2.32608
-0.0473913
1.84569
-0.0282666
1.47741
-0.011002
1.18242
0.0025255
0.926846
0.0073836
0.676758
0.00642734
0.422906
0.0022996
0.201165
0.046529
0.00259204
0.290441
-0.000688987
0.787045
-0.0128487
1.15391
-0.0284258
1.42509
-0.045085
1.6779
-0.0618254
1.93614
-0.078039
2.21767
-0.0920807
2.52277
-0.100866
2.84542
-0.099147
3.17858
-0.0857083
2.95258
-0.0685361
2.30891
-0.051048
1.8282
-0.0326718
1.45903
-0.0174035
1.16715
-0.00642623
0.915869
-0.000840419
0.671173
-0.00114594
0.423211
-0.00034115
0.20036
0.0461879
-0.00022507
0.290666
-0.0037935
0.790613
-0.0143835
1.1645
-0.0286097
1.43932
-0.0442427
1.69354
-0.0603169
1.95221
-0.0762336
2.23359
-0.0905364
2.53707
-0.1004
2.85528
-0.102168
3.18034
-0.0924195
2.94283
-0.0748307
2.29132
-0.055535
1.80891
-0.0401428
1.44364
-0.0260951
1.15311
-0.016088
0.905862
-0.00966286
0.664748
-0.0051016
0.41865
-0.00156378
0.196822
0.0446241
-0.000614201
0.29128
-0.00545137
0.795451
-0.0157056
1.17475
-0.0288795
1.45249
-0.0440051
1.70866
-0.0598359
1.96804
-0.0758113
2.24956
-0.0905636
2.55183
-0.101495
2.86621
-0.103971
3.18282
-0.0937142
2.93257
-0.0790895
2.27669
-0.063702
1.79352
-0.0461962
1.42613
-0.0327643
1.13968
-0.0210911
0.894189
-0.0129704
0.656627
-0.00764645
0.413326
-0.00233216
0.191508
0.0422919
-0.0025809
0.293861
-0.00802637
0.800896
-0.0175916
1.18432
-0.0299585
1.46486
-0.0442816
1.72299
-0.0597587
1.98352
-0.0758164
2.26562
-0.0910785
2.56709
-0.10304
2.87817
-0.107451
3.18723
-0.1012
2.92632
-0.0866385
2.26213
-0.0692345
1.77611
-0.0546975
1.41159
-0.0405929
1.12557
-0.0293921
0.882988
-0.0195569
0.646792
-0.00965089
0.40342
-0.00297114
0.184828
0.0393208
-0.00389677
0.297757
-0.00935827
0.806357
-0.0187077
1.19367
-0.0307006
1.47685
-0.0445648
1.73685
-0.0597659
1.99872
-0.0759547
2.28181
-0.0918435
2.58298
-0.105412
2.89174
-0.113224
3.19504
-0.109084
2.92218
-0.0958203
2.24887
-0.0795343
1.75983
-0.0620017
1.39406
-0.0465675
1.11014
-0.0325271
0.868948
-0.0209203
0.635185
-0.0113507
0.393851
-0.0033661
0.176844
0.0359547
-0.00443873
0.302196
-0.0107944
0.812713
-0.0200078
1.20288
-0.0315144
1.48836
-0.0448412
1.75018
-0.0597354
2.01361
-0.0760479
2.29812
-0.0928113
2.59974
-0.10824
2.90717
-0.118541
3.20534
-0.116709
2.92035
-0.105414
2.23757
-0.086939
1.74135
-0.0690401
1.37616
-0.0525994
1.0937
-0.039454
0.855802
-0.0264274
0.622158
-0.0124985
0.379922
-0.00351698
0.167862
0.0324377
-0.00447418
0.30667
-0.0112492
0.819488
-0.0205348
1.21216
-0.0318429
1.49966
-0.0448816
1.76322
-0.0595371
2.02827
-0.0758835
2.31447
-0.0930764
2.61693
-0.109207
2.9233
-0.120964
3.2171
-0.1222
2.92159
-0.111551
2.22692
-0.096451
1.72625
-0.0765183
1.35623
-0.0583935
1.07557
-0.0410947
0.838503
-0.0257997
0.606863
-0.0131425
0.367265
-0.00344834
0.158168
0.0289894
-0.00453257
0.311203
-0.0118068
0.826762
-0.020958
1.22132
-0.0319374
1.51064
-0.0446562
1.77593
-0.0590935
2.04271
-0.0754467
2.33082
-0.0933519
2.63484
-0.111879
2.94183
-0.127849
3.23307
-0.132532
2.92627
-0.124117
2.21851
-0.104992
1.70713
-0.084299
1.33554
-0.0629405
1.05421
-0.0457101
0.821273
-0.0300746
0.591228
-0.0133524
0.350542
-0.00311588
0.147931
0.0258735
-0.00452271
0.315726
-0.0118013
0.834041
-0.0208239
1.23034
-0.0316245
1.52144
-0.0441299
1.78844
-0.0583498
2.05693
-0.0747139
2.34718
-0.0929101
2.65303
-0.111583
2.9605
-0.127331
3.24882
-0.134874
2.93381
-0.129939
2.21357
-0.116369
1.69356
-0.0932566
1.31242
-0.0686004
1.02956
-0.0435031
0.796176
-0.0234484
0.571173
-0.0107818
0.337876
-0.00230281
0.139452
0.0235707
-0.00456324
0.320289
-0.0119143
0.841392
-0.0206423
1.23907
-0.0310713
1.53187
-0.0432525
1.80062
-0.0572743
2.07095
-0.0735844
2.36349
-0.0920869
2.67154
-0.112502
2.98092
-0.133574
3.26989
-0.145729
2.94597
-0.141849
2.20969
-0.124388
1.6761
-0.101627
1.28966
-0.0721706
1.0001
-0.0454916
0.769497
-0.0220287
0.54771
-0.00663691
0.322484
-0.00234813
0.135164
0.0212226
-0.00447947
0.324768
-0.0116142
0.848527
-0.0200977
1.24755
-0.0302563
1.54203
-0.0421481
1.81251
-0.0558957
2.0847
-0.0720504
2.37965
-0.0907422
2.69023
-0.111409
3.00158
-0.131334
3.28981
-0.144104
2.95874
-0.147166
2.21275
-0.138414
1.66735
-0.113252
1.2645
-0.0798542
0.966702
-0.0377986
0.727441
0.0019964
0.507915
0.0230395
0.301441
0.02149
0.136713
0.0427126
-0.00436528
0.329134
-0.0114145
0.855576
-0.0195655
1.2557
-0.0292886
1.55175
-0.040747
1.82397
-0.0541809
2.09813
-0.0701727
2.39564
-0.0889142
2.70897
-0.110621
3.02329
-0.134755
3.31395
-0.153133
2.97712
-0.158359
2.21798
-0.146696
1.65568
-0.124331
1.24214
-0.0859958
0.928367
-0.040727
0.682172
0.0124737
0.454714
0.035521
0.278394
0.0156755
0.156559
0.0583881
-0.00413956
0.333273
-0.010901
0.862338
-0.0187656
1.26356
-0.0281384
1.56113
-0.0392493
1.83508
-0.052322
2.1112
-0.0680465
2.41136
-0.0868048
2.72773
-0.108709
3.0452
-0.132391
3.33763
-0.150706
2.99543
-0.160788
2.22806
-0.161499
1.65639
-0.141164
1.2218
-0.103912
0.891115
-0.0365824
0.614843
0.0654647
0.352667
0.164738
0.17912
0.173035
0.148262
0.231423
-0.00398717
0.33726
-0.0107078
0.869058
-0.0184503
1.27131
-0.0277216
1.5704
-0.0389208
1.84628
-0.0524011
2.12468
-0.0689978
2.42796
-0.0892459
2.74798
-0.113979
3.06993
-0.143931
3.36758
-0.171527
3.02303
-0.187367
2.2439
-0.185916
1.65494
-0.17153
1.20741
-0.133793
0.853378
-0.089976
0.571026
-0.114282
0.376973
-0.364232
0.42907
-0.927278
0.711309
0.894068
-1.58992
-0.00377226
0.341033
-0.0102057
0.875492
-0.0177508
1.27885
-0.026868
1.57952
-0.0379495
1.85736
-0.0514708
2.1382
-0.0683806
2.44487
-0.0895279
2.76912
-0.115984
3.09638
-0.147624
3.39922
-0.176884
3.05229
-0.199334
2.26635
-0.220468
1.67608
-0.223147
1.21009
-0.216509
0.84674
-0.295269
0.649786
-0.688796
0.7705
-1.41124
1.15151
-2.02513
1.3252
1.21993
-2.35099
-0.00357822
0.344611
-0.00978745
0.881701
-0.0170549
1.28612
-0.0259001
1.58836
-0.0367819
1.86824
-0.0503255
2.15175
-0.0675648
2.46211
-0.0894954
2.79105
-0.117664
3.12455
-0.154352
3.43591
-0.193737
3.09167
-0.225997
2.29861
-0.245755
1.69583
-0.253813
1.21815
-0.341873
0.9348
-0.746848
1.05476
-1.51024
1.5339
-2.09179
1.73306
-2.33575
1.56916
1.33626
-2.45208
-0.00333351
0.347944
-0.009151
0.887518
-0.0161454
1.29311
-0.0247771
1.59699
-0.0354806
1.87895
-0.048992
2.16526
-0.0664203
2.47954
-0.0890587
2.81369
-0.118886
3.15438
-0.157945
3.47497
-0.199076
3.13281
-0.236418
2.33595
-0.280021
1.73944
-0.372707
1.31084
-0.697593
1.25969
-1.41405
1.77122
-2.01228
2.13212
-2.25594
1.97673
-2.37147
1.68469
1.40265
-2.43787
-0.00308221
0.351027
-0.00856074
0.892997
-0.0152006
1.29975
-0.0235007
1.60529
-0.0340147
1.88946
-0.0474689
2.17871
-0.0650797
2.49715
-0.0883162
2.83693
-0.119574
3.18564
-0.162964
3.51836
-0.215286
3.18513
-0.268203
2.38887
-0.318375
1.78961
-0.492336
1.4848
-1.074
1.84135
-1.76509
2.46231
-2.09762
2.46465
-2.25033
2.12943
-2.3344
1.76876
1.4689
-2.40065
-0.00295971
0.353986
-0.00826171
0.898299
-0.0148834
1.30638
-0.0232469
1.61366
-0.0339983
1.90021
-0.047674
2.19239
-0.0657002
2.51518
-0.0897747
2.861
-0.122773
3.21863
-0.169056
3.56464
-0.223612
3.23968
-0.276441
2.4417
-0.374524
1.88769
-0.749772
1.86005
-1.4692
2.56078
-1.95499
2.9481
-2.15853
2.66819
-2.26672
2.23763
-2.3443
1.84634
1.53377
-2.40916
-0.00300704
0.356993
-0.00859686
0.903889
-0.0155324
1.31331
-0.0242652
1.62239
-0.0354819
1.91143
-0.0497788
2.20669
-0.0686389
2.53404
-0.0938604
2.88623
-0.128564
3.25334
-0.178549
3.61463
-0.241172
3.30231
-0.31352
2.51405
-0.498921
2.07309
-1.02844
2.38957
-1.65823
3.19057
-1.94584
3.23571
-2.096
2.81835
-2.21223
2.35386
-2.30689
1.94099
1.59715
-2.37027
-0.00298617
0.35998
-0.00874245
0.909645
-0.0161033
1.32067
-0.0253519
1.63164
-0.037082
1.92316
-0.0519885
2.22159
-0.0716254
2.55367
-0.0980156
2.91262
-0.134595
3.28992
-0.187732
3.66777
-0.253169
3.36774
-0.342292
2.60317
-0.615565
2.34637
-1.24102
3.01502
-1.74155
3.69111
-1.95283
3.44699
-2.09742
2.96294
-2.22481
2.48125
-2.33937
2.05555
1.65762
-2.39984
-0.00290366
0.362883
-0.00900574
0.915747
-0.0167489
1.32842
-0.0264301
1.64132
-0.0386616
1.93539
-0.0542475
2.23718
-0.0747701
2.5742
-0.1023
2.94015
-0.140528
3.32814
-0.196025
3.72326
-0.267776
3.43949
-0.39356
2.72895
-0.762342
2.71515
-1.38644
3.63912
-1.75334
4.05801
-1.93173
3.62538
-2.03919
3.07039
-2.13316
2.57522
-2.2048
2.1272
1.65196
-2.19914
-0.00276861
0.365652
-0.00894379
0.921922
-0.0171753
1.33665
-0.0274536
1.6516
-0.040276
1.94821
-0.0564936
2.2534
-0.0777836
2.59549
-0.106477
2.96884
-0.146345
3.36801
-0.204526
3.78144
-0.285793
3.52076
-0.451051
2.89421
-0.886616
3.15071
-1.44234
4.19485
-1.71333
4.32899
-1.87421
3.78626
-1.97259
3.16877
-1.97926
2.58188
-1.91827
2.06622
1.62948
-1.8958
-0.00244685
0.368099
-0.00899247
0.928468
-0.0175377
1.34519
-0.0281607
1.66222
-0.0413732
1.96143
-0.0580092
2.27003
-0.0797019
2.61718
-0.10861
2.99775
-0.148747
3.40815
-0.205316
3.83801
-0.290489
3.60593
-0.487594
3.09132
-0.957073
3.62019
-1.40709
4.64486
-1.58542
4.50732
-1.65961
3.86045
-1.66896
3.17812
-1.5266
2.43952
-1.03104
1.57066
0.598438
-0.00201162
0.37011
-0.00848964
0.934946
-0.0175654
1.35427
-0.0289743
1.67363
-0.0431449
1.9756
-0.0609318
2.28782
-0.0842229
2.64047
-0.115638
3.02916
-0.159273
3.45178
-0.22306
3.9018
-0.326391
3.70926
-0.571413
3.33634
-1.09318
4.14196
-1.46442
5.01609
-1.56645
4.60935
-1.5719
3.8659
-1.47531
3.08153
-1.23835
2.20255
-0.649344
0.981661
-0.0509055
-0.00155619
0.371666
-0.00797275
0.941363
-0.0172879
1.36358
-0.0292289
1.68557
-0.0442284
1.9906
-0.0632731
2.30686
-0.0883509
2.66555
-0.122088
3.0629
-0.169924
3.49962
-0.238724
3.9706
-0.356306
3.82685
-0.652039
3.63207
-1.19793
4.68785
-1.48093
5.29909
-1.55115
4.67958
-1.53524
3.84999
-1.33503
2.88133
-0.803367
1.67089
-0.119585
0.297878
-0.17049
-0.000782189
0.372449
-0.00665383
0.947234
-0.0163839
1.37331
-0.0291213
1.69831
-0.0449415
2.00642
-0.065008
2.32693
-0.0915306
2.69207
-0.12771
3.09908
-0.178478
3.55039
-0.254638
4.04676
-0.39721
3.96942
-0.749285
3.98415
-1.28311
5.22168
-1.47364
5.48962
-1.50357
4.70951
-1.42102
3.76744
-1.1186
2.57891
-0.335255
0.887536
0.0325974
-0.0699736
-0.137893
0.000104232
0.372344
-0.00492312
0.952262
-0.0146511
1.38304
-0.0278126
1.71147
-0.0442606
2.02287
-0.0654772
2.34815
-0.0936368
2.72023
-0.131692
3.13713
-0.185269
3.60396
-0.269433
4.13092
-0.433003
4.13299
-0.834914
4.38606
-1.31296
5.69972
-1.4393
5.61597
-1.45044
4.72065
-1.25301
3.57001
-0.722318
2.04822
-0.0702692
0.235487
0.0359375
-0.17618
-0.101955
0.00199917
0.370345
-0.00153961
0.9558
-0.0119075
1.39341
-0.0258688
1.72543
-0.0427752
2.03977
-0.0647004
2.37007
-0.0938628
2.74939
-0.133579
3.17685
-0.188949
3.65933
-0.279246
4.22122
-0.468256
4.322
-0.922441
4.84024
-1.31731
6.09459
-1.39194
5.6906
-1.35708
4.68579
-1.07549
3.28842
-0.361083
1.33381
-0.0167995
-0.108796
0.00765045
-0.20063
-0.0943049
0.00372465
0.366621
0.00167029
0.957855
-0.00808631
1.40317
-0.0216209
1.73897
-0.0387388
2.05689
-0.061526
2.39286
-0.0916659
2.77953
-0.132387
3.21757
-0.190053
3.717
-0.288376
4.31954
-0.495729
4.52935
-0.969014
5.31353
-1.26145
6.38703
-1.30154
5.73068
-1.19679
4.58104
-0.827978
2.9196
-0.113377
0.619211
0.0342881
-0.256461
0.0196491
-0.185991
-0.0746558
0.00595613
0.360664
0.00555215
0.958259
-0.00281708
1.41154
-0.0161903
1.75234
-0.033337
2.07404
-0.0561142
2.41564
-0.086381
2.8098
-0.127461
3.25865
-0.185255
3.7748
-0.286076
4.42037
-0.510177
4.75345
-0.982142
5.78549
-1.19441
6.5993
-1.21519
5.75146
-1.0341
4.39996
-0.517051
2.40255
-0.00347786
0.105638
0.0198949
-0.279834
0.0176709
-0.183767
-0.0569849
0.00875814
0.351906
0.0113223
0.955694
0.00526938
1.41759
-0.00656911
1.76418
-0.0239514
2.09142
-0.0468126
2.4385
-0.0765098
2.8395
-0.11698
3.29912
-0.174809
3.83262
-0.281344
4.5269
-0.517638
4.98974
-0.94742
6.21528
-1.08653
6.73841
-1.07378
5.7387
-0.839864
4.16605
-0.302957
1.86564
-0.0503564
-0.146962
-0.0275819
-0.302608
-0.0038958
-0.207453
-0.0608807
0.0128098
0.339097
0.0194032
0.949101
0.0152387
1.42175
0.00459134
1.77482
-0.0123125
2.10832
-0.0333648
2.45955
-0.0615604
2.86769
-0.0998728
3.33743
-0.15469
3.88744
-0.258828
4.63104
-0.488161
5.21908
-0.861269
6.58838
-0.958996
6.83614
-0.946294
5.726
-0.70417
3.92393
-0.154795
1.31627
-0.0495638
-0.252193
-0.0256006
-0.326572
-0.00126561
-0.231788
-0.0621464
0.0178431
0.321253
0.0300005
0.936944
0.0296487
1.4221
0.0206564
1.78382
0.00585175
2.12313
-0.0130509
2.47845
-0.0389821
2.89362
-0.0744469
3.3729
-0.124808
3.9378
-0.223174
4.7294
-0.438199
5.4341
-0.720314
6.8705
-0.788399
6.90422
-0.728384
5.66598
-0.434244
3.62978
0.0269979
0.855027
0.0171653
-0.242361
0.0144949
-0.323901
0.0321064
-0.2494
-0.03004
0.0241846
0.297069
0.0433242
0.917804
0.0470989
1.41833
0.0409424
1.78997
0.0297698
2.1343
0.0133909
2.49483
-0.00889357
2.91591
-0.0387161
3.40272
-0.0814758
3.98056
-0.163704
4.81163
-0.339123
5.60952
-0.527004
7.05838
-0.606978
6.9842
-0.607884
5.66689
-0.402712
3.42461
-0.155371
0.607685
-0.185011
-0.21272
-0.100709
-0.408204
-0.00750058
-0.342608
-0.0375405
0.0316423
0.265427
0.0604315
0.889015
0.0716746
1.40709
0.0701849
1.79146
0.0622299
2.14225
0.0496099
2.50745
0.0324863
2.93303
0.00988467
3.42532
-0.0241859
4.01463
-0.0747117
4.86216
-0.187554
5.72236
-0.299224
7.17005
-0.38232
7.06729
-0.485593
5.77016
-0.527603
3.46662
-0.638666
0.718749
-0.659702
-0.191684
-0.464824
-0.603082
-0.230794
-0.576637
-0.268335
0.0401575
0.225269
0.0806256
0.848547
0.0999193
1.38779
0.104295
1.78709
0.101808
2.14474
0.0941306
2.51513
0.0849392
2.94222
0.0718001
3.43846
0.0551281
4.03131
0.0387352
4.87855
0.035973
5.72513
0.0244447
7.18158
-0.0221796
7.11392
-0.13096
5.87894
-0.368937
3.7046
-0.741196
1.09101
-0.794024
-0.138856
-0.616608
-0.780499
-0.344509
-0.848736
-0.612844
0.0484386
0.17683
0.105057
0.791928
0.137533
1.35532
0.149627
1.77499
0.153318
2.14105
0.151273
2.51717
0.150042
2.94345
0.150325
3.43818
0.159371
4.02226
0.179469
4.85845
0.289529
5.61507
0.461932
7.00918
0.572516
7.00333
0.676847
5.77461
0.477777
3.90367
-0.0390171
1.6078
-0.395179
0.217306
-0.517532
-0.658146
-0.290333
-1.07593
-0.903177
0.053009
0.123821
0.129425
0.715513
0.177976
1.30676
0.200995
1.75197
0.213323
2.12872
0.219135
2.51136
0.228283
2.93431
0.242997
3.42346
0.27655
3.98871
0.349762
4.78524
0.586043
5.37878
1.07665
6.51857
1.48189
6.59809
1.88044
5.37606
1.85224
3.93187
1.2848
2.17524
0.762047
0.740063
0.282946
-0.179045
0.0656753
-0.858664
-0.837502
0.0488844
0.0749371
0.154142
0.610255
0.22811
1.2328
0.265469
1.71461
0.286752
2.10744
0.300304
2.49781
0.319473
2.91514
0.347504
3.39543
0.407139
3.92907
0.538602
4.65378
0.871818
5.04557
1.57009
5.8203
2.0015
6.16668
2.28154
5.09602
2.30621
3.9072
1.90846
2.57298
1.41403
1.2345
0.939492
0.295492
0.37689
-0.296061
-0.460612
0.0377391
0.0371979
0.175267
0.472727
0.278257
1.12981
0.335468
1.6574
0.368245
2.07466
0.392862
2.47319
0.419702
2.8883
0.460152
3.35498
0.529063
3.86016
0.67909
4.50375
1.02009
4.70457
1.73563
5.10476
2.12634
5.77596
2.35169
4.87067
2.38792
3.87098
2.10654
2.85436
1.56828
1.77275
0.984359
0.879415
0.413278
0.27502
-0.0473343
0.0287446
0.00845329
0.198292
0.30318
0.337579
0.99052
0.418569
1.57641
0.462196
2.03104
0.496147
2.43924
0.5252
2.85924
0.569112
3.31107
0.629483
3.79979
0.751506
4.38173
0.97874
4.47734
1.54927
4.53422
1.93842
5.38681
2.04945
4.75965
2.01889
3.90153
1.804
3.06926
1.36962
2.20713
0.872185
1.37685
0.377419
0.769785
0.330085
0.0300777
-0.0216245
0.194965
0.138292
0.394695
0.790789
0.507364
1.46375
0.564857
1.97354
0.60806
2.39604
0.638855
2.82845
0.673029
3.2769
0.706357
3.76646
0.780103
4.30798
0.897279
4.36016
1.24752
4.18398
1.65474
4.97959
1.69618
4.71821
1.60909
3.98862
1.41655
3.2618
1.08303
2.54065
0.661864
1.79802
0.2652
1.16645
0.595285
0.0343015
-0.0559259
0.138676
0.0339184
0.348492
0.580973
0.486748
1.32549
0.549635
1.91066
0.576685
2.36899
0.586555
2.81858
0.585467
3.27799
0.576032
3.77589
0.568252
4.31576
0.577653
4.35076
0.703601
4.05803
0.903521
4.77967
0.904274
4.71746
0.817516
4.07537
0.701021
3.3783
0.537894
2.70378
0.32682
2.00909
0.123571
1.3697
0.718856
0.0222745
-0.0782004
0.0595574
-0.00336452
0.176963
0.463568
0.29158
1.21087
0.364609
1.83763
0.404703
2.32889
0.428051
2.79523
0.441657
3.26438
0.443174
3.77438
0.433303
4.32563
0.419532
4.36453
0.476343
4.00122
0.619226
4.63679
0.625555
4.71113
0.557729
4.1432
0.462706
3.47332
0.342554
2.82393
0.194352
2.15729
0.0606324
1.50342
0.779488
0.0100638
-0.0882642
0.00692918
-0.000229915
0.0453342
0.425163
0.11806
1.13815
0.184744
1.77094
0.236732
2.27691
0.277355
2.75461
0.306648
3.23509
0.318023
3.763
0.315208
4.32845
0.297729
4.38201
0.3157
3.98325
0.407166
4.54532
0.411786
4.70651
0.357367
4.19762
0.275463
3.55522
0.182793
2.9166
0.0867602
2.25333
0.00569841
1.58448
0.785187
-0.00921405
-0.0790501
-0.0413236
0.0318797
-0.0548122
0.438651
-0.0186441
1.10198
0.038442
1.71386
0.0959741
2.21937
0.148614
2.70197
0.186113
3.19759
0.210438
3.73868
0.219686
4.3192
0.204913
4.39678
0.208485
3.97968
0.254729
4.49908
0.246118
4.71512
0.199985
4.24375
0.141048
3.61416
0.0794797
2.97817
0.0207288
2.31208
-0.0214015
1.62661
0.763785
-0.0271688
-0.0518813
-0.0805202
0.0852311
-0.120076
0.478207
-0.113022
1.09493
-0.0642701
1.66511
-0.00440044
2.1595
0.0515879
2.64598
0.0956328
3.15354
0.130862
3.70345
0.145355
4.30471
0.128895
4.41324
0.128913
3.97966
0.144598
4.48339
0.121229
4.73849
0.0793238
4.28566
0.0364275
3.65705
-0.00445002
3.01905
-0.0458142
2.35344
-0.0519069
1.6327
0.711878
-0.0372608
-0.0146206
-0.102246
0.150216
-0.154091