/*--------------------------------*- C++ -*----------------------------------*\
  =========                 |
  \\      /  F ield         | OpenFOAM: The Open Source CFD Toolbox
   \\    /   O peration     | Website:  https://openfoam.org
    \\  /    A nd           | Version:  9
     \\/     M anipulation  |
\*---------------------------------------------------------------------------*/
FoamFile
{
    format      ascii;
    class       volVectorField;
    location    "30";
    object      U;
}
// * * * * * * * * * * * * * * * * * * * * * * * * * * * * * * * * * * * * * //

dimensions      [0 1 -1 0 0 0 0];

internalField   nonuniform List<vector> 
2200
(
(0.878851 -0.0304148 0)
(1.00579 -0.0512856 0)
(1.00329 -0.0354043 0)
(1.00025 -0.0244589 0)
(0.999858 -0.0166756 0)
(0.999983 -0.0107294 0)
(0.999984 -0.00690192 0)
(1.00003 -0.00425743 0)
(1.00009 -0.00224008 0)
(1.00016 -0.000678453 0)
(1.00009 0.000855412 0)
(1.00008 0.00246879 0)
(1.00004 0.00445597 0)
(0.999913 0.00708438 0)
(0.999976 0.0108215 0)
(0.999868 0.0166993 0)
(1.00025 0.0244935 0)
(1.00348 0.0351539 0)
(1.00591 0.0513467 0)
(0.878979 0.0303689 0)
(0.711964 -0.0327668 0)
(0.996611 -0.0630306 0)
(1.03325 -0.0561874 0)
(1.02489 -0.0464786 0)
(1.01594 -0.0362432 0)
(1.00964 -0.0265692 0)
(1.00588 -0.0182496 0)
(1.00374 -0.0115077 0)
(1.0025 -0.00618597 0)
(1.00198 -0.00166373 0)
(1.00195 0.0025698 0)
(1.00248 0.00698599 0)
(1.00367 0.0121706 0)
(1.00584 0.0188062 0)
(1.00955 0.0272224 0)
(1.01579 0.0368457 0)
(1.02474 0.0470818 0)
(1.03297 0.0572531 0)
(0.996578 0.0631607 0)
(0.711704 0.0329416 0)
(0.535499 -0.0238939 0)
(0.969851 -0.0569256 0)
(1.05637 -0.0547296 0)
(1.05205 -0.0486975 0)
(1.03598 -0.040361 0)
(1.02442 -0.0322477 0)
(1.016 -0.0239576 0)
(1.01048 -0.0161197 0)
(1.00723 -0.00894517 0)
(1.0057 -0.00246655 0)
(1.00559 0.0037992 0)
(1.00704 0.0102472 0)
(1.01025 0.0173779 0)
(1.01579 0.0250833 0)
(1.0241 0.0330168 0)
(1.03574 0.0410057 0)
(1.05183 0.0491317 0)
(1.0563 0.054021 0)
(0.969253 0.0574144 0)
(0.53457 0.0239006 0)
(0.392276 -0.0136364 0)
(0.911797 -0.0464105 0)
(1.05743 -0.046877 0)
(1.06961 -0.0443433 0)
(1.05482 -0.0380665 0)
(1.03919 -0.0312898 0)
(1.02751 -0.024709 0)
(1.01903 -0.0176481 0)
(1.01375 -0.010253 0)
(1.01119 -0.00273285 0)
(1.01114 0.00484887 0)
(1.0136 0.0122449 0)
(1.0187 0.0193569 0)
(1.02684 0.0260648 0)
(1.03849 0.0324355 0)
(1.05421 0.0390948 0)
(1.06881 0.0453192 0)
(1.05602 0.0477929 0)
(0.910341 0.0468134 0)
(0.390589 0.0137078 0)
(0.307603 -0.00452255 0)
(0.846436 -0.0323962 0)
(1.04927 -0.0400464 0)
(1.07951 -0.0383766 0)
(1.06834 -0.0337315 0)
(1.05168 -0.0280521 0)
(1.03806 -0.0226063 0)
(1.02781 -0.0166658 0)
(1.02081 -0.00998239 0)
(1.01712 -0.00259964 0)
(1.01692 0.00523614 0)
(1.02024 0.012359 0)
(1.02696 0.018757 0)
(1.03727 0.0245134 0)
(1.05072 0.0297669 0)
(1.06711 0.0351503 0)
(1.07798 0.0395785 0)
(1.04746 0.0411795 0)
(0.843718 0.0327833 0)
(0.304895 0.00467415 0)
(0.264306 0.000115263 0)
(0.789025 -0.0200019 0)
(1.03316 -0.0312811 0)
(1.0834 -0.0318875 0)
(1.07731 -0.0288089 0)
(1.06087 -0.024132 0)
(1.04708 -0.019626 0)
(1.03613 -0.0145583 0)
(1.02828 -0.00857659 0)
(1.02394 -0.00175185 0)
(1.02365 0.0054564 0)
(1.02752 0.0120666 0)
(1.03506 0.0176704 0)
(1.04565 0.0224223 0)
(1.05922 0.0263425 0)
(1.07562 0.0306727 0)
(1.08141 0.0333794 0)
(1.0305 0.0325533 0)
(0.784761 0.0204543 0)
(0.26059 3.28952e-05 0)
(0.240447 0.0010839 0)
(0.738519 -0.0122236 0)
(1.01366 -0.0249514 0)
(1.08346 -0.0267467 0)
(1.08236 -0.0245904 0)
(1.06738 -0.0206657 0)
(1.05406 -0.016867 0)
(1.04332 -0.0124078 0)
(1.03533 -0.00712188 0)
(1.0307 -0.000952593 0)
(1.03034 0.00546653 0)
(1.03428 0.0113659 0)
(1.04177 0.0163191 0)
(1.05202 0.0201996 0)
(1.06525 0.0237883 0)
(1.07986 0.0272156 0)
(1.08025 0.0287761 0)
(1.00889 0.0265079 0)
(0.731746 0.012844 0)
(0.235432 -0.00091373 0)
(0.226074 0.000919805 0)
(0.695311 -0.00802495 0)
(0.99251 -0.0207766 0)
(1.08151 -0.0231366 0)
(1.08605 -0.0213342 0)
(1.07255 -0.0179191 0)
(1.05931 -0.0142864 0)
(1.04888 -0.0100805 0)
(1.04092 -0.00526888 0)
(1.03602 0.000155504 0)
(1.03546 0.00565167 0)
(1.03937 0.0107106 0)
(1.04655 0.0148368 0)
(1.05675 0.0184635 0)
(1.06961 0.0214365 0)
(1.08245 0.0241793 0)
(1.07721 0.0254696 0)
(0.986295 0.0225049 0)
(0.686349 0.00872036 0)
(0.219765 -0.000761127 0)
(0.216739 0.00063942 0)
(0.6609 -0.00546294 0)
(0.972873 -0.0171714 0)
(1.07911 -0.0197773 0)
(1.08934 -0.0182134 0)
(1.07718 -0.0152502 0)
(1.06389 -0.011929 0)
(1.05352 -0.00811635 0)
(1.04568 -0.00377316 0)
(1.04073 0.00107347 0)
(1.04003 0.00607469 0)
(1.04371 0.0105039 0)
(1.05059 0.0142115 0)
(1.06009 0.0173567 0)
(1.07294 0.0198422 0)
(1.08451 0.0222597 0)
(1.07279 0.0230731 0)
(0.963125 0.019417 0)
(0.648175 0.00640543 0)
(0.208548 -0.000436431 0)
(0.209983 0.000380534 0)
(0.632981 -0.00381119 0)
(0.95345 -0.0142153 0)
(1.07543 -0.0171387 0)
(1.09205 -0.0159623 0)
(1.08123 -0.0132156 0)
(1.0678 -0.00987914 0)
(1.05738 -0.00620092 0)
(1.04965 -0.00216994 0)
(1.04482 0.00225595 0)
(1.04389 0.0068831 0)
(1.04705 0.0106865 0)
(1.0536 0.0138656 0)
(1.06297 0.0164325 0)
(1.0759 0.019067 0)
(1.08562 0.020831 0)
(1.06713 0.0209523 0)
(0.941013 0.0168443 0)
(0.616925 0.00495857 0)
(0.199797 -0.000132216 0)
(0.205073 0.000144209 0)
(0.611471 -0.00264053 0)
(0.936933 -0.0114331 0)
(1.07232 -0.0144148 0)
(1.09477 -0.0135723 0)
(1.08522 -0.0112233 0)
(1.07144 -0.00826587 0)
(1.06064 -0.00493967 0)
(1.05278 -0.00103458 0)
(1.04797 0.00330188 0)
(1.04666 0.00774203 0)
(1.04924 0.0113761 0)
(1.05536 0.0142221 0)
(1.06526 0.0165309 0)
(1.07827 0.0183412 0)
(1.08627 0.0196308 0)
(1.06077 0.0193232 0)
(0.919661 0.0147309 0)
(0.590298 0.00402351 0)
(0.192112 0.000164367 0)
(0.201409 1.19632e-05 0)
(0.595435 -0.00160584 0)
(0.922426 -0.0087886 0)
(1.06918 -0.0116636 0)
(1.09765 -0.0109539 0)
(1.08949 -0.00878692 0)
(1.07527 -0.00600922 0)
(1.06382 -0.00289442 0)
(1.05532 0.000770314 0)
(1.04995 0.00502425 0)
(1.04827 0.00917448 0)
(1.05078 0.0125699 0)
(1.05712 0.0148299 0)
(1.06696 0.0164361 0)
(1.08007 0.017526 0)
(1.08632 0.0182796 0)
(1.05394 0.017444 0)
(0.900013 0.0126611 0)
(0.568673 0.00334581 0)
(0.185307 0.00038218 0)
(0.199115 -5.13897e-05 0)
(0.584249 -0.000645365 0)
(0.91036 -0.00583582 0)
(1.06677 -0.00811938 0)
(1.10032 -0.00748924 0)
(1.09354 -0.00554389 0)
(1.07954 -0.00303702 0)
(1.06798 -0.000172163 0)
(1.05901 0.00309389 0)
(1.05295 0.00681113 0)
(1.05091 0.0101244 0)
(1.05342 0.0127285 0)
(1.05973 0.014453 0)
(1.06955 0.0154294 0)
(1.08205 0.0165685 0)
(1.08618 0.0167646 0)
(1.04743 0.0156646 0)
(0.881984 0.0106389 0)
(0.550956 0.00274709 0)
(0.17898 0.000450911 0)
(0.19867 -0.00015594 0)
(0.578465 0.000346962 0)
(0.90217 -0.00271099 0)
(1.06468 -0.00504815 0)
(1.10291 -0.00424308 0)
(1.0974 -0.00233746 0)
(1.08393 0.000114095 0)
(1.07263 0.00301434 0)
(1.0637 0.00612258 0)
(1.05729 0.00935652 0)
(1.05466 0.0119593 0)
(1.0563 0.0138452 0)
(1.06176 0.0148756 0)
(1.07061 0.0157815 0)
(1.08212 0.0156315 0)
(1.08432 0.0153971 0)
(1.03891 0.0135857 0)
(0.86477 0.0085998 0)
(0.536989 0.00223499 0)
(0.173608 0.000440044 0)
(0.199561 -3.12155e-05 0)
(0.57771 0.00117354 0)
(0.895509 -0.00041439 0)
(1.06367 -0.00169478 0)
(1.10528 -0.000863238 0)
(1.10066 0.000927681 0)
(1.08746 0.00319838 0)
(1.07615 0.00601824 0)
(1.06708 0.00904765 0)
(1.06025 0.0120278 0)
(1.05686 0.0143795 0)
(1.05762 0.0157354 0)
(1.06227 0.0161679 0)
(1.07039 0.0161667 0)
(1.0813 0.0154211 0)
(1.0818 0.0146741 0)
(1.03102 0.0126049 0)
(0.850042 0.00743306 0)
(0.525481 0.00209406 0)
(0.1688 0.000450332 0)
(0.202171 0.000461965 0)
(0.579226 0.00173957 0)
(0.893707 0.00249665 0)
(1.06277 0.00125977 0)
(1.10752 0.00253735 0)
(1.1036 0.00448994 0)
(1.09019 0.00690996 0)
(1.07832 0.00964172 0)
(1.06862 0.012637 0)
(1.06118 0.0154306 0)
(1.05717 0.0174835 0)
(1.05731 0.0181635 0)
(1.06149 0.0179657 0)
(1.06963 0.017192 0)
(1.07962 0.0160294 0)
(1.0777 0.0145672 0)
(1.02112 0.0117807 0)
(0.835067 0.00662352 0)
(0.514882 0.00214855 0)
(0.164167 0.000469433 0)
(0.207472 0.000622545 0)
(0.584864 0.00266744 0)
(0.895574 0.00434995 0)
(1.06422 0.00505875 0)
(1.11034 0.0066547 0)
(1.10708 0.00870706 0)
(1.09349 0.0112103 0)
(1.08103 0.0139961 0)
(1.07044 0.0168511 0)
(1.06175 0.0193346 0)
(1.05646 0.0209303 0)
(1.05579 0.0209084 0)
(1.05964 0.0199039 0)
(1.06746 0.0183225 0)
(1.07647 0.0166526 0)
(1.07324 0.0147368 0)
(1.0128 0.0116653 0)
(0.823304 0.00658227 0)
(0.505518 0.00235049 0)
(0.159497 0.000480337 0)
(0.213116 0.000651133 0)
(0.592817 0.00338073 0)
(0.900166 0.00639705 0)
(1.06747 0.00793787 0)
(1.11439 0.0101789 0)
(1.1115 0.012869 0)
(1.0978 0.0159756 0)
(1.08501 0.0191088 0)
(1.07382 0.0221995 0)
(1.0642 0.0246564 0)
(1.0578 0.0257275 0)
(1.05558 0.024809 0)
(1.05805 0.0230112 0)
(1.06488 0.0208859 0)
(1.0728 0.0185876 0)
(1.06713 0.015826 0)
(1.00146 0.0120266 0)
(0.808535 0.00691241 0)
(0.494361 0.00271615 0)
(0.154084 0.000522144 0)
(0.221684 0.000839492 0)
(0.606699 0.00427096 0)
(0.909991 0.00865497 0)
(1.07319 0.0113405 0)
(1.11947 0.0138869 0)
(1.11689 0.0170864 0)
(1.10286 0.0204231 0)
(1.08948 0.0242441 0)
(1.07738 0.02783 0)
(1.06631 0.030614 0)
(1.05771 0.0314931 0)
(1.05393 0.0303328 0)
(1.05552 0.0278563 0)
(1.06153 0.0246777 0)
(1.06837 0.0214833 0)
(1.06093 0.0180924 0)
(0.992155 0.0137919 0)
(0.797243 0.00833885 0)
(0.483683 0.00336821 0)
(0.148178 0.000608225 0)
(0.230775 0.00113655 0)
(0.620588 0.00510562 0)
(0.921184 0.0106482 0)
(1.08083 0.0143815 0)
(1.12612 0.0179604 0)
(1.12295 0.0217248 0)
(1.10805 0.0260952 0)
(1.09371 0.0306514 0)
(1.08028 0.0349649 0)
(1.06778 0.0384277 0)
(1.05774 0.0392514 0)
(1.05248 0.037505 0)
(1.05199 0.0342092 0)
(1.05678 0.0304708 0)
(1.0622 0.0265618 0)
(1.05204 0.0219848 0)
(0.977623 0.0163967 0)
(0.778481 0.00997452 0)
(0.467546 0.0041594 0)
(0.140121 0.000749413 0)
(0.244093 0.00149405 0)
(0.641184 0.00695156 0)
(0.937319 0.0140002 0)
(1.09036 0.0191304 0)
(1.13306 0.0230878 0)
(1.12987 0.0279048 0)
(1.1144 0.0329854 0)
(1.09888 0.0385348 0)
(1.08365 0.0437648 0)
(1.06865 0.0476157 0)
(1.0556 0.0481191 0)
(1.04825 0.0459439 0)
(1.04709 0.0420752 0)
(1.05097 0.0368971 0)
(1.05458 0.0321754 0)
(1.04198 0.0260051 0)
(0.964298 0.0194355 0)
(0.763599 0.0121048 0)
(0.452261 0.00503038 0)
(0.131462 0.000862573 0)
(0.259877 0.00199114 0)
(0.665181 0.00840043 0)
(0.956733 0.017567 0)
(1.10314 0.024169 0)
(1.14312 0.0297826 0)
(1.13893 0.0355967 0)
(1.12238 0.0420457 0)
(1.10532 0.048931 0)
(1.08799 0.0549436 0)
(1.0705 0.0590679 0)
(1.05537 0.0592885 0)
(1.04587 0.0563217 0)
(1.0416 0.0511451 0)
(1.04311 0.0450404 0)
(1.04471 0.0388557 0)
(1.02788 0.0314281 0)
(0.943794 0.0230777 0)
(0.737441 0.0142118 0)
(0.428478 0.00589016 0)
(0.119737 0.000991135 0)
(0.281839 0.00278618 0)
(0.697975 0.0121279 0)
(0.98306 0.0235564 0)
(1.11952 0.0324343 0)
(1.15455 0.0389499 0)
(1.14969 0.0463217 0)
(1.13194 0.0543447 0)
(1.11297 0.0622718 0)
(1.09293 0.0691306 0)
(1.072 0.0732774 0)
(1.05301 0.0727183 0)
(1.04034 0.0680604 0)
(1.03499 0.061808 0)
(1.03462 0.0541107 0)
(1.03299 0.046028 0)
(1.01201 0.0367442 0)
(0.924119 0.0269946 0)
(0.716576 0.0169978 0)
(0.407253 0.00700394 0)
(0.108058 0.00105778 0)
(0.312045 0.00375337 0)
(0.74121 0.0149846 0)
(1.0164 0.0308244 0)
(1.14064 0.0423705 0)
(1.17015 0.0515135 0)
(1.1629 0.0615343 0)
(1.14295 0.0708739 0)
(1.12117 0.0799349 0)
(1.09778 0.0869335 0)
(1.07324 0.0901285 0)
(1.05108 0.0879924 0)
(1.03575 0.0821445 0)
(1.02628 0.0738378 0)
(1.02242 0.064617 0)
(1.01794 0.0548182 0)
(0.991953 0.0441749 0)
(0.896533 0.0323732 0)
(0.680344 0.020191 0)
(0.372743 0.00798148 0)
(0.0919643 0.00117449 0)
(0.348127 0.00749815 0)
(0.795792 0.024553 0)
(1.05868 0.0435036 0)
(1.16755 0.0587161 0)
(1.18897 0.0703818 0)
(1.17814 0.0822648 0)
(1.15485 0.0932923 0)
(1.12933 0.102553 0)
(1.10177 0.108959 0)
(1.0727 0.110892 0)
(1.04632 0.107009 0)
(1.02737 0.0979612 0)
(1.01644 0.0874322 0)
(1.01017 0.076043 0)
(1.0011 0.0641106 0)
(0.969622 0.051239 0)
(0.868404 0.037785 0)
(0.650187 0.0237438 0)
(0.344118 0.00948422 0)
(0.0774698 0.00109579 0)
(0.430313 0.0112585 0)
(0.87817 0.0351165 0)
(1.11537 0.0635603 0)
(1.20116 0.0834108 0)
(1.21251 0.0965956 1.00965e-33)
(1.19543 0.112199 -4.41643e-34)
(1.16713 0.122982 0)
(1.13699 0.131399 0)
(1.10471 0.135975 0)
(1.07099 0.134915 0)
(1.04023 0.127103 0)
(1.01777 0.115434 0)
(1.0025 0.10258 0)
(0.992213 0.0893094 0)
(0.980249 0.0757114 0)
(0.943033 0.0615207 0)
(0.831936 0.0454641 0)
(0.599964 0.0283598 0)
(0.294183 0.00973719 0)
(0.0559988 0.000820226 0)
(0.499486 0.026277 8.3129e-20)
(0.972867 0.059131 -6.24458e-20)
(1.17585 0.0961841 0)
(1.23636 0.118985 4.55863e-20)
(1.23782 0.136047 -3.69358e-20)
(1.21232 0.151607 4.6596e-34)
(1.17856 0.160966 0)
(1.14307 0.167476 2.33169e-20)
(1.1052 0.169537 -7.56122e-20)
(1.06597 0.165517 1.52258e-20)
(1.03084 0.154932 0)
(1.00472 0.140081 -3.68035e-20)
(0.986974 0.123818 -4.35603e-20)
(0.973272 0.107796 7.60083e-20)
(0.953477 0.0917128 -5.9819e-20)
(0.905313 0.0743556 0)
(0.779362 0.0552223 -2.14647e-20)
(0.534805 0.0332452 0)
(0.241538 0.012586 -1.18131e-19)
(0.0380754 0.00127909 1.39628e-19)
(0.531746 0.054315 -1.05218e-20)
(1.02968 0.102238 2.07571e-19)
(1.22088 0.146874 -1.77638e-20)
(1.26784 0.166971 -1.26134e-19)
(1.26058 0.184596 -7.83482e-20)
(1.22725 0.198299 1.2679e-19)
(1.18787 0.205615 0)
(1.1466 0.210172 0)
(1.10306 0.20969 1.2084e-19)
(1.05816 0.202268 0)
(1.0165 0.187545 1.34807e-19)
(0.983072 0.16831 3.94867e-20)
(0.958204 0.150479 3.37922e-22)
(0.937933 0.13357 -8.29053e-20)
(0.916418 0.117194 0)
(0.865728 0.0999349 0)
(0.736567 0.0749698 -3.51441e-19)
(0.498437 0.0483605 8.79649e-19)
(0.226846 0.0188258 -5.21589e-19)
(0.0341959 0.00368747 -6.16518e-19)
(0.536765 0.0772308 -1.53767e-19)
(1.0622 0.159158 5.44123e-20)
(1.25454 0.208257 2.54434e-20)
(1.29336 0.226263 2.22606e-19)
(1.27844 0.241584 1.39162e-20)
(1.2386 0.251202 -3.33998e-19)
(1.19376 0.255108 1.1088e-19)
(1.14676 0.256665 0)
(1.09748 0.252797 -2.56759e-19)
(1.04662 0.241951 2.1971e-19)
(0.999671 0.224227 -3.6317e-19)
(0.964118 0.204821 1.6889e-19)
(0.938353 0.186212 -1.06429e-19)
(0.91698 0.167618 2.41111e-19)
(0.887654 0.148668 0)
(0.831682 0.12845 -8.71212e-20)
(0.706494 0.101779 0)
(0.486855 0.0647732 4.84386e-19)
(0.229955 0.031164 -1.14989e-18)
(0.0423229 0.00533147 7.20258e-19)
(0.527201 0.109267 5.34613e-19)
(1.07719 0.216459 -2.24899e-19)
(1.27403 0.273773 -4.34217e-20)
(1.31009 0.29045 0)
(1.29006 0.303137 -1.59467e-19)
(1.24554 0.308062 1.94604e-19)
(1.19613 0.307884 -1.18597e-19)
(1.14421 0.30559 0)
(1.09007 0.297629 1.82718e-19)
(1.03406 0.282831 -1.55048e-19)
(0.982091 0.261275 3.14034e-19)
(0.939937 0.238207 0)
(0.906268 0.215829 -2.2653e-19)
(0.877368 0.195908 1.2851e-19)
(0.852262 0.1787 3.19033e-19)
(0.803519 0.160475 -2.80596e-19)
(0.689051 0.131091 4.48821e-19)
(0.485597 0.0889823 -9.93729e-19)
(0.245209 0.0454405 6.27821e-19)
(0.0541399 0.0101617 -7.85857e-19)
(0.513499 0.133572 -2.54682e-19)
(1.08308 0.271466 1.85665e-19)
(1.28454 0.340458 -1.41335e-19)
(1.31905 0.355884 2.48732e-19)
(1.29528 0.365939 -2.15223e-19)
(1.24752 0.366314 6.4952e-20)
(1.19451 0.362144 3.64704e-21)
(1.13848 0.355862 -2.19827e-19)
(1.07977 0.343901 -1.92826e-19)
(1.01844 0.32532 -3.32783e-19)
(0.961963 0.300946 -6.74255e-19)
(0.917635 0.275389 -2.03466e-19)
(0.885567 0.253775 2.51001e-21)
(0.861408 0.235823 -4.33207e-19)
(0.829304 0.217221 -6.34094e-21)
(0.776465 0.193373 4.05997e-19)
(0.667923 0.160413 -1.22324e-19)
(0.481705 0.113157 -7.15597e-20)
(0.257012 0.0614596 0)
(0.0635416 0.0155294 1.65952e-18)
(0.494819 0.154213 0)
(1.0747 0.320882 -4.22687e-20)
(1.28603 0.403695 -4.06447e-20)
(1.3214 0.419514 -1.237e-20)
(1.29514 0.427932 2.20147e-19)
(1.24506 0.424352 -1.45534e-19)
(1.18927 0.41651 1.31865e-19)
(1.12992 0.406354 3.58033e-19)
(1.06757 0.390316 -1.05999e-19)
(1.00278 0.367455 1.68659e-19)
(0.94292 0.338732 3.61914e-19)
(0.895155 0.310583 4.41346e-19)
(0.857719 0.286922 -2.6237e-19)
(0.824729 0.264423 4.66918e-19)
(0.799079 0.244495 -3.68122e-19)
(0.756252 0.225297 0)
(0.659602 0.190426 -9.25434e-19)
(0.485918 0.13902 1.24604e-18)
(0.267918 0.077989 9.29461e-20)
(0.0706525 0.0209174 -1.74216e-18)
(0.480572 0.174994 -5.27048e-21)
(1.06687 0.370078 2.50139e-19)
(1.28346 0.465199 3.0269e-19)
(1.31904 0.481326 -3.07309e-19)
(1.29062 0.488136 1.67474e-19)
(1.23882 0.480993 -1.47849e-19)
(1.18091 0.4699 2.69485e-19)
(1.11904 0.456111 -1.14423e-19)
(1.05375 0.436241 -4.34791e-19)
(0.985347 0.409911 4.23627e-22)
(0.921619 0.378458 -3.90648e-19)
(0.872022 0.347981 -4.7256e-19)
(0.835995 0.321438 2.86911e-19)
(0.811507 0.300403 -1.6734e-19)
(0.780061 0.281017 3.97468e-19)
(0.732868 0.255507 0)
(0.639971 0.2192 -5.70644e-19)
(0.479707 0.162728 8.42568e-19)
(0.272842 0.0931632 1.59978e-18)
(0.0749599 0.0259009 -1.88267e-18)
(0.465616 0.192452 3.70238e-19)
(1.05256 0.414127 -1.97783e-19)
(1.27622 0.522393 -2.61514e-19)
(1.31305 0.539754 3.25322e-19)
(1.28293 0.545735 1.13221e-20)
(1.22974 0.535653 -3.01687e-19)
(1.17021 0.521637 -1.50925e-19)
(1.1064 0.504501 -1.36489e-19)
(1.0387 0.481098 -2.40417e-19)
(0.967983 0.450919 3.85157e-19)
(0.902951 0.414373 4.00977e-19)
(0.851236 0.380681 7.51782e-19)
(0.812361 0.353059 0)
(0.777317 0.328707 5.78259e-21)
(0.75271 0.307219 -1.08256e-18)
(0.714427 0.286392 2.51773e-19)
(0.629683 0.247481 1.22566e-18)
(0.474354 0.186359 -3.61098e-19)
(0.270115 0.107007 7.53353e-19)
(0.0751983 0.0290874 -6.32188e-20)
(0.45681 0.211577 6.04813e-21)
(1.04196 0.458322 -1.44831e-19)
(1.26741 0.577822 -1.73727e-19)
(1.30441 0.596073 4.76313e-19)
(1.27268 0.600841 -4.6224e-19)
(1.21859 0.58788 3.10794e-19)
(1.15783 0.571283 1.58066e-19)
(1.09241 0.55122 4.18433e-19)
(1.02257 0.524749 4.9353e-19)
(0.94851 0.490966 -4.33404e-19)
(0.879486 0.452441 0)
(0.826996 0.41573 -2.79296e-19)
(0.789431 0.384337 3.20657e-19)
(0.765102 0.361332 3.96004e-19)
(0.733949 0.338998 -2.29225e-19)
(0.690145 0.310589 -5.55551e-19)
(0.607899 0.271751 -1.6573e-19)
(0.461459 0.2041 -1.26037e-21)
(0.261835 0.116719 0)
(0.0723916 0.031216 0)
(0.448325 0.227157 1.1359e-19)
(1.02858 0.497984 0)
(1.25624 0.628866 -1.7007e-19)
(1.29382 0.648812 5.64262e-20)
(1.26086 0.65288 5.03367e-19)
(1.20597 0.637531 -1.32458e-19)
(1.14411 0.618727 1.6325e-19)
(1.07725 0.596022 -2.88546e-19)
(1.00534 0.566653 3.79743e-19)
(0.929786 0.530122 -1.33608e-19)
(0.860865 0.487237 2.28495e-19)
(0.806877 0.445961 8.86818e-19)
(0.765917 0.414583 1.36336e-20)
(0.730891 0.384779 -4.15004e-19)
(0.70711 0.360476 7.58815e-19)
(0.672796 0.337808 4.48261e-21)
(0.595809 0.292418 1.77311e-19)
(0.449925 0.221238 -8.46188e-19)
(0.252133 0.123466 8.62266e-19)
(0.067999 0.0327854 -1.02599e-18)
(0.44224 0.246111 3.3664e-23)
(1.0177 0.537492 0)
(1.24462 0.678152 0)
(1.28187 0.699364 -7.50423e-20)
(1.24774 0.702249 -1.68946e-19)
(1.19232 0.684527 1.61754e-19)
(1.12969 0.663795 -3.23886e-19)
(1.06176 0.638779 0)
(0.988851 0.60722 -5.54081e-19)
(0.911779 0.567615 6.24118e-19)
(0.838559 0.520411 6.389e-19)
(0.781155 0.477896 -3.23451e-19)
(0.741736 0.440775 -3.85713e-19)
(0.717012 0.413834 9.01592e-19)
(0.688117 0.389395 -2.69609e-19)
(0.647534 0.355753 -3.2109e-19)
(0.571229 0.311711 -1.92141e-19)
(0.432136 0.232343 -9.10902e-19)
(0.239801 0.128063 1.31278e-19)
(0.062616 0.0331016 1.10546e-18)
(0.438514 0.264758 3.35152e-20)
(1.00614 0.573494 6.98301e-20)
(1.23181 0.723498 2.34615e-20)
(1.26903 0.746574 -2.69051e-23)
(1.23405 0.748729 -1.14918e-19)
(1.17816 0.728928 3.0979e-19)
(1.11471 0.70641 0)
(1.04585 0.679413 1.70046e-19)
(0.971036 0.645302 -1.34084e-19)
(0.890324 0.602713 1.04568e-18)
(0.814729 0.554163 -1.44632e-19)
(0.758132 0.507312 1.62914e-19)
(0.718163 0.468429 0)
(0.681786 0.434642 -4.86684e-19)
(0.659717 0.404948 5.84588e-19)
(0.628378 0.378504 0)
(0.55584 0.325396 -4.14838e-19)
(0.414733 0.243022 1.21882e-18)
(0.226495 0.130544 1.43332e-19)
(0.0566704 0.0325687 -1.35942e-18)
(0.436617 0.281637 5.50788e-20)
(0.996684 0.608893 -6.9922e-20)
(1.2192 0.766956 0)
(1.25579 0.791453 -1.5158e-19)
(1.22 0.792618 0)
(1.16373 0.770854 -3.5595e-19)
(1.09974 0.746792 0)
(1.02991 0.718008 0)
(0.953732 0.682507 -1.64844e-19)
(0.872273 0.638981 -9.89742e-19)
(0.795789 0.587615 -1.17643e-18)
(0.734788 0.535951 1.8626e-19)
(0.689556 0.493236 6.64459e-19)
(0.667709 0.458698 5.32427e-19)
(0.639583 0.429556 -1.87593e-18)
(0.601445 0.390131 -7.51565e-19)
(0.528579 0.339557 4.39791e-19)
(0.393254 0.24796 0)
(0.211938 0.131109 1.23476e-18)
(0.0505365 0.0311142 -1.4636e-18)
(0.43524 0.297399 -4.49183e-20)
(0.986616 0.641127 6.32266e-20)
(1.20624 0.806848 0)
(1.24236 0.833238 -1.04386e-20)
(1.20596 0.83389 7.11908e-20)
(1.14941 0.810445 0)
(1.08473 0.784888 9.86988e-20)
(1.01405 0.754467 1.09946e-19)
(0.93684 0.717211 -3.22982e-19)
(0.853238 0.670469 1.36558e-19)
(0.771718 0.614517 0)
(0.708983 0.561935 7.75994e-19)
(0.66915 0.516035 4.28186e-21)
(0.630619 0.476269 2.86789e-19)
(0.609479 0.43955 3.39466e-19)
(0.580395 0.409163 0)
(0.510629 0.346129 -7.20846e-19)
(0.373592 0.252733 1.415e-18)
(0.196796 0.129777 -1.49881e-18)
(0.0446319 0.0290973 3.15112e-18)
(0.434211 0.312434 0)
(0.978092 0.672942 0)
(1.1939 0.844906 4.96847e-20)
(1.22908 0.872714 0)
(1.19204 0.872651 0)
(1.1352 0.847728 -3.58109e-19)
(1.07011 0.820961 1.02857e-19)
(0.998779 0.78916 1.72587e-20)
(0.919815 0.750737 -7.8008e-20)
(0.833039 0.70394 0)
(0.750022 0.648641 -1.75721e-19)
(0.68578 0.591406 -6.30705e-19)
(0.637293 0.540054 -7.51193e-19)
(0.614342 0.497177 -2.9934e-19)
(0.588163 0.461432 3.67764e-19)
(0.55191 0.413238 -8.67009e-19)
(0.48147 0.355361 1.55031e-18)
(0.349484 0.251884 5.05991e-21)
(0.181432 0.126637 -1.43911e-18)
(0.039104 0.0267177 -2.12576e-19)
(0.433121 0.327135 0)
(0.969253 0.702194 4.02497e-20)
(1.18157 0.879914 -4.26223e-20)
(1.21593 0.90942 0)
(1.17839 0.909032 0)
(1.12141 0.882891 7.48693e-19)
(1.05588 0.854957 0)
(0.983735 0.82192 0)
(0.903788 0.782208 -7.15703e-19)
(0.816694 0.73319 1.7793e-19)
(0.732295 0.673684 -1.58609e-18)
(0.66227 0.615201 0)
(0.615068 0.562925 -8.10219e-19)
(0.574796 0.513149 1.12342e-20)
(0.55389 0.465741 -1.17921e-18)
(0.528439 0.426845 4.66495e-19)
(0.462661 0.35261 2.94175e-21)
(0.331741 0.250075 -1.63617e-18)
(0.168061 0.122296 7.75319e-19)
(0.0345313 0.0245764 2.27624e-19)
(0.432156 0.341391 0)
(0.961708 0.73099 6.70887e-21)
(1.1699 0.913372 -4.63635e-20)
(1.20313 0.943996 -2.07988e-19)
(1.16506 0.942992 -9.58398e-20)
(1.10794 0.915796 9.04314e-20)
(1.04214 0.887049 -8.69898e-20)
(0.969466 0.852959 7.84218e-19)
(0.88853 0.812539 7.65601e-19)
(0.798247 0.763764 1.3973e-18)
(0.707623 0.706597 1.3183e-18)
(0.635108 0.644276 2.2685e-19)
(0.582996 0.584088 1.16409e-18)
(0.555567 0.532003 7.09414e-19)
(0.529744 0.484974 8.45786e-19)
(0.49671 0.421077 -5.09857e-19)
(0.431654 0.35356 -5.98802e-19)
(0.308336 0.239935 7.01744e-19)
(0.154847 0.11515 -4.14756e-19)
(0.0328464 0.0261347 7.36297e-19)
(0.431117 0.355194 1.82743e-20)
(0.95389 0.757303 -1.66494e-20)
(1.15832 0.944154 -2.04561e-20)
(1.19063 0.976139 1.62966e-20)
(1.15216 0.974833 2.75841e-19)
(1.09498 0.946755 -2.12156e-19)
(1.02898 0.917206 8.92499e-20)
(0.955971 0.882305 -2.13653e-20)
(0.874112 0.841223 -8.97721e-19)
(0.783313 0.791127 -1.50986e-18)
(0.693227 0.729836 9.36361e-20)
(0.617403 0.667535 0)
(0.559726 0.609661 0)
(0.512344 0.549088 -3.71004e-19)
(0.488381 0.483957 -1.3757e-18)
(0.466711 0.42883 1.0984e-18)
(0.413629 0.330655 6.54744e-19)
(0.307479 0.220092 0)
(0.16269 0.0933848 1.32295e-18)
(0.0268836 0.00385779 -7.88751e-19)
(0.430214 0.368295 -8.24938e-21)
(0.947083 0.783049 1.04859e-20)
(1.14735 0.973591 3.01387e-20)
(1.17852 1.00636 8.5474e-20)
(1.13965 1.00443 8.24909e-20)
(1.08251 0.975561 -6.09763e-20)
(1.0165 0.945522 0)
(0.94317 0.910017 -9.93291e-19)
(0.860405 0.868275 1.10351e-19)
(0.766789 0.818586 0)
(0.670781 0.760445 0)
(0.588047 0.696921 1.4051e-19)
(0.525838 0.631034 1.83325e-19)
(0.490288 0.567183 -3.98892e-19)
(0.458657 0.504916 9.86876e-19)
(0.42512 0.413126 -1.19253e-18)
(0.371888 0.316384 -1.40037e-18)
(0.295125 0.195408 1.236e-18)
(0.200375 0.119095 -4.72967e-19)
(0.116916 0.0868263 2.76632e-19)
(0.429075 0.380634 3.01352e-20)
(0.939914 0.806354 0)
(1.13652 1.00058 0)
(1.16685 1.03445 3.75979e-20)
(1.12772 1.03219 -3.04361e-20)
(1.07063 1.00263 -2.0957e-20)
(1.00457 0.97202 3.68405e-19)
(0.930994 0.935964 1.0574e-18)
(0.847545 0.894179 1.65125e-18)
(0.75343 0.843865 -1.1129e-19)
(0.657483 0.783457 2.23912e-19)
(0.573375 0.719843 -1.27222e-18)
(0.505187 0.658704 -1.23584e-18)
(0.442982 0.589337 -2.1318e-19)
(0.404229 0.502493 0)
(0.376148 0.422615 -1.12708e-20)
(0.335713 0.258813 7.61393e-19)
(0.291107 0.0958355 -1.30027e-18)
(0.250532 -0.0497803 9.93832e-19)
(0.0797663 -0.0930145 8.35473e-19)
(0.428016 0.392398 -7.35355e-20)
(0.933545 0.829202 -4.11482e-20)
(1.12621 1.02653 6.67627e-21)
(1.1555 1.06103 -1.15965e-20)
(1.11604 1.05821 0)
(1.05905 1.02807 -4.03976e-19)
(0.992994 0.997245 -5.03246e-19)
(0.91923 0.960984 2.26274e-20)
(0.835218 0.918976 -8.72616e-19)
(0.738866 0.86937 -1.09533e-19)
(0.637077 0.812228 1.01735e-19)
(0.544888 0.75152 1.11565e-18)
(0.46916 0.683591 1.20678e-18)
(0.418789 0.610281 2.06725e-19)
(0.370323 0.53626 1.04029e-18)
(0.306623 0.406065 0)
(0.200505 0.250155 0)
(0.0303542 0.253589 8.91363e-19)
(-0.071826 0.628895 -3.29268e-20)
(0.00250218 1.51603 -1.06773e-18)
(0.426609 0.403559 4.42307e-20)
(0.926849 0.849932 7.478e-20)
(1.11602 1.05048 -2.06464e-20)
(1.14452 1.08609 -7.89552e-20)
(1.10483 1.08318 4.83987e-20)
(1.04786 1.05267 -4.16254e-19)
(0.981773 1.02166 0)
(0.907849 0.985363 -9.06078e-19)
(0.823095 0.943817 0)
(0.72581 0.894704 1.61102e-18)
(0.624072 0.836193 -1.17639e-19)
(0.532308 0.775662 1.31904e-19)
(0.452126 0.716792 1.37431e-18)
(0.365938 0.650118 -4.41194e-19)
(0.279936 0.547762 -5.28654e-19)
(0.208746 0.467283 0)
(0.103234 0.559867 0)
(0.0332739 1.27688 0)
(0.0762665 2.43969 -5.08927e-19)
(0.105942 2.89925 -3.09941e-19)
(0.425234 0.414202 0)
(0.920905 0.870268 0)
(1.10636 1.07359 1.38071e-20)
(1.13387 1.10987 7.53748e-20)
(1.09386 1.10666 -1.3641e-19)
(1.03697 1.07592 3.95081e-19)
(0.970873 1.04507 6.21054e-20)
(0.896738 1.00902 -4.8355e-20)
(0.811502 0.967984 1.19802e-19)
(0.712498 0.919803 -1.85012e-18)
(0.606198 0.86656 2.19424e-19)
(0.505033 0.811867 1.11268e-18)
(0.412621 0.750816 -1.37337e-18)
(0.342079 0.675512 -1.46956e-18)
(0.272666 0.612383 4.92732e-19)
(0.203864 0.734161 0)
(0.137825 1.51137 6.89118e-19)
(0.135819 2.67715 7.77764e-19)
(0.14307 3.08231 -8.70309e-19)
(0.133742 3.21955 9.5031e-19)
(0.423519 0.424193 0)
(0.914637 0.888485 1.10452e-19)
(1.09685 1.09478 -1.0169e-21)
(1.12368 1.13223 -3.95235e-20)
(1.08347 1.12916 1.43184e-19)
(1.02662 1.09837 0)
(0.960509 1.06763 0)
(0.886271 1.03196 0)
(0.800523 0.991829 7.39548e-19)
(0.70098 0.94568 9.13963e-20)
(0.594186 0.891787 0)
(0.493716 0.836211 -1.11153e-18)
(0.406918 0.787186 0)
(0.29416 0.731039 1.0542e-18)
(0.213097 0.806783 -7.07864e-19)
(0.167871 1.4496 -5.67145e-19)
(0.171452 2.66674 -1.3417e-18)
(0.191464 3.12605 -7.17947e-19)
(0.181875 3.27024 -1.02253e-18)
(0.16685 3.31102 8.14295e-19)
(0.421931 0.433507 -4.4596e-20)
(0.909097 0.90641 1.53396e-20)
(1.08787 1.11529 -4.20051e-21)
(1.11383 1.15343 4.56572e-20)
(1.07331 1.1503 0)
(1.01656 1.11956 0)
(0.950421 1.08929 0)
(0.876059 1.05418 6.25128e-20)
(0.790109 1.01517 -9.29071e-19)
(0.689483 0.97031 0)
(0.579407 0.92175 0)
(0.473963 0.876895 0)
(0.364678 0.828569 0)
(0.30964 0.818453 7.78657e-19)
(0.281796 1.18202 1.8957e-18)
(0.267261 2.34995 5.60842e-19)
(0.278044 3.08169 1.16329e-18)
(0.271211 3.28886 -9.16681e-19)
(0.220937 3.35627 3.43443e-19)
(0.187143 3.36883 0)
(0.420054 0.442352 4.89321e-20)
(0.903006 0.92272 -2.77236e-19)
(1.0788 1.13454 -5.80066e-20)
(1.10422 1.17394 -5.76259e-21)
(1.06354 1.17114 -3.92056e-20)
(1.00687 1.14059 4.08082e-19)
(0.940798 1.11064 -4.07624e-20)
(0.866495 1.07624 -8.35823e-19)
(0.780311 1.03843 0)
(0.679272 0.996341 -1.06965e-19)
(0.568931 0.949218 9.73048e-20)
(0.462183 0.900886 0)
(0.377373 0.869536 0)
(0.321249 0.995415 -9.74238e-19)
(0.289236 1.84149 1.37668e-19)
(0.285099 2.93354 -4.42373e-19)
(0.304248 3.29364 9.44591e-19)
(0.277454 3.39487 7.27911e-19)
(0.209963 3.42022 -1.06997e-18)
(0.184214 3.42897 5.34999e-19)
(0.418005 0.4513 1.05108e-19)
(0.897086 0.940392 2.89949e-19)
(1.06948 1.1549 6.13977e-20)
(1.09412 1.19493 0)
(1.05321 1.19209 0)
(0.996743 1.16165 -3.10504e-19)
(0.93078 1.13227 3.56209e-19)
(0.856618 1.09851 7.52285e-19)
(0.770521 1.06203 4.30555e-20)
(0.669023 1.0214 1.46224e-18)
(0.557871 0.97921 -1.58293e-18)
(0.44947 0.943692 0)
(0.370618 0.952325 0)
(0.347691 1.34783 -6.8449e-19)
(0.35195 2.45721 -8.11543e-19)
(0.39304 3.19931 0)
(0.418802 3.37961 -1.05707e-18)
(0.348717 3.44421 -1.34971e-20)
(0.275447 3.48842 6.76661e-19)
(0.251365 3.51429 -2.71501e-19)
(0.41526 0.46067 -2.06153e-19)
(0.889761 0.957698 -1.43862e-19)
(1.05908 1.17551 0)
(1.08333 1.21679 0)
(1.04243 1.21425 0)
(0.986203 1.18384 0)
(0.920564 1.15464 -3.91949e-19)
(0.846734 1.1215 7.50272e-19)
(0.760836 1.08619 0)
(0.659957 1.04874 -1.33533e-18)
(0.548693 1.00962 2.86069e-18)
(0.443752 0.975288 1.13477e-19)
(0.387122 1.05697 1.43241e-19)
(0.394959 1.72781 1.13217e-18)
(0.41803 2.88484 -6.31986e-19)
(0.455975 3.32729 0)
(0.437919 3.45654 3.12911e-19)
(0.349645 3.54463 9.6753e-20)
(0.268091 3.61204 8.74138e-20)
(0.192381 3.59185 1.0512e-19)
(0.412274 0.470222 1.0097e-19)
(0.882375 0.9773 -1.65907e-19)
(1.04802 1.198 0)
(1.07158 1.2396 5.71214e-22)
(1.03057 1.2368 -4.04493e-20)
(0.974755 1.20627 0)
(0.909478 1.17748 0)
(0.836213 1.14484 -1.33956e-18)
(0.750939 1.11067 -9.52496e-20)
(0.649916 1.0744 1.36564e-18)
(0.538076 1.03864 -1.3721e-18)
(0.45066 1.02915 7.7117e-19)
(0.417939 1.24528 0)
(0.446027 2.16233 -6.07985e-19)
(0.487081 3.143 3.8641e-19)
(0.545966 3.43487 2.8164e-19)
(0.539598 3.53505 0)
(0.472593 3.62456 1.4714e-20)
(0.398174 3.66866 -3.13201e-19)
(0.315286 3.63941 -6.39614e-20)
(0.408131 0.480152 -2.17905e-19)
(0.873098 0.996225 2.42208e-19)
(1.0356 1.22065 1.31254e-19)
(1.05899 1.26341 -2.73214e-20)
(1.01814 1.26072 5.95565e-20)
(0.962814 1.22997 0)