/*--------------------------------*- C++ -*----------------------------------*\
  =========                 |
  \\      /  F ield         | OpenFOAM: The Open Source CFD Toolbox
   \\    /   O peration     | Website:  https://openfoam.org
    \\  /    A nd           | Version:  9
     \\/     M anipulation  |
\*---------------------------------------------------------------------------*/
FoamFile
{
    format      ascii;
    class       volScalarField;
    location    "43";
    object      p;
}
// * * * * * * * * * * * * * * * * * * * * * * * * * * * * * * * * * * * * * //

dimensions      [0 2 -2 0 0 0 0];

internalField   nonuniform List<scalar> 
918
(
0.57143
1.22002
0.00668423
0.570798
-0.00857522
1.18707
-0.484659
0.724529
0.551584
-0.0799965
-0.0132413
0.547616
1.04759
0.81366
-1.10894
-0.000210435
0.675504
-0.363193
0.550632
-0.0177556
0.760056
0.558163
0.561194
0.551779
0.616384
0.793105
0.92847
0.0214321
0.00276361
0.00171333
-0.0146582
-0.0355792
-0.025132
1.07071
1.1218
1.14449
0.519762
0.347125
-0.349645
-0.416749
-0.409533
-0.528633
0.71805
0.717683
-0.168932
0.727346
0.734083
0.538739
0.550947
0.551853
0.552922
0.551879
0.553272
0.429495
-0.083437
-0.115326
-0.0598637
-0.0519998
0.0800544
-0.0143628
-0.0155922
-0.0129971
-0.0161787
0.470181
0.543167
0.540281
0.552825
0.561865
1.15957
1.13148
1.15762
1.07129
1.08781
1.02557
0.998234
0.834302
0.8561
0.799285
0.788042
-1.54621
-2.50742
-0.513724
-0.260029
-0.0169939
0.00309723
0.0170384
0.668021
0.666957
0.677309
0.687389
1.09986
-0.361321
-0.471968
0.550764
0.549563
0.55794
0.558635
0.554649
0.553742
-0.0182382
-0.0177214
-0.016317
-0.0177696
-0.0206977
0.749137
0.746738
0.552316
0.549332
0.56861
0.589608
0.581289
0.298837
0.619853
0.632985
0.618066
0.784155
0.778001
0.786817
0.901884
0.865611
0.965731
0.988808
0.0162061
0.00322459
-0.00558074
-0.0120657
-0.0115059
0.515675
0.508357
0.534862
0.523134
0.525587
0.262912
0.128011
0.432708
0.457771
-0.263646
-0.323551
-0.415358
-0.438561
-0.55333
0.618151
0.708472
0.706595
-0.186449
-0.112192
-0.241494
-0.0390143
-0.0994751
0.52911
0.536041
0.531083
0.546523
0.541015
0.542968
0.555201
0.55228
0.553836
0.49222
0.615949
0.355682
0.3211
-0.222203
-0.133554
-0.224905
-0.0383061
-0.0328027
0.0947854
0.120282
0.0669672
0.0565714
-0.0270215
-0.0181837
-0.0221995
-0.0150602
-0.0167535
0.463101
0.452235
0.4826
0.489951
0.533081
0.534272
0.537673
0.536116
0.948969
0.971226
0.978918
0.952767
-3.50748
-6.30897
0.0686375
0.206839
-0.00204207
-0.00966912
0.0069067
-0.00909976
-0.00267593
-0.00359831
0.0152603
0.014298
0.0206496
0.0244126
0.656632
0.656551
1.01938
1.0211
0.99969
0.950449
0.538874
0.540986
0.546521
0.542383
-0.0175977
-0.0181009
-0.0196699
0.735413
0.742747
0.740753
0.261458
0.174092
0.34846
0.376666
0.648007
0.636357
0.646207
0.67845
0.715467
0.996205
1.01452
1.01272
1.02123
1.0653
1.08173
1.04705
0.495596
0.505318
0.500416
0.538044
0.535759
0.536689
0.532249
0.533708
0.531538
-0.0238288
-0.407212
0.506851
0.525336
0.50669
0.512329
0.697891
0.775425
0.689121
0.698824
0.696668
0.0274358
-0.0300791
0.277122
0.243399
0.404108
0.439779
0.419125
0.920129
0.880713
0.930768
0.903981
0.865519
0.890815
-0.358794
-1.87064
-0.983032
0.560525
0.372445
0.460563
0.0375913
0.0181394
0.0247687
1.014
1.09073
0.671578
0.840904
0.84752
0.754236
0.784024
0.838946
0.765331
0.799235
0.833763
0.814423
0.57497
0.518998
0.529953
0.845597
0.902389
0.146476
0.089188
0.0447916
0.1395
0.196342
0.170555
1.05275
0.958409
1.03049
0.549084
0.549785
0.00842069
0.00419949
0.553963
0.554009
-0.0112961
0.00129997
0.443643
-0.818234
0.131016
0.542452
0.532618
0.549594
-0.0626122
0.384225
-0.0136467
0.0772758
0.0178616
0.545576
0.480833
0.441055
0.0127552
-0.0106494
-0.0149807
-0.191185
0.546756
0.545065
0.549064
0.550033
0.550699
-0.0034581
0.00193159
-0.000296959
-0.0162793
-0.0134693
-0.0167448
0.513988
0.531903
-0.146825
0.549206
0.551332
0.551155
0.544352
0.550008
0.548241
-0.000553305
-0.00629573
-0.00953442
0.245131
0.370388
0.688599
0.780437
0.65743
0.430458
0.192506
0.588816
0.653905
0.557331
0.714092
0.703178
0.720725
0.196528
0.0469122
0.204357
0.145725
0.540316
0.539006
0.53088
0.527917
0.54446
0.542574
0.547124
0.544125
0.547069
0.548464
-0.0206514
-0.0448996
-0.0587115
-0.12505
0.340606
0.60062
0.280551
0.310552
0.171592
-0.0079064
-0.00961665
-0.0130739
-0.0182289
0.0297794
0.00256132
0.0700463
0.0700839
0.0397953
0.0141735
0.0209583
0.00840147
0.0117533
0.538829
0.537164
0.54351
0.552226
0.49021
0.493972
0.459616
0.479938
0.465401
0.406028
0.44028
0.415792
0.00306757
0.0172854
0.00484483
-0.00451838
-0.000199936
-0.0119653
-0.0083307
-0.00962179
-0.000892013
-0.00808199
-0.0123434
-0.0196305
-0.150569
-0.264357
1.00539
0.938005
0.147151
0.535947
0.542369
0.539151
0.54397
0.547097
0.547938
0.54568
0.542245
0.532395
0.534071
0.530626
0.531332
-0.0830287
-0.219878
-0.0480907
-0.118434
0.156852
0.63894
0.382187
0.320994
0.315264
0.539503
0.947602
0.739173
0.723991
0.743597
-0.323529
0.0722172
-0.257063
0.362716
0.185036
0.685857
0.736236
0.758721
0.705885
0.657933
-0.0935823
0.569983
-0.0426137
0.00601586
0.203055
0.0881291
0.724833
0.686623
0.690739
0.709798
0.728232
0.692746
0.675412
0.670136
0.705327
0.708988
0.515491
0.276263
0.229125
0.19084
0.668766
0.553576
0.609066
0.520502
0.535355
0.538078
0.536678
0.518728
0.526185
0.521812
0.527918
0.531249
0.540173
0.540556
0.535938
0.538097
-0.0257339
-0.0288676
-0.00411954
-0.113322
-0.104056
-0.163447
-0.0412115
0.0995607
0.062644
0.256419
0.36253
0.0749997
-0.0399144
-0.0108155
0.0251046
0.201141
0.226403
0.103753
0.190998
0.180188
0.164038
0.264911
0.269898
0.00365379
-0.000576264
-0.000690318
-0.00311668
0.0482173
0.120745
0.130853
0.0218452
0.0168959
-0.0119515
-0.0131432
0.0064059
0.00289023
0.00551901
0.041823
-0.0359119
-0.00377347
0.0122957
0.0241204
0.0183767
0.013863
0.531397
0.533565
0.533223
0.540913
0.558542
0.574449
0.531957
0.512001
0.502968
0.50595
0.479567
0.489692
0.485602
0.499054
0.519362
0.528448
0.526092
0.528744
0.511613
0.513222
0.500215
0.503855
0.479429
0.460691
0.449187
-0.0259114
0.0122314
0.00392044
-0.0237448
0.0059318
-0.0065624
0.0109509
0.0267986
0.0131196
0.00836509
0.000211554
-0.00729268
-0.00347892
-0.0555483
0.0274647
-0.164408
-0.198556
-0.267256
0.909472
1.03002
0.832067
0.607499
0.621788
0.861943
0.94886
0.569589
0.75573
0.779504
0.592586
0.860987
0.540746
0.540359
0.537959
0.537436
0.538661
0.0068546
0.10867
0.11589
0.172346
0.288259
0.401624
0.323731
0.200468
0.333303
0.337176
0.633111
0.646793
0.600622
0.623293
0.623874
0.445694
0.522397
0.575793
0.531311
0.580573
0.601839
0.559904
0.590941
0.540257
0.496021
0.492692
0.441545
0.463269
0.440084
0.421745
0.530511
0.508343
0.518608
0.50892
0.528375
0.552283
0.549133
0.581068
0.592194
0.512867
0.470022
0.479974
0.50927
0.47022
0.484669
0.500394
0.239044
0.13853
0.223994
-0.06533
0.0133212
-0.0014016
-0.0486217
-0.00212306
0.283328
-0.412502
-0.386763
-1.01868
0.510451
0.977506
0.676882
0.649882
0.725064
0.704941
0.709553
0.730901
0.736001
0.659337
0.676594
0.680217
0.641561
0.665081
0.687385
0.684528
0.540449
0.409658
0.403899
0.358433
0.230152
0.266194
0.468782
0.390483
0.315479
0.317448
0.48075
0.367574
0.435636
0.47388
0.405275
0.359522
0.564826
0.629583
0.619297
0.593964
0.512405
0.527116
0.55137
0.587142
0.613679
0.645658
0.527605
0.533414
0.534668
0.532207
0.529402
0.532363
0.532501
0.535035
0.535818
0.538752
0.537762
-0.0128995
-0.00134888
-0.0153229
-0.0217358
0.00761002
0.00342342
0.0479877
0.03386
0.0181961
0.0248077
-0.0014779
-0.00591859
-0.000568681
0.00861029
0.125261
0.138456
0.122225
0.082878
0.270279
0.400941
0.471327
0.349886
0.242866
0.266754
0.289484
0.0156332
0.0422532
0.0289418
0.0698265
0.0617907
-0.00584964
-0.0111372
-0.00772774
-0.00158977
0.0102725
-0.00939273
-0.0158629
-0.00642626
-0.0104313
-0.0128041
-0.016975
0.514195
0.507735
0.50922
0.503247
0.502018
0.516019
0.52026
0.522122
0.527463
0.529544
0.519981
0.525494
0.529135
0.00910428
-0.013607
-0.0190737
-0.00293355
-0.00642864
-0.00652358
-0.00514036
0.135516
0.0656022
0.0700419
0.0246224
-0.103413
-0.0462258
0.498953
0.496947
0.492352
0.729496
0.579878
0.498621
0.594302
0.699861
0.285867
0.484559
0.317527
0.901054
0.794084
0.940627
0.555465
0.253104
0.410769
0.460832
0.268077
0.340733
0.343607
0.230697
0.262699
0.296163
0.397821
0.27487
0.249784
0.00706324
0.194864
0.311686
0.292549
0.421224
0.483573
0.271375
0.192058
0.147222
0.62408
0.642018
0.659068
0.631558
0.654691
0.590511
0.578849
0.596855
0.606401
0.602341
-0.746153
-0.453282
-1.39783
-0.712826
-0.261449
0.541476
0.505202
0.782498
0.666184
0.726429
0.710771
0.667767
0.634252
0.649993
0.680029
0.373301
0.485415
0.459948
0.464937
0.365295
0.297093
0.599467
0.593384
0.629077
0.652808
0.620544
0.652697
0.525356
0.525014
0.524599
0.520954
0.51926
0.521509
0.086067
0.0547073
0.0898615
0.0711978
0.0486045
0.0367779
0.0177978
0.00909727
5.05776e-05
-0.000297308
0.010675
0.0155699
0.177233
0.118106
0.0414942
0.0701473
0.0109218
-0.055227
-0.0736943
0.027623
0.120584
0.111016
0.417516
0.669624
0.490254
0.659239
0.498263
0.554335
0.482905
0.475962
0.502668
0.38996
0.469307
0.244392
-0.26211
-0.169901
0.798602
0.815148
0.598043
0.414806
0.184239
0.370623
0.564632
0.498692
0.537076
0.606575
0.597149
0.0263242
0.0906719
0.357871
0.58513
0.245137
0.237342
0.231572
0.408255
0.330603
)
;

boundaryField
{
    wall-4
    {
        type            zeroGradient;
    }
    velocity-inlet-5
    {
        type            zeroGradient;
    }
    velocity-inlet-6
    {
        type            zeroGradient;
    }
    pressure-outlet-7
    {
        type            fixedValue;
        value           uniform 0;
    }
    wall-8
    {
        type            zeroGradient;
    }
    frontAndBackPlanes
    {
        type            empty;
    }
}


// ************************************************************************* //
