/*--------------------------------*- C++ -*----------------------------------*\
  =========                 |
  \\      /  F ield         | OpenFOAM: The Open Source CFD Toolbox
   \\    /   O peration     | Website:  https://openfoam.org
    \\  /    A nd           | Version:  9
     \\/     M anipulation  |
\*---------------------------------------------------------------------------*/
FoamFile
{
    format      ascii;
    class       surfaceScalarField;
    location    "43";
    object      phi;
}
// * * * * * * * * * * * * * * * * * * * * * * * * * * * * * * * * * * * * * //

dimensions      [0 3 -1 0 0 0 0];

internalField   nonuniform List<scalar> 
1300
(
3.75095
5.62643
-3.14245
3.75095
-7.65133
5.62643
-4.38059
4.38059
-0.789137
0.789137
1.87641
1.87454
-2.86727
2.86727
-2.34552
2.34552
-2.54892
2.54892
-5.24649
5.24649
-5.06906
5.06906
4.66472
-4.66472
-6.24028
6.24028
-1.12762
1.12762
-3.77164
3.77164
3.16973
-3.16973
-2.24816
2.24816
-0.186204
0.186204
-0.553503
4.30446
3.19745
3.19745
-2.01911
2.01911
-4.86562
4.86562
6.21816
-6.21816
5.11196
-5.11196
-1.96951
-2.31587
1.79167
-11.581
-5.85966
-5.85966
-8.44038
8.44038
-2.81395
2.81248
2.94455
-2.94455
-1.7827
1.7827
-4.31386
-0.0667301
-4.31386
4.37682
0.00377456
4.37682
-0.8753
0.0861632
-0.8753
3.88638
-3.88638
0.669328
0.119809
0.669328
3.06503
-3.06503
-1.8771
3.75351
1.87386
-1.87187
6.17632
-1.87908
3.75363
-5.98833
5.98833
-3.08615
0.218881
-3.08615
2.68454
0.182735
2.68454
-6.81769
6.81769
-2.3966
0.0510799
-2.3966
2.27534
0.0701745
2.27534
2.87267
-2.87267
-2.65352
0.104595
-2.65352
2.43451
0.11441
2.43451
0.353529
5.2729
-5.97996
8.79243
-5.2729
0.0264086
5.20841
0.038087
5.20841
-5.10605
0.036988
-5.10605
5.01135
0.0577142
5.01135
4.75485
-0.0901234
4.75485
-4.78013
0.115406
-4.78013
-3.44247
-4.08223
-6.39916
0.158883
-6.39916
-1.15022
0.0225951
-1.15022
1.07735
0.0502746
1.07735
-3.64617
3.64617
-4.16471
0.393072
-4.16471
3.12415
0.0455868
3.12415
1.8685
1.88245
5.61946
-5.61946
2.44972
-2.21087
-0.0372917
-2.21087
-2.25663
-2.85533
2.25663
-0.0084705
-0.425009
0.238804
-0.425009
3.15934
0.0381135
3.15934
2.27525
0.159262
-2.27525
0.256139
3.24569
-3.24569
1.35552
0.663586
1.35552
-5.56521
5.56521
4.95457
0.0567729
-4.95457
0.0889511
6.1569
0.0612586
6.1569
-6.19954
-0.0186244
-6.19954
2.67705
-4.99292
-2.53334
6.04894
0.191341
-6.04894
0.18928
2.91539
0.029152
2.91539
-2.92027
2.92027
-2.98374
0.0391907
-2.98374
-2.18368
0.400977
-2.18368
1.48131
0.301393
1.48131
-4.1813
-0.132564
-4.1813
-4.29457
0.129855
4.29457
0.0822503
1.10289
-1.10289
-0.978363
0.103063
-0.978363
-4.01989
-0.161412
4.01989
-0.133505
-3.78349
-0.102891
-3.78349
-3.02392
0.0401846
3.02392
0.0411113
3.1127
0.0466384
-3.1127
0.0476656
-1.87083
3.75328
-1.88013
3.75398
-5.60573
-0.3826
-5.60573
6.29967
-0.311341
6.29967
3.44477
0.326867
-3.44477
0.358619
2.55504
0.129493
2.55504
-6.78352
-0.0341706
-6.78352
6.80206
0.0156257
6.80206
2.46369
0.091355
-2.46369
0.0670899
2.23363
0.0417192
2.23363
2.88959
-0.0169202
2.88959
-2.86936
-0.00331149
-2.86936
2.79814
-2.79814
2.72951
0.0686264
-2.72951
0.0759986
-11.1331
11.1144
-0.0352895
-11.0978
5.17312
5.17312
4.18501
0.569836
4.18501
-4.99546
0.215332
-4.99546
2.81113
-5.34447
3.07929
-6.52176
4.69473
-16.2757
4.32463
-8.40686
6.65796
-6.65796
6.53831
0.119653
-6.53831
0.139146
-1.21687
0.0666487
-1.21687
-3.0411
-0.605066
-3.0411
4.29495
-0.648784
4.29495
-3.02867
3.02867
-3.07777
0.049106
3.07777
0.0463745
2.19238
0.0412493
-2.19238
-0.0184911
0.547624
0.121704
-0.547624
0.122615
3.44468
-0.198989
3.44468
-3.05533
-0.19036
-3.05533
-1.2862
0.0693332
1.2862
0.0693249
-5.81517
0.249956
-5.81517
-11.1907
0.0929324
-11.1526
-6.1066
-6.1066
2.33378
11.1262
-2.88932
0.0199574
2.88932
0.0260768
2.97565
0.0530194
-2.97565
0.0553721
-2.86157
0.0634261
2.86157
0.0587082
-2.56038
0.376703
-2.56038
-1.07031
1.07031
-1.24347
0.173155
1.24347
0.23784
1.36584
-0.262943
1.36584
1.0367
0.0406484
-1.0367
0.0583352
-3.70287
-0.080618
-3.70287
6.53486
-0.235187
6.53486
-2.94722
-0.108116
2.94722
-0.057624
-0.0332889
11.1477
-5.13983
0.0337785
5.13983
-11.209
11.2428
-3.23318
0.672802
3.23318
0.951827
5.2866
0.278609
-5.2866
0.291143
6.74953
0.0525304
-6.74953
0.0915687
-2.54945
-0.491646
-2.54945
-5.02195
-0.583784
5.02195
-0.726999
-11.4753
-0.203857
11.6792
-11.4176
6.01903
0.137877
-6.01903
11.3806
-1.01508
-0.0878105
1.01508
0.0552315
1.69034
-0.3245
1.69034
3.62211
-0.177429
-3.62211
-0.0807616
-6.69022
-0.0933
6.69022
-0.155358
-2.1059
-0.443549
2.1059
-0.415568
-4.26702
4.30513
1.9093
-2.51036
-2.48256
-5.36569
1.85191
1.90136
4.30164
-10.2097
-6.06605
-10.0204
7.26436
-6.97322
-9.26407
9.17394
7.73755
-7.84044
-5.78516
5.83154
6.48241
-6.4413
1.87879
1.87472
7.93981
-7.72093
-15.6354
15.2528
7.47311
-7.42203
15.8015
-15.8357
-17.9055
17.958
-5.70752
5.81211
-6.72957
6.72626
-6.95517
6.89755
-2.89902
-3.62273
13.1882
-13.0293
8.39563
-8.43292
-8.55013
8.9432
3.38249
0.922649
3.42912
-1.88226
3.76104
-1.87137
3.78068
2.67565
-5.57467
2.66882
-5.15138
4.19121
4.20442
-4.18274
-1.18295
-5.9215
5.95065
-5.8188
5.8775
8.99468
-9.06141
-1.88514
3.75986
-1.86884
3.77021
-3.42506
-2.3601
3.37948
0.922159
8.10806
5.08009
-8.2994
-1.72099
-7.96576
7.78833
-8.19213
8.00177
-0.438688
5.81896
-5.38027
4.42694
-1.55847
7.37743
5.70589
5.92123
5.86604
-5.58743
1.10718
-6.48745
-6.3985
-2.44516
2.54822
2.39277
-2.27296
6.02235
1.7152
5.88885
-5.68101
-2.15943
-5.76163
3.82098
2.01056
3.87009
4.07753
2.40488
4.11771
3.03072
-3.0357
0.00498903
-3.05642
6.08713
0.724155
-5.41652
-4.49436
4.95953
2.98028
5.14226
-5.50637
-2.21456
-5.14775
-9.54539
-6.09
-10.1292
10.0977
5.15507
9.78638
-11.9752
11.8198
4.75698
2.71613
4.82716
-4.91046
-2.51157
-4.84337
11.6267
-2.61619
-9.0105
-10.346
-7.55951
10.3303
5.47115
10.9999
6.95812
11.0915
4.43814
7.18855
-9.9093
2.34979
-3.86394
-1.84358
-3.78794
3.67846
2.13366
3.79286
-4.2143
-2.51527
-4.19434
-4.28933
-2.66584
4.30625
2.42
-4.40512
-3.78702
4.51323
2.38431
4.06487
-10.1309
4.342
-7.96473
-9.24523
-3.78404
-9.10608
3.48004
2.62778
-6.10782
-2.09463
8.42896
-4.22454
7.24601
-5.12489
-3.30803
-5.14339
-6.81765
-1.73248
-6.68779
-8.88616
8.39451
-9.18522
8.53643
12.6019
-5.67244
-6.92944
-3.96825
-2.47305
3.92058
-0.491458
-3.71092
3.71591
0.0501184
3.8308
4.75344
4.26199
-3.8862
-1.93259
-3.83083
3.82978
2.04773
3.8932
6.77334
2.22134
6.77711
-6.48436
-2.57705
-6.61692
9.07177
-8.67079
2.89912
-2.82978
5.35
2.65177
-5.15101
-2.81474
6.20052
-3.1869
-3.01361
-12.2032
10.5489
1.65423
-4.82572
-0.398789
-0.212585
-5.49616
-3.7679
5.38076
0.540468
11.0894
7.32149
-5.51182
5.76178
6.16738
6.22415
-0.17435
5.83105
-5.15825
5.33025
-2.50835
-2.82191
5.35142
-5.51283
-1.2655
-5.41594
4.15044
0.376016
1.6656
-1.4268
-1.90021
-0.544949
-1.84188
1.43852
0.954241
1.56023
0.929137
1.61909
-2.94526
0.567707
2.37755
-2.01612
-1.70525
-3.70745
-1.12307
4.83053
5.66552
2.1228
-5.58476
-0.176869
2.61179
-2.56152
-0.721054
-2.9864
2.19646
-2.91751
-3.67928
-1.94109
5.62037
-3.37043
-0.460398
3.31741
0.552671
-3.82624
-2.09526
3.78705
0.330657
-3.12612
6.19044
-3.06433
-5.05871
2.5283
3.55883
4.53886
-4.7898
2.4468
2.34299
-1.23097
4.24366
0.898604
4.37315
-6.82914
4.61458
5.76644
3.17676
-6.09331
0.945563
-5.88357
8.4963
-7.31146
-1.18484
4.10585
4.39045
7.11137
5.49051
-5.70355
12.8149
-1.16157
-6.14989
7.04515
-3.86839
4.79331
-8.6617
-10.2838
4.13393
-9.15849
10.9427
-1.78417
-3.62939
-8.34578
12.7879
-1.20542
-11.5825
8.58096
-4.17325
-4.2756
8.44885
-6.78944
6.78717
-1.9593
-4.82787
-10.1223
-5.71339
10.2156
1.60424
-9.85597
12.2058
-2.66742
4.0961
0.731055
4.13782
3.24631
-5.4233
2.17699
3.54313
-5.50243
2.06565
-7.48895
-6.7639
12.1088
-5.34486
-10.5479
-9.56296
-0.98498
2.54243
9.66333
-9.50054
7.45794
2.04261
3.30715
0.586052
-3.37578
-0.412163
0.241437
4.53633
-4.77776
4.0343
4.19356
3.32605
1.21027
3.84226
2.10839
-3.86834
-0.325999
-4.15563
1.48979
-1.73563
-3.68023
5.17002
-4.06609
0.385862
-2.73973
-3.50622
6.24595
-4.5833
3.03827
3.15217
5.086
-4.91246
1.40624
-2.39781
-2.51465
2.65985
-4.39547
1.97866
3.19136
4.36297
0.575958
5.90028
6.20848
-8.52807
0.563336
11.2886
-9.56758
2.47805
8.6134
-9.93599
0.373028
-8.73305
0.996938
-5.22148
-5.11088
5.12027
-6.85276
-3.54142
6.16737
0.60974
-6.24962
-0.438173
-6.03706
-2.8491
-6.48061
-3.04979
-6.13542
-8.75334
-1.65402
-7.09932
6.74049
-6.68355
-3.44563
7.41054
1.12589
-7.41869
7.33088
-7.49551
7.17102
0.0950417
3.62087
4.35703
1.88398
-2.38991
4.27388
-5.11352
7.33486
-8.64312
3.52961
4.098
-6.67506
-4.54512
5.03765
4.03411
5.33905
8.93097
-10.4322
1.5012
-10.7336
12.0586
-1.32503
-16.5125
5.77895
-7.58157
2.56034
0.338776
2.62699
0.59255
2.49198
-3.08453
-2.23723
-2.16791
-2.39001
-3.46083
5.85084
1.13663
-3.46727
2.33064
-3.54846
4.68509
-0.138654
-3.32862
5.30175
-2.80977
5.64053
-3.68711
1.95342
3.39074
5.71862
-2.32788
4.39208
-1.74031
1.88349
-4.21137
-1.57734
-2.96494
5.0986
-3.28101
3.66687
-0.320834
3.98771
-4.08026
0.89336
-0.754211
3.43935
3.69549
4.29288
-3.0826
2.93211
-4.67242
-1.27926
-4.09646
-0.905103
-0.289637
-3.7578
4.04744
6.03113
-6.32076
-5.25391
9.56192
-4.30802
7.71694
-5.39834
-2.3186
-4.27053
-4.40026
3.89383
1.93722
9.65416
0.211338
-5.60968
-4.94691
-3.99509
3.19039
2.13987
-1.88409
3.53832
2.09667
-0.431071
0.515151
1.04508
1.83586
-1.32071
0.259105
1.57676
-1.16769
1.88593
0.725863
-1.92658
0.0847039
-1.31165
3.50811
1.0659
-2.02014
0.699431
1.01934
-3.52768
4.93639
-2.59234
-2.34405
5.95573
1.14833
-3.74067
4.26762
-3.8916
2.34144
-3.46451
-1.39923
-5.29083
-3.57563
-2.54789
4.87853
-3.30295
5.42575
1.19925
-5.24888
6.44813
-3.64255
1.70145
-3.08403
3.80989
-1.04254
-2.04148
2.86766
2.75271
-2.98512
-0.00127439
-0.117467
2.3636
-2.48107
-0.553912
-2.57003
-4.5722
4.90285
-2.10657
4.55337
2.16731
-1.91542
6.46879
1.81045
-3.72588
-3.24825
-3.70865
-1.38288
3.15598
-0.593528
-4.24984
-5.4214
4.15849
0.214665
-6.94045
7.74491
-0.804461
-3.96017
-0.65441
4.76026
-5.98224
0.479812
-3.91659
3.82832
4.72692
4.94159
-11.3728
-0.209689
-6.21771
1.13656
-7.35426
5.52701
-3.5759
7.70983
-10.3649
6.91927
-9.23902
6.52499
-0.829273
6.24329
-4.0663
2.76721
-8.4806
-6.87636
5.42702
-2.71089
6.15808
-3.07054
9.22862
-5.73796
5.18019
4.04843
-0.983331
-4.16006
-5.19921
4.21588
-0.0190165
4.11881
4.97665
-2.86826
4.65065
2.2601
-4.65791
-2.13537
-6.49598
1.83807
-3.34381
-1.9178
3.75587
3.1682
3.75425
1.24122
-3.34209
7.18916
-8.17414
-1.8443
-3.26659
5.17389
-0.958012
3.35562
-6.62221
-1.86586
4.84566
-0.806972
-4.03868
0.82678
-4.3682
1.67446
-6.04266
5.1783
-5.61647
2.21717
-9.79874
-5.20152
-5.14629
-2.25578
-5.23974
-7.60716
5.35138
-1.8282
5.50268
-8.56833
7.76136
-3.49029
8.84167
-5.43246
-1.04815
5.84803
1.32299
10.1647
0.177182
-4.7223
-1.8992
3.94461
-2.04541
1.29119
-3.58062
0.36399
2.4816
3.47413
-6.63204
-0.0430188
-4.76532
-3.92518
7.95929
5.63675
11.6679
1.2357
9.14982
-1.19053
10.3855
4.14852
4.38636
-3.02651
4.52771
1.02093
4.55053
-0.874722
2.82814
1.75227
1.77486
0.786657
2.31201
1.38348
3.20537
0.120842
-2.04707
4.63315
-8.62823
-0.976529
-8.0584
1.11554
5.72158
-4.60604
3.08885
-0.948982
1.04344
0.0287005
-1.51881
1.49011
-2.79321
-1.94988
-0.373123
-1.64913
2.34856
1.85898
-1.97544
-0.817772
0.369014
-3.94464
3.0955
-3.09678
-0.344062
6.10407
-2.77939
0.298322
-1.07794
-2.27171
-2.81666
2.73196
6.17669
0.292107
3.11236
5.19496
3.09971
0.23145
3.89337
-5.67754
-3.59559
-5.88722
-0.360218
4.40005
1.71017
7.95315
5.7586
4.80059
-1.82162
-9.99576
6.5563
-2.02859
5.23127
-1.19259
-4.85007
5.01675
2.31811
-5.62649
0.0100211
-4.84005
-6.86864
-0.52463
8.28599
-9.64003
8.59188
5.74278
1.35654
-4.41531
-0.730981
4.24215
0.144205
10.5297
-1.12552
-6.7949
7.92041
-4.59607
3.61954
0.810063
2.72826
2.30017
1.35119
-5.44371
-10.0497
-1.98086
-1.54682
-4.32491
0.505617
-2.36459
6.24711
-2.62757
3.92851
5.29284
6.33628
-2.15106
-4.1697
6.45908
-2.53057
3.80571
)
;

boundaryField
{
    wall-4
    {
        type            calculated;
        value           uniform 0;
    }
    velocity-inlet-5
    {
        type            calculated;
        value           uniform -3.75095;
    }
    velocity-inlet-6
    {
        type            calculated;
        value           uniform -5.62643;
    }
    pressure-outlet-7
    {
        type            calculated;
        value           nonuniform List<scalar> 8(3.14245 7.65133 4.28539 9.78933 7.5247 5.21038 5.89042 9.01936);
    }
    wall-8
    {
        type            calculated;
        value           uniform 0;
    }
    frontAndBackPlanes
    {
        type            empty;
        value           nonuniform List<scalar> 0();
    }
}


// ************************************************************************* //
