/*--------------------------------*- C++ -*----------------------------------*\
  =========                 |
  \\      /  F ield         | OpenFOAM: The Open Source CFD Toolbox
   \\    /   O peration     | Website:  https://openfoam.org
    \\  /    A nd           | Version:  9
     \\/     M anipulation  |
\*---------------------------------------------------------------------------*/
FoamFile
{
    format      ascii;
    class       volVectorField;
    location    "43";
    object      U;
}
// * * * * * * * * * * * * * * * * * * * * * * * * * * * * * * * * * * * * * //

dimensions      [0 1 -1 0 0 0 0];

internalField   nonuniform List<vector> 
918
(
(0.985163 -0.000503065 0)
(0.00501301 2.96625 0)
(0.00737738 0.837506 0)
(0.979703 0.00214803 0)
(-0.0140464 2.03944 3.18565e-20)
(-0.00704417 2.94879 -2.54295e-18)
(0.820431 1.159 4.2694e-19)
(0.257472 0.123667 -1.60976e-20)
(0.999908 -0.000283114 0)
(0.0606051 0.804472 0)
(0.0143407 0.61564 0)
(0.734833 -0.0163155 0)
(0.0110943 2.9304 0)
(0.00233332 2.79503 0)
(-0.0176011 3.15514 7.63681e-19)
(-0.0187856 1.89213 -1.34539e-21)
(0.322858 0.0329235 1.05536e-18)
(0.189693 1.17096 2.9738e-19)
(0.962769 0.00501968 0)
(-0.0110683 0.573267 0)
(0.0518739 0.166101 -7.62636e-19)
(1.00198 -0.00498006 0)
(1.00022 -0.00979089 0)
(0.975727 -0.00643982 0)
(0.584455 -0.0382801 0)
(0.0157008 2.63982 0)
(-0.0149664 2.91005 9.40771e-19)
(0.00696466 0.907905 0)
(0.00622534 1.14258 0)
(0.00331231 0.882967 0)
(-0.0169836 2.61027 0)
(-0.00280511 2.09407 -2.54302e-20)
(-0.00894644 1.86277 0)
(-0.0206127 2.9876 -9.16282e-23)
(-0.0166902 3.00529 1.97639e-18)
(0.00209922 3.00018 0)
(0.870809 -0.00949767 0)
(0.404608 0.938287 1.88778e-19)
(0.798817 1.17676 -4.70614e-19)
(0.944348 1.01489 5.15629e-19)
(0.670478 1.26951 -9.82074e-20)
(0.670383 1.25509 5.67656e-19)
(0.296331 0.199337 1.57046e-20)
(0.271778 0.0955682 0)
(1.1285 0.54786 0)
(0.262692 0.191474 7.17716e-20)
(0.228046 0.123966 -7.44772e-20)
(0.919793 -0.00745047 0)
(1.00027 0.000153894 0)
(0.999909 0.000336258 0)
(1.00363 -0.00776845 0)
(1.00096 -0.000926319 0)
(1.00017 3.04482e-05 0)
(0.0771042 1.81431 -8.2164e-19)
(0.0289828 0.985346 0)
(0.0968155 0.869091 0)
(0.0132604 0.935946 0)
(0.0349751 0.741975 0)
(0.0171751 2.00086 0)
(0.0100351 0.83368 0)
(0.00968014 0.635488 0)
(0.0148857 0.81887 0)
(0.0153853 0.591701 0)
(0.838845 -0.0157781 0)
(0.846137 0.0293776 0)
(0.767729 -0.00486513 0)
(0.816117 0.0390807 0)
(0.703629 -0.0188814 0)
(0.0146878 3.00041 9.43665e-19)
(0.011496 3.008 0)
(0.00611607 3.00277 0)
(0.0135315 2.99734 1.07215e-23)
(0.00797676 2.95848 -1.40252e-18)
(0.0144961 2.98208 0)
(0.010852 2.90358 0)
(0.0244751 2.93088 2.17003e-24)
(0.00458429 2.82497 0)
(0.0303677 2.91632 0)
(-0.00515857 2.74484 0)
(0.308081 3.5516 0)
(-0.131845 3.63297 0)
(0.139476 3.24561 -7.10689e-19)
(-0.0127445 2.9814 0)
(-0.017837 2.00683 0)
(-0.007991 2.16051 1.32693e-21)
(-0.0113878 1.89932 -1.7204e-20)
(0.423717 0.142711 -3.65223e-19)
(0.32618 0.0178443 -3.52543e-19)
(0.402934 0.156278 -1.09975e-18)
(0.306972 0.0474364 -7.2492e-19)
(0.223266 0.963814 0)
(0.271535 1.31693 -3.5731e-19)
(0.368281 1.25311 5.97335e-19)
(0.987472 0.00855375 0)
(0.941918 0.00583751 0)
(1.0003 0.000578246 0)
(1.00286 0.00930572 0)
(1.00302 0.00846122 -2.81703e-18)
(0.991913 0.00970002 2.12734e-18)
(-0.0128694 0.80036 0)
(-0.0026337 0.565479 0)
(-0.0165522 0.960145 0)
(-0.00167988 0.81455 0)
(-0.00874258 0.564636 0)
(0.0839385 0.168605 2.35691e-19)
(0.142308 0.144665 0)
(0.993541 -0.00837965 0)
(0.954427 -0.00652021 0)
(0.763179 0.0463987 0)
(0.698856 0.0569671 0)
(0.664074 -0.0310752 0)
(0.96306 -0.00835328 0)
(0.615573 0.0762676 0)
(0.444813 -0.0108899 1.56541e-18)
(-0.0371312 2.86248 7.09001e-19)
(0.0416845 2.90925 0)
(0.0541014 2.88548 0)
(-0.00469641 2.69964 0)
(-0.0131581 2.98529 8.92574e-19)
(-0.0179159 2.8952 0)
(-0.0153447 2.98809 -2.76375e-18)
(-0.0133508 2.92521 9.45406e-19)
(0.0196338 1.34869 0)
(0.0371275 1.3891 0)
(-0.00754497 2.11696 2.25257e-22)
(-0.00654139 2.07353 0)
(-0.0196994 1.87894 0)
(0.938088 -0.00760468 0)
(0.856565 -0.00975152 0)
(0.86336 0.00617146 0)
(0.949275 -0.00802191 0)
(0.88372 -0.00810442 0)
(0.5168 1.13196 -2.37992e-19)
(0.566195 1.18342 0)
(0.368441 0.882575 3.48918e-20)
(0.310593 0.741532 0)
(0.904236 1.05404 -1.407e-19)
(1.01396 0.856702 2.80054e-19)
(0.361507 1.36607 0)
(0.52613 1.33159 0)
(0.542937 1.28412 0)
(0.116432 0.180995 -3.0504e-19)
(0.329349 0.191821 0)
(0.295486 0.0886075 2.0507e-19)
(0.985489 0.912615 0)
(1.05311 0.763791 0)
(1.07655 0.7039 -2.1218e-19)
(1.1098 0.608192 0)
(1.16139 0.394363 5.50918e-20)
(0.95757 -0.00883496 0)
(0.962407 -0.0100905 0)
(0.901548 -0.00795896 0)
(0.984176 -0.00916819 0)
(0.974657 -0.00936906 0)
(0.937071 -0.00636485 0)
(1.00019 0.00233677 0)
(1.0009 0.00140623 0)
(0.99991 0.000853185 0)
(0.0351352 2.06589 4.53359e-19)
(0.120418 1.75637 0)
(0.0165348 2.18155 7.07566e-19)
(0.0508707 1.86863 -5.97725e-19)
(0.105436 1.17879 -2.43056e-19)
(0.0451703 1.06466 0)
(0.143147 1.02077 0)
(0.00464773 0.895042 0)
(0.0170333 0.691331 0)
(-0.00359328 2.23651 -1.20872e-21)
(0.0257651 2.00726 0)
(-0.0030534 2.24005 -5.38053e-20)
(0.0169037 2.00871 9.45863e-20)
(0.00520995 0.870027 0)
(0.00775399 0.848537 0)
(0.00666453 0.65936 0)
(-0.00197941 0.8019 0)
(0.00195057 0.579535 0)
(0.936028 0.00911449 0)
(0.84663 -0.0152793 0)
(0.925873 -8.27071e-05 0)
(0.840653 -0.0128289 0)
(0.81201 0.000801613 0)
(0.901219 0.0201454 0)
(0.877085 0.024557 0)
(0.788752 -0.00137944 0)
(0.00574693 3.06485 -8.84115e-21)
(0.0166891 3.05783 0)
(0.0147223 2.96905 0)
(0.00865164 2.8762 0)
(0.925219 3.96776 0)
(1.23984 3.30053 9.29811e-19)
(0.0700513 3.07343 0)
(-0.028321 2.90488 0)
(0.0151786 1.41209 0)
(-0.021916 1.71999 0)
(0.00864228 1.56984 0)
(-0.0304763 2.56848 -8.88254e-21)
(-0.0141472 2.25976 0)
(-0.0201879 2.40461 0)
(0.0136631 1.93168 1.67955e-21)
(-0.00564595 2.23533 1.3e-20)
(-0.00453366 2.19256 1.73279e-20)
(0.00217096 1.91022 0)
(0.455054 0.122207 5.50639e-19)
(0.359595 0.00711797 -5.40702e-19)
(0.259862 1.57682 0)
(0.271665 0.73847 -3.1955e-19)
(0.177354 1.66242 -1.07123e-18)
(0.227463 1.20472 1.07383e-18)
(0.902196 0.00647711 0)
(0.967482 0.0110669 0)
(0.974608 0.0107879 0)
(0.923418 0.00648094 0)
(-0.000956838 0.78751 0)
(-0.0162215 0.789745 0)
(-0.00313602 0.566982 0)
(0.225806 0.185542 6.61785e-19)
(0.18896 0.172385 -7.8376e-19)
(0.191276 0.132611 0)
(1.08701 0.0828683 2.93173e-20)
(1.06973 0.0375651 0)
(1.00508 0.038613 0)
(0.901002 -0.00696585 0)
(0.49035 0.103863 0)
(0.537668 0.0867193 -2.50291e-18)
(0.397183 0.00442917 9.37109e-19)
(0.00902453 2.98121 7.55515e-19)
(-0.0324769 2.86609 4.74295e-20)
(0.00363792 3.05021 -1.86867e-20)
(0.0201868 3.04341 6.64634e-19)
(-0.0150267 2.99658 3.10158e-20)
(-0.0129442 2.94947 -1.24785e-22)
(-0.0172528 3.01195 -5.72995e-19)
(0.014826 3.0239 4.14374e-19)
(0.00733927 3.03674 -6.57175e-19)
(0.932874 -0.00169678 0)
(0.938713 -0.0035511 0)
(0.844637 -0.00928073 0)
(0.956688 0.0117864 0)
(0.942962 0.0130383 0)
(0.881742 0.00602757 0)
(0.917852 0.0165546 0)
(0.926395 0.0147741 0)
(0.838566 0.00343657 0)
(0.720138 1.41057 3.16161e-20)
(0.753669 1.51965 0)
(0.186859 0.325266 7.28527e-20)
(0.219963 0.660037 5.88948e-19)
(0.260361 0.72027 -3.42829e-19)
(0.265483 0.533909 6.81607e-19)
(0.337823 0.792289 1.60395e-18)
(0.135084 0.22222 3.77287e-19)
(0.376827 0.175195 7.69065e-19)
(0.356276 0.186668 2.00474e-19)
(0.303163 0.0680153 3.82461e-19)
(1.15187 0.452423 3.2046e-20)
(1.17149 0.249785 2.69107e-20)
(0.00801716 2.23003 2.78044e-19)
(0.0464763 1.93738 0)
(0.965556 0.0284247 0)
(0.939649 0.0132179 0)
(0.864287 -0.018548 0)
(0.0111301 3.07423 0)
(0.01966 2.94407 1.22209e-18)
(0.0164522 2.95627 0)
(0.00638393 2.85064 -1.21214e-18)
(0.0063125 3.09122 2.9705e-19)
(0.00727708 3.08272 0)
(0.786792 1.82221 -1.57939e-19)
(1.24769 2.49992 4.01503e-19)
(0.768945 1.96188 -1.23216e-18)
(0.0200256 2.98103 -6.55794e-19)
(0.0359039 3.00115 0)
(-0.0338672 2.87799 0)
(-0.0055103 2.21718 -1.3595e-20)
(-0.00708584 2.23912 -3.33518e-20)
(0.0134851 1.96809 -8.39097e-21)
(0.276428 1.38473 1.0394e-18)
(0.230453 0.526494 -7.12901e-19)
(0.0637882 1.9902 7.88709e-19)
(0.136182 1.87801 -9.35022e-19)
(0.179854 1.49714 9.21232e-20)
(0.00295386 3.11817 -1.86093e-18)
(0.0171143 3.1179 1.99291e-18)
(-0.00907375 2.98092 8.23891e-19)
(-0.00321089 2.97735 -7.8183e-19)
(-0.0213053 2.88151 -8.39109e-19)
(0.00866905 3.09903 -2.21089e-18)
(0.00207438 3.10676 2.15634e-18)
(0.274198 0.683601 0)
(0.239287 0.673905 -1.21334e-18)
(0.0959952 0.22346 5.38007e-19)
(0.352176 0.918231 1.12067e-18)
(0.19045 0.267166 -1.72781e-18)
(1.16874 0.170026 7.39146e-20)
(1.17243 0.303457 0)
(1.15734 0.119038 -1.98827e-20)
(-0.00228637 2.24826 -1.88114e-21)
(0.00222892 2.23941 0)
(0.0326986 1.97295 0)
(0.340006 1.29286 -3.74049e-19)
(0.370227 1.13049 -8.08419e-19)
(0.204187 0.366447 1.43966e-18)
(1.00587 -0.0108575 0)
(1.00766 -0.0076508 5.19916e-19)
(0.0177616 1.32188 0)
(-0.00589819 1.29297 0)
(1.00222 0.00350291 1.80249e-21)
(1.00366 0.00944806 1.06111e-18)
(-0.0217703 2.55221 1.12529e-20)
(-0.0275541 2.59374 0)
(0.035973 3.17843 4.40311e-19)
(0.394798 3.49051 0)
(1.1595 0.646666 -7.12787e-20)
(1.01293 0.0130698 -2.15367e-21)
(1.02126 -0.0103885 0)
(1.0017 0.000114356 7.62413e-23)
(0.102487 1.35932 0)
(0.145704 2.57376 0)
(0.0182907 1.29896 0)
(0.00170496 2.62762 5.39986e-20)
(-0.0201834 2.58739 2.2946e-20)
(1.00121 0.0287948 2.44924e-21)
(1.0618 0.00357149 0)
(1.09476 0.0232513 0)
(-0.021223 1.75012 0)
(-0.0228549 2.59441 0)
(-0.00259284 1.28716 0)
(0.294927 1.47146 -1.49713e-19)
(1.01127 -0.00964873 0)
(1.00939 -0.0149331 0)
(1.00238 0.00073433 6.64465e-19)
(1.00547 -0.0048233 -7.80861e-19)
(1.00118 -0.000998432 0)
(-0.00303506 1.4678 0)
(0.00970394 1.37025 0)
(0.0156349 1.43155 0)
(-0.00310928 1.27457 0)
(0.000321675 1.25204 0)
(-0.00330974 1.22571 0)
(1.03463 -0.00636976 0)
(1.02039 0.0157072 -9.14653e-22)
(0.800285 1.26545 2.39087e-19)
(1.00222 0.000300961 -6.61475e-19)
(1.00407 0.00524646 7.74647e-19)
(1.00117 0.00206575 0)
(1.01278 0.0102971 6.58701e-19)
(1.00802 0.00829554 -7.97801e-19)
(1.00858 0.0146916 0)
(-0.0272746 2.62188 0)
(-0.0283702 2.6011 -8.26052e-21)
(-0.0271432 2.61445 6.37824e-21)
(1.22843 0.259209 6.34152e-19)
(1.15662 0.0840777 0)
(0.0434126 3.0774 -9.67015e-19)
(0.0654752 2.85425 -7.03315e-20)
(0.141846 3.19286 1.47652e-18)
(0.136962 3.22167 -2.18524e-19)
(0.135229 3.2338 0)
(0.019996 3.13743 2.50626e-19)
(0.0764363 3.16051 9.54212e-19)
(0.0692397 3.18621 -4.72086e-19)
(0.0224483 3.12983 0)
(0.632214 0.285204 0)
(0.56085 0.335164 0)
(1.12551 0.683295 1.73796e-19)
(1.12037 0.808666 -1.71247e-19)
(1.18649 0.569312 0)
(1.21718 0.505171 0)
(1.01614 0.0132937 -1.22808e-18)
(1.01498 0.0142432 1.54152e-18)
(1.02524 -0.00991265 0)
(1.02331 -0.0118903 0)
(1.00644 0.00256468 0)
(1.01041 0.00369543 0)
(1.00459 0.00182252 0)
(1.00979 0.00618979 0)
(1.00786 0.00597471 0)
(1.0045 0.00466131 0)
(0.0907113 1.35622 0)
(0.0849526 1.32712 0)
(0.122707 1.39297 0)
(0.136993 1.40376 0)
(0.145827 2.59812 0)
(0.185908 2.66564 -4.44405e-19)
(0.101454 2.65452 0)
(0.0870272 2.65794 2.18859e-19)
(0.0413414 2.68061 -1.86993e-19)
(0.0219561 1.30932 0)
(0.0233651 1.24016 0)
(0.0259255 1.32404 0)
(0.0274776 1.26556 0)
(0.00478142 1.98063 -1.9572e-20)
(-0.018906 2.61504 5.30906e-21)
(-0.00662882 2.66997 4.29793e-20)
(-0.0169946 2.69016 0)
(-0.0229895 2.62217 -5.16729e-20)
(-0.023092 2.6171 -1.55736e-20)
(0.0145231 1.97988 1.75166e-20)
(-0.0052375 2.40151 -7.12461e-21)
(-0.0112101 2.42248 -4.87436e-20)
(1.01115 0.0365564 1.25188e-18)
(1.00666 0.0161788 -1.54616e-18)
(1.00242 0.0434367 -1.2525e-18)
(0.980307 0.022483 1.59641e-18)
(1.06308 0.0074294 0)
(1.04853 -0.00863935 0)
(1.09226 0.0330726 0)
(1.07273 0.0116844 0)
(1.07054 -0.000278007 0)
(1.13731 0.079814 0)
(1.10889 0.0423342 0)
(1.11195 0.0304038 0)
(-0.0238947 2.44476 -7.55917e-22)
(-0.0167066 2.01556 0)
(-0.0136147 2.22584 0)
(-0.0237763 2.61466 -2.44119e-21)
(-0.0222981 2.62334 -2.41546e-22)
(0.00456988 1.57051 -1.16395e-20)
(0.00438045 1.49855 1.17968e-20)
(-0.00696314 1.38297 0)
(-0.00686131 1.39073 0)
(-0.00751995 1.38726 0)
(0.000480451 1.28913 0)
(0.00785808 1.23234 0)
(0.377672 1.48681 2.3976e-19)
(0.417759 1.49059 1.33442e-19)
(0.59701 2.44767 -2.42862e-19)
(0.401162 2.54187 7.16713e-19)
(0.350272 2.06601 7.71509e-20)
(1.02097 -0.00819328 0)
(1.01546 -0.00979161 0)
(1.01489 -0.0155275 0)
(1.00745 -0.0011719 0)
(1.00494 -0.000944591 0)
(1.00776 -0.00475669 0)
(1.00924 -0.00370455 0)
(1.01417 -0.00447243 0)
(1.02112 0.0161169 1.2025e-18)
(1.01797 0.0157149 -1.54094e-18)
(1.02155 0.0180726 -1.21108e-18)
(1.01941 0.0167482 1.51541e-18)
(0.766128 1.31477 0)
(0.702321 1.36639 2.2177e-19)
(0.876412 1.21184 7.58669e-20)
(0.919565 1.16251 -1.00896e-19)
(1.15769 2.60831 3.06719e-19)
(0.800406 0.113933 6.10739e-19)
(1.15987 0.104894 0)
(1.20589 0.188875 -5.09603e-19)
(1.19002 0.151033 -2.15408e-20)
(1.00438 0.148643 0)
(0.135181 2.96025 5.68105e-19)
(0.112343 2.86603 -1.2262e-18)
(0.0224242 2.37355 8.26178e-19)
(0.0905599 -0.0383836 -3.68736e-19)
(0.339679 3.41977 -2.00453e-19)
(0.194123 3.31249 0)
(0.236981 3.35435 2.61058e-19)
(0.244505 3.03359 -1.86897e-18)
(0.339193 3.19282 0)
(0.00573773 3.1211 4.84801e-20)
(0.0160328 3.12978 -5.70536e-19)
(0.0141285 3.12582 8.39711e-19)
(0.0352328 3.14009 0)
(0.0337587 3.15049 0)
(1.21609 2.60725 0)
(0.543124 0.832148 -5.43411e-19)
(1.04334 0.985382 1.19575e-20)
(0.978486 1.0654 0)
(0.832919 0.969201 -1.20209e-19)
(1.06903 0.878353 2.85783e-20)
(0.36163 0.383272 -9.49238e-19)
(0.680725 0.313449 -2.10673e-20)
(0.638079 0.224684 4.36038e-19)
(0.58195 0.368477 3.2224e-20)
(0.494411 0.334381 -1.29747e-18)
(0.652738 0.32828 0)
(0.702717 0.417178 7.4083e-19)
(0.710615 0.418348 0)
(0.61687 0.356497 0)
(0.577008 0.27913 0)
(0.806973 0.613307 4.38274e-19)
(1.22869 0.281321 -5.35172e-19)
(1.22702 0.416357 0)
(1.23584 0.357226 0)
(0.731133 0.186255 6.46854e-19)
(0.854012 0.535619 -4.0259e-19)
(0.74921 0.506581 7.13723e-19)
(0.951963 0.426334 -7.84402e-19)
(1.01963 0.0147593 8.265e-19)
(1.0178 0.0142296 -8.31274e-19)
(1.01594 0.0155107 0)
(1.03607 -0.00591642 0)
(1.02966 -0.00856903 -7.78988e-19)
(1.02768 -0.012102 7.71273e-19)
(1.025 0.00998481 0)
(1.02363 0.0135852 0)
(1.01142 0.00407558 0)
(1.01427 0.00902096 0)
(1.01514 0.00398253 0)
(1.01424 0.00277518 0)
(0.0612213 1.34091 0)
(0.0622407 1.29731 0)
(0.143584 1.36723 -1.66792e-20)
(0.269852 1.46841 7.60512e-20)
(0.163827 1.44022 1.57643e-19)
(0.195343 1.44722 -2.58618e-19)
(0.165077 1.39083 0)
(0.129823 1.59435 -9.68861e-20)
(0.114628 1.5671 0)
(0.347835 2.01828 -1.1215e-19)
(0.344759 2.34996 6.4307e-19)
(0.18622 1.45127 8.44895e-20)
(0.261846 1.38125 1.39768e-20)
(0.196479 1.37088 -1.13122e-20)
(0.271653 1.32302 -1.22352e-19)
(0.239168 1.57699 0)
(0.260354 1.61642 1.27803e-19)
(0.0331616 2.26397 -4.17381e-20)
(0.0441011 2.66925 0)
(0.0665784 2.40095 1.62287e-19)
(0.0623893 2.42158 0)
(0.0708312 2.67087 -2.42369e-19)
(0.051202 2.69953 0)
(0.030605 1.40941 -7.1571e-23)
(0.0372608 1.46234 0)
(0.0302936 1.37978 0)
(0.0250689 1.38136 8.07508e-23)
(0.00210142 2.65513 -1.72596e-20)
(0.0309105 2.69831 2.14298e-19)
(0.0126957 2.72454 1.49987e-21)
(0.00705161 1.8276 1.72193e-20)
(-0.000677364 1.67506 7.24585e-21)
(0.018635 1.29254 0)
(0.0240678 1.22464 0)
(0.0483884 1.57346 1.20127e-20)
(0.0296733 1.44638 6.83213e-21)
(0.0385554 1.51166 -8.33318e-21)
(0.0406962 1.59824 0)
(-0.0304728 2.27831 5.59345e-20)
(-0.0298008 2.56137 -2.19137e-20)
(-0.0184802 2.45675 -1.07933e-21)
(-0.00133488 1.84454 -2.08619e-20)
(-0.0248637 2.50698 -6.12156e-21)
(-0.0201242 2.44806 3.47575e-20)
(1.01949 0.0208425 -8.21502e-19)
(1.01561 0.0265054 8.25399e-19)
(1.01475 0.0162667 0)
(1.01209 0.0697173 1.15938e-18)
(0.990383 0.0585702 -1.30203e-18)
(0.949372 0.0429817 1.45813e-18)
(1.01376 0.106813 -1.54616e-19)
(1.04234 -0.00596644 0)
(1.05047 -0.00178067 7.44299e-19)
(1.03865 -0.01004 -7.45784e-19)
(1.06967 0.0413087 -4.43594e-20)
(1.06355 0.0224446 3.81793e-19)
(1.06241 0.0541368 0)
(1.05294 0.0481387 -1.37324e-19)
(1.03246 0.0410701 0)
(1.02597 0.03733 0)
(1.02783 0.0129482 0)
(1.02421 0.0157408 0)
(1.03992 0.0312737 2.82662e-19)
(1.03913 0.0261349 -6.2416e-19)
(1.05047 0.0325906 -2.99784e-19)
(1.04844 0.032413 -3.29895e-19)
(1.07011 0.0629818 6.45738e-19)
(1.09476 0.0504839 0)
(1.10282 0.0942787 0)
(-0.0240984 2.2844 3.37469e-20)
(-0.0161268 2.03045 -1.43282e-21)
(-0.0172353 2.03297 0)
(-0.0310588 2.45492 -3.36001e-20)
(-0.025212 2.41105 2.16969e-21)
(-0.0306809 2.48382 1.99628e-21)
(-0.0217314 2.63109 1.35769e-20)
(-0.0228942 2.57346 -1.43665e-21)
(-0.0214342 2.52354 4.21243e-21)
(-0.0182265 2.62616 -1.50184e-21)
(-0.0230808 2.62714 3.25483e-21)
(-0.00265003 1.48348 -6.38069e-22)
(0.00654693 1.61921 -8.58939e-21)
(0.364377 1.42987 -9.77417e-20)
(0.364016 1.36883 5.33109e-20)
(0.647038 1.41513 -2.14486e-19)
(0.51571 1.48132 -1.30392e-19)
(0.570372 1.4503 0)
(0.592643 2.42393 2.14084e-19)
(0.660584 2.41704 3.42358e-19)
(0.410182 2.51585 8.46119e-20)
(0.402755 2.54375 -6.42179e-19)
(0.511126 2.48878 6.28574e-19)
(0.551994 2.46149 0)
(0.488551 2.51635 -5.71166e-19)
(0.24794 2.59046 1.19124e-18)
(0.353322 2.56417 -8.13433e-20)
(0.283892 2.65195 -1.63559e-18)
(0.944614 2.38107 7.35496e-19)
(0.836777 2.38377 0)
(1.01101 0.000442968 2.69573e-20)
(1.01525 -0.00548668 -2.18834e-20)
(1.01764 -0.00362444 -3.99778e-19)
(1.01494 -0.000951375 4.01672e-19)
(1.01236 0.00106761 0)
(0.635117 1.2843 0)
(0.656604 1.1817 0)
(0.76367 1.09271 0)
(0.649476 1.14491 0)
(1.18705 2.62271 5.85043e-20)
(1.0754 2.36826 0)
(0.839281 2.18634 3.91744e-21)
(0.825744 2.44797 0)
(0.922965 2.53931 -4.34023e-19)
(0.958472 2.49507 2.88881e-19)
(0.815004 0.170273 0)
(0.77656 0.14182 1.66371e-19)
(0.921957 0.143114 9.68585e-19)
(0.837917 0.145585 -3.61861e-19)
(0.806048 0.0833466 -1.11618e-18)
(1.07764 0.231545 -9.35508e-19)
(0.992143 0.289091 -1.57846e-20)
(0.926084 0.289511 8.95344e-19)
(1.00188 0.220106 7.48612e-19)
(0.952711 0.186803 -1.28805e-18)
(0.917273 0.188275 1.60995e-19)
(0.953773 0.252228 -3.44125e-19)
(0.931489 0.214748 0)
(0.992061 0.182254 6.35887e-19)
(1.04323 0.184666 0)
(1.03988 0.210654 0)
(1.10559 0.116946 3.00714e-19)
(1.0667 0.173566 -1.42148e-20)
(1.07237 0.232613 -1.64462e-19)
(1.10405 0.20051 0)
(1.02268 0.0450331 6.37545e-19)
(1.0407 0.0575983 7.95235e-19)
(1.03403 0.0438629 -6.32344e-19)
(1.04321 0.0642498 -5.32855e-19)
(1.01925 0.0721453 -8.15401e-19)
(0.987804 0.15549 0)
(0.999018 0.103126 0)
(0.966418 0.0653726 -5.19443e-19)
(0.914737 0.0884526 2.04002e-19)
(1.0384 0.10251 7.36833e-19)
(1.06785 0.119966 -8.68257e-19)
(1.07311 0.152559 7.75693e-19)
(1.02929 0.141282 0)
(1.07398 0.106885 0)
(1.05478 0.0894485 -3.54805e-19)
(1.04466 0.0939137 -6.03309e-19)
(0.581218 1.07622 1.44118e-19)
(0.612948 1.40761 -4.57796e-20)
(1.15757 2.73946 -2.33802e-19)
(1.22405 3.08051 2.79797e-21)
(1.24963 2.72175 -1.46399e-19)
(1.27952 2.70549 -2.35132e-20)
(1.20763 2.34586 -1.02738e-20)
(1.21133 2.98459 -9.83418e-20)
(1.23074 2.94989 2.42513e-19)
(1.21501 3.23394 -1.4159e-19)
(1.37569 2.96583 1.95801e-19)
(1.3661 2.88399 0)
(0.549652 0.840196 -5.0886e-20)
(0.133687 1.25025 5.84239e-19)
(0.535496 0.435213 6.1344e-19)
(0.374143 0.185653 6.76375e-19)
(0.522128 0.368813 7.33028e-19)
(0.546853 0.46836 -1.17894e-18)
(0.548291 0.469371 9.62689e-19)
(0.493986 0.38574 -3.70544e-19)
(0.410788 0.317655 8.39553e-19)
(0.736242 0.249293 -3.70385e-19)
(0.698975 0.276405 0)
(0.675473 0.197799 8.85754e-21)
(0.732981 0.506193 3.8983e-19)
(0.70537 0.475899 -1.42154e-18)
(0.61646 0.466553 1.47758e-20)
(0.625102 0.45315 0)
(0.680676 0.72855 4.11077e-19)
(0.836045 0.773041 4.19908e-19)
(0.758835 0.85571 -4.90611e-19)
(0.880268 0.808586 -1.67246e-19)
(0.909376 0.851657 -4.19838e-20)
(0.917125 0.852062 4.2997e-20)
(0.851189 0.644965 -7.27247e-19)
(0.931373 0.702374 1.55383e-19)
(0.986624 0.716111 0)
(0.978024 0.691935 -2.12767e-19)
(1.02188 0.326408 2.26302e-19)
(1.14331 0.296145 3.11649e-19)
(1.06455 0.266407 3.82668e-19)
(1.01021 0.358263 -4.54916e-19)
(1.05838 0.422201 0)
(1.11238 0.407949 0)
(0.916405 0.358839 6.16888e-21)
(0.840583 0.29102 0)
(0.878311 0.28677 4.2142e-19)
(0.907387 0.295773 -4.67921e-21)
(0.945676 0.428732 2.18725e-18)
(0.904331 0.487436 5.65954e-19)
(0.907389 0.451541 -6.00666e-19)
(0.824251 0.435279 6.43351e-19)
(0.807515 0.429177 3.85947e-19)
(0.777315 0.411717 -3.79329e-19)
(1.02717 -0.000509945 6.66003e-19)
(1.02 -0.000129213 0)
(1.01848 0.000799998 4.34091e-19)
(1.0216 -0.00176572 -9.83414e-19)
(1.0223 0.00424817 4.77737e-19)
(1.02041 0.0111619 -1.00046e-18)
(1.02136 0.010559 0)
(1.02066 0.0108396 -2.08448e-19)
(1.01599 0.00766224 5.22914e-19)
(1.01671 0.0104213 -2.60902e-19)
(1.01742 0.00976968 1.92159e-19)
(0.0280139 1.31555 0)
(0.032878 1.35356 0)
(0.0425865 1.31835 0)
(0.0417634 1.27534 0)
(0.0706372 1.38002 8.79946e-21)
(0.0772291 1.35177 4.4732e-21)
(0.110829 1.51087 -2.81237e-20)
(0.0939306 1.36162 7.78163e-21)
(0.0341163 1.45155 -2.98689e-20)
(0.0379439 1.44459 2.33445e-20)
(0.0617323 1.36412 -7.90417e-21)
(0.0540193 1.36586 5.42515e-21)
(0.0460607 1.34122 6.28149e-22)
(0.0379746 1.36339 -2.51719e-21)
(0.107515 2.37169 -1.79509e-19)
(0.0964785 2.41884 0)
(0.170637 2.04759 1.18437e-19)
(0.109479 1.71033 5.17605e-20)
(0.229568 2.04448 -9.69769e-20)
(0.204513 2.43711 0)
(0.264846 2.38856 -6.24984e-19)
(0.302611 2.38664 4.43369e-19)
(0.229747 2.00436 -2.69949e-19)
(0.153644 2.16487 1.78231e-19)
(0.143856 2.27635 0)
(0.0202564 1.87328 -3.79909e-20)
(0.00022768 2.39702 -8.66582e-20)
(0.00616099 2.15008 0)
(0.013047 2.45853 -1.39789e-20)
(0.0285475 2.30285 3.07086e-20)
(0.023888 1.39243 -1.53311e-21)
(0.0218757 1.3795 2.92067e-20)
(0.0204943 1.38319 -1.28921e-20)
(0.0250352 1.38217 -4.33369e-21)
(0.0298277 1.41343 0)
(0.0175628 1.36418 0)
(0.005949 1.28669 -1.664e-20)
(0.012485 1.3541 4.02548e-21)
(0.0141172 1.3557 0)
(0.0162866 1.28267 -1.23265e-20)
(0.0222403 1.21498 2.60509e-20)
(1.04039 0.0113001 0)
(1.04644 0.00757031 -6.98281e-20)
(1.03855 0.0209337 -5.03264e-19)
(1.04802 0.0198191 0)
(1.05186 0.0196606 0)
(1.03628 0.0113381 -6.67198e-21)
(1.03093 0.011198 8.07976e-19)
(1.03178 0.0161426 9.79885e-19)
(1.0258 0.020064 0)
(1.02299 0.0204518 0)
(1.03514 0.0246273 5.01998e-19)
(1.02611 0.0259877 0)
(1.02436 0.0260485 0)
(-0.0165468 2.0241 0)
(0.00632428 1.6511 -5.36029e-21)
(-0.00507033 1.7591 -2.18812e-20)
(0.00539188 1.36438 0)
(-0.00970634 1.54548 -2.34509e-21)
(0.00579976 1.44763 3.00539e-21)
(0.00356467 1.37295 0)
(0.389978 1.66741 0)
(0.366414 1.2974 -9.92272e-20)
(0.301231 1.34146 0)
(0.420144 1.29622 4.3741e-20)
(0.466369 1.45699 0)
(0.447192 1.40168 7.61443e-21)
(1.03598 2.68711 -1.56588e-20)
(0.965868 2.41146 -9.2457e-19)
(0.916377 2.19305 1.05391e-18)
(0.850315 2.37614 2.45254e-19)
(0.847729 2.49787 0)
(0.917613 2.49413 0)
(0.927946 2.3745 0)
(0.906844 2.36126 -9.53273e-19)
(0.688998 2.46549 -4.06959e-19)
(0.80134 2.45564 -1.00041e-19)
(0.811942 2.42943 7.62286e-20)
(0.694986 2.39198 0)
(0.799893 2.38803 0)
(0.758495 2.40029 -3.72438e-19)
(0.769216 2.48751 0)
(0.617129 1.09925 0)
(0.486055 0.926113 -5.13533e-19)
(0.556779 0.960818 -3.26487e-20)
(0.522927 1.05558 0)
(0.524005 1.00474 7.71003e-19)
(0.781606 0.880526 -1.38168e-19)
(0.788826 1.01757 0)
(0.763415 0.978571 2.01251e-19)
(0.649523 1.03563 0)
(0.654277 0.942972 0)
(1.16543 2.76152 -2.38826e-19)
(1.14321 2.82493 -1.02269e-19)
(0.932776 2.3446 1.08301e-19)
(0.900356 2.32293 -8.59243e-20)
(1.13037 2.73489 0)
(1.08367 2.705 1.03438e-19)
(1.09034 2.48765 -3.23799e-19)
(0.984389 2.23653 -3.06629e-20)
(0.497171 1.35247 0)
(0.511182 1.0758 -1.27104e-19)
(0.565888 1.16764 0)
(0.857961 0.227242 0)
(0.784867 0.180913 0)
(0.725159 0.142211 0)
(0.85365 0.232381 -6.63315e-19)
(0.756714 0.217213 3.88653e-19)
(0.930333 0.0749435 -4.21363e-19)
(0.945912 0.121082 0)
(0.925385 0.134816 1.80623e-19)
(0.86442 0.109952 7.25062e-19)
(0.83376 0.0674764 -4.53666e-19)
(1.16181 3.35918 -7.16982e-19)
(1.20981 3.27849 0)
(1.15994 3.38734 -1.47898e-18)
(0.647331 3.54816 1.2563e-18)
(0.871986 3.11559 6.51721e-20)
(0.519887 0.845174 6.13995e-19)
(0.434172 0.841404 0)
(0.334308 0.472392 -1.55291e-19)
(0.456277 0.675556 8.81605e-19)
(0.538481 0.44009 -2.12323e-19)
(0.510489 0.500108 2.43463e-19)
(0.66424 0.524624 5.25875e-19)
(0.694936 0.548622 0)
(0.648356 0.605021 0)
(0.605249 0.545883 0)
(0.993598 0.600869 1.03457e-19)
(0.908937 0.536713 -5.50682e-19)
(0.935086 0.571235 4.19511e-19)
(0.969013 0.507167 -4.25572e-19)
(1.07362 0.479674 0)
(1.08068 0.569592 -1.06651e-19)
(0.847324 0.388043 -8.80159e-19)
(0.850201 0.376579 -1.08778e-18)
(0.795284 0.378502 6.86396e-19)
(0.793126 0.349342 -7.0178e-19)
(0.842502 0.310268 -5.48573e-19)
(0.793666 0.308147 6.7328e-19)
(1.02669 0.00570405 -5.10071e-19)
(1.02641 0.00593239 1.03936e-18)
(1.02933 -0.000117221 6.45726e-19)
(1.03339 0.000766592 -7.77752e-19)
(1.03356 0.0086441 0)
(1.03007 0.0092498 -1.26476e-18)
(0.0648479 1.64468 2.81645e-20)
(0.045902 1.57558 0)
(0.0865821 1.69569 1.74493e-19)
(0.0959968 1.677 -1.54983e-19)
(0.0883819 1.52851 5.2756e-20)
(0.0870649 1.51151 0)
(0.0163681 1.6745 0)
(0.00410554 1.47723 -1.58964e-21)
(0.00517678 1.42083 1.43041e-21)
(-0.00225811 1.53876 4.97318e-21)
(0.00365425 1.88182 -3.00433e-21)
(-0.00864951 1.93475 4.95485e-21)
(0.496413 1.37103 -2.9071e-19)
(0.489811 1.37446 3.18807e-19)
(0.444861 1.29337 -4.77576e-20)
(0.434353 1.29203 8.77883e-21)
(0.626997 1.29919 0)
(0.544124 1.38739 8.44709e-20)
(0.559636 1.39558 -8.22284e-20)
(0.455543 1.27947 4.64411e-20)
(0.510518 1.23441 0)
(0.563097 1.20131 0)
(0.655517 2.42431 5.97962e-19)
(0.669819 2.46151 1.29229e-18)
(0.715851 2.47337 -8.90247e-19)
(0.61465 2.4484 -2.08749e-19)
(0.560254 2.54092 2.91047e-19)
(0.509575 2.51424 -7.75668e-19)
(0.976676 2.38089 -5.89892e-19)
(1.01283 2.39439 0)
(0.922992 2.17122 -6.83125e-19)
(1.05384 2.68433 0)
(1.05607 2.67112 0)
(0.611622 2.27203 -1.22282e-19)
(1.04277 3.16218 1.30763e-19)
(0.913754 3.03215 -3.41042e-20)
(0.279577 0.902523 0)
(0.317605 0.760168 -3.24094e-19)
(0.479593 0.717491 -3.26767e-19)
(0.388795 2.01855 0)
(0.466807 2.78455 -4.53673e-20)
(0.42277 2.54822 0)
(0.696761 0.675948 -8.71531e-19)
(0.779873 0.677744 1.18708e-18)
(0.800165 0.620382 -1.17521e-18)
(0.676488 0.638543 -1.12728e-19)
(0.732017 0.591329 -4.66635e-19)
(1.00519 2.76487 -9.94337e-20)
(1.04279 2.82218 -1.71654e-19)
(0.640052 2.14682 6.77694e-19)
(0.596832 1.71337 -4.82492e-19)
(0.700434 1.9066 -4.13283e-19)
(0.99089 2.44837 -1.14614e-19)
(0.995932 2.44165 3.05071e-19)
(0.66093 1.84461 2.86201e-20)
(0.452749 1.33409 1.4866e-19)
)
;

boundaryField
{
    wall-4
    {
        type            noSlip;
    }
    velocity-inlet-5
    {
        type            fixedValue;
        value           uniform (1 0 0);
    }
    velocity-inlet-6
    {
        type            fixedValue;
        value           uniform (0 3 0);
    }
    pressure-outlet-7
    {
        type            zeroGradient;
    }
    wall-8
    {
        type            noSlip;
    }
    frontAndBackPlanes
    {
        type            empty;
    }
}


// ************************************************************************* //
