/*--------------------------------*- C++ -*----------------------------------*\
  =========                 |
  \\      /  F ield         | OpenFOAM: The Open Source CFD Toolbox
   \\    /   O peration     | Website:  https://openfoam.org
    \\  /    A nd           | Version:  9
     \\/     M anipulation  |
\*---------------------------------------------------------------------------*/
FoamFile
{
    format      ascii;
    class       volScalarField;
    location    "27";
    object      p;
}
// * * * * * * * * * * * * * * * * * * * * * * * * * * * * * * * * * * * * * //

dimensions      [0 2 -2 0 0 0 0];

internalField   nonuniform List<scalar> 
918
(
0.270616
0.933642
0.0375203
0.269899
-0.00419305
0.900717
-0.789218
0.445512
0.250691
-0.368847
-0.387658
0.24234
0.761277
0.528134
-1.41486
-0.255337
0.398652
-0.667994
0.249693
-0.116229
0.490135
0.257338
0.260381
0.250979
0.311812
0.511489
0.642069
0.000412828
0.0253366
0.00426726
-0.024913
-0.0748525
-0.102672
0.784342
0.835455
0.858134
0.219482
0.0474123
-0.645623
-0.718832
-0.707048
-0.835747
0.437434
0.441655
-0.452931
0.445617
0.457395
0.238078
0.250041
0.25098
0.252091
0.251005
0.252417
0.144861
-0.373761
-0.406038
-0.350204
-0.341133
-0.183881
-0.373485
-0.353436
-0.399067
-0.388661
0.172646
0.239362
0.236861
0.247322
0.254526
0.873193
0.845082
0.871231
0.784987
0.801463
0.739219
0.711819
0.548219
0.569927
0.514634
0.50339
-1.85611
-2.82534
-0.815465
-0.55938
-0.0128573
-0.26853
-0.27685
0.388367
0.391022
0.398397
0.410802
0.794107
-0.662888
-0.80267
0.249757
0.248547
0.257057
0.257738
0.253745
0.252838
-0.166877
-0.22282
-0.0324419
-0.0875887
-0.0722145
0.476184
0.472653
0.251535
0.24857
0.262155
0.284229
0.274432
0.0121152
0.31878
0.336868
0.329118
0.499123
0.494475
0.502675
0.615466
0.579322
0.679261
0.702371
0.00976167
0.000777208
-0.242789
-0.141182
-0.181717
0.215528
0.208438
0.233743
0.222754
0.225109
-0.0370493
-0.17347
0.133435
0.157042
-0.554894
-0.620129
-0.726572
-0.740639
-0.849138
0.294924
0.428467
0.429335
-0.471012
-0.389643
-0.530833
-0.315958
-0.380976
0.228527
0.235404
0.230451
0.245777
0.240316
0.242251
0.254318
0.25141
0.252945
0.206797
0.329493
0.0734277
0.0410864
-0.524769
-0.42525
-0.513552
-0.328886
-0.333918
-0.188858
-0.158624
-0.196933
-0.184802
-0.33143
-0.337022
-0.329479
-0.380967
-0.356623
0.165585
0.154991
0.184006
0.191114
0.231194
0.232182
0.234575
0.233182
0.662456
0.684807
0.692459
0.666232
-3.83362
-6.65234
-0.227867
-0.0877067
-0.00807752
-0.00555076
-0.00118731
-0.00693031
-0.00791217
-0.0231348
-0.199738
-0.210448
-0.247091
-0.233841
0.373195
0.374091
0.710701
0.704281
0.696472
0.649603
0.237817
0.239985
0.245539
0.241391
-0.340333
-0.27527
-0.300953
0.454693
0.464825
0.464196
-0.0235133
-0.108022
0.0582062
0.0853004
0.359231
0.34238
0.358058
0.390756
0.42857
0.709873
0.728254
0.726367
0.734907
0.778935
0.795332
0.760742
0.196382
0.205563
0.200701
0.236993
0.234646
0.235604
0.230703
0.232358
0.23
-0.326934
-0.713877
0.215924
0.233998
0.204151
0.218121
0.370227
0.442221
0.408856
0.418565
0.420216
-0.24904
-0.3096
0.00268685
-0.0331839
0.110204
0.143711
0.125161
0.633667
0.594209
0.644223
0.61746
0.578868
0.604255
-0.665928
-2.18992
-1.29582
0.270724
0.0798246
0.169432
-0.197056
-0.183611
-0.179298
0.692306
0.77227
0.385454
0.545447
0.558175
0.467632
0.497933
0.552901
0.479356
0.513162
0.547574
0.527915
0.254892
0.227443
0.222619
0.512384
0.568555
-0.135627
-0.188252
-0.235964
-0.149226
-0.0874195
-0.11515
0.740001
0.628972
0.704304
0.248291
0.248976
-0.0131509
-0.0431988
0.25308
0.253128
-0.0288139
-0.0888913
0.15131
-1.12411
-0.14787
0.241474
0.23193
0.24866
-0.355296
0.102418
-0.361679
-0.183493
-0.241517
0.240232
0.181898
0.145248
-0.0153383
-0.277933
-0.186978
-0.481646
0.245947
0.244281
0.248151
0.249197
0.249825
-0.0400199
-0.0366873
-0.0216514
-0.167522
-0.0965471
-0.102037
0.213772
0.23024
-0.441863
0.248338
0.250425
0.250285
0.243362
0.24911
0.247275
-0.176325
-0.122991
-0.237243
-0.0374742
0.0790306
0.401321
0.499836
0.364137
0.136412
-0.104075
0.299571
0.366205
0.267156
0.428021
0.41955
0.435393
-0.0864303
-0.232947
-0.0784527
-0.132921
0.239407
0.238033
0.230183
0.227364
0.243575
0.241633
0.246273
0.243153
0.246117
0.247517
-0.3151
-0.338921
-0.353864
-0.415173
0.0608148
0.317971
-0.0047018
0.0325506
-0.120847
-0.398027
-0.379186
-0.346386
-0.334368
-0.283608
-0.251383
-0.210937
-0.192635
-0.271063
-0.250099
-0.344896
-0.302279
-0.319673
0.234154
0.233202
0.239377
0.24626
0.1911
0.194861
0.16215
0.181041
0.166299
0.111913
0.145058
0.120427
-0.0222269
-0.0209937
-0.0110702
-0.281009
-0.31631
-0.143004
-0.0834178
-0.117311
-0.0807215
-0.0900255
-0.283193
-0.294876
-0.442955
-0.559188
0.695981
0.641907
-0.16769
0.235201
0.241569
0.238406
0.243066
0.246201
0.247114
0.244847
0.241431
0.230954
0.232795
0.228949
0.229332
-0.382976
-0.517783
-0.343012
-0.409531
-0.146041
0.350392
0.0920654
0.0325453
0.0278879
0.244298
0.643938
0.443487
0.44823
0.473119
-0.625354
-0.226775
-0.557685
0.0623445
-0.114774
0.39861
0.449847
0.472768
0.419445
0.370217
-0.399895
0.258485
-0.328283
-0.285104
-0.095541
-0.19801
0.442802
0.402979
0.407662
0.422661
0.441827
0.406893
0.385364
0.382509
0.419088
0.424202
0.21712
-0.00529503
-0.0499428
-0.0874083
0.384701
0.258542
0.315256
0.230854
0.234181
0.237087
0.235584
0.2185
0.225784
0.221583
0.226859
0.230047
0.239342
0.2397
0.235033
0.237447
-0.315392
-0.323288
-0.296727
-0.40442
-0.39696
-0.443068
-0.338907
-0.20395
-0.240031
-0.0472152
0.06276
-0.228046
-0.344353
-0.314534
-0.285987
-0.102306
-0.0769664
-0.185768
-0.0958023
-0.103678
-0.115735
-0.0132997
-0.0096982
-0.346129
-0.304126
-0.303609
-0.342743
-0.224941
-0.166496
-0.155209
-0.428957
-0.41048
-0.393863
-0.381082
-0.277517
-0.288034
-0.290186
-0.236672
-0.243734
-0.255184
-0.303033
-0.449479
-0.33878
-0.355785
0.229232
0.230679
0.230816
0.240291
0.25302
0.267926
0.233123
0.211805
0.203179
0.206197
0.181393
0.191099
0.18612
0.199176
0.21853
0.225668
0.225156
0.227408
0.211193
0.213112
0.200493
0.20339
0.181096
0.164223
0.153334
-0.145656
-0.0864382
-0.13246
-0.11448
-0.0503298
-0.0763336
-0.306818
-0.305731
-0.321489
-0.312316
-0.302684
-0.19776
-0.203548
-0.356056
-0.281474
-0.466537
-0.498386
-0.568055
0.605587
0.714739
0.533408
0.317455
0.320841
0.550326
0.64332
0.28252
0.456224
0.484904
0.268249
0.531586
0.240023
0.239592
0.237188
0.236624
0.238082
-0.299279
-0.199157
-0.182998
-0.134779
-0.0155757
0.100465
0.00475857
-0.118411
0.0196284
0.0284221
0.345464
0.36198
0.306402
0.331581
0.329986
0.157109
0.233113
0.288017
0.242849
0.286217
0.308159
0.269403
0.299202
0.247258
0.205295
0.20407
0.149611
0.170632
0.148239
0.130057
0.229675
0.208398
0.218237
0.209511
0.229182
0.256965
0.25159
0.278444
0.290382
0.214691
0.176083
0.184966
0.2123
0.174573
0.187787
0.202446
-0.0743284
-0.174478
-0.0856517
-0.377449
-0.291275
-0.307313
-0.353014
-0.312053
-0.025357
-0.725966
-0.697299
-1.33355
0.197591
0.671654
0.399268
0.370985
0.438138
0.415706
0.41856
0.444895
0.451441
0.373831
0.392153
0.395557
0.346616
0.372414
0.396944
0.394368
0.227786
0.10937
0.100652
0.0617847
-0.0607344
-0.0295127
0.174841
0.096833
0.0238924
0.02866
0.192549
0.0835412
0.148756
0.186809
0.11965
0.076034
0.27385
0.341735
0.333404
0.307211
0.222628
0.234833
0.261112
0.297342
0.323754
0.358983
0.226907
0.232484
0.233691
0.231144
0.228605
0.231351
0.231405
0.233939
0.234804
0.237797
0.236757
-0.31414
-0.292195
-0.323448
-0.335375
-0.289385
-0.296087
-0.247643
-0.259805
-0.268926
-0.259944
-0.297351
-0.297472
-0.301037
-0.28737
-0.167926
-0.151208
-0.161961
-0.208749
-0.0342401
0.103944
0.167582
0.0509249
-0.0574747
-0.0276771
-0.00357501
-0.260639
-0.238621
-0.248446
-0.204624
-0.214805
-0.41313
-0.431136
-0.436247
-0.415545
-0.38694
-0.421712
-0.341893
-0.394449
-0.391802
-0.379528
-0.354886
0.2136
0.207137
0.209354
0.203701
0.202336
0.215773
0.219829
0.221297
0.22606
0.227675
0.219345
0.223925
0.227202
-0.400325
-0.309772
-0.360603
-0.434255
-0.349116
-0.280713
-0.319806
-0.177137
-0.247082
-0.241248
-0.283272
-0.40687
-0.349394
0.182392
0.177827
0.193801
0.406792
0.260464
0.177931
0.270661
0.373417
-0.0317027
0.169656
0.000480511
0.582318
0.469675
0.612763
0.241103
-0.0575809
0.094454
0.148005
-0.0481706
0.0218988
0.040627
-0.0703054
-0.0400383
-0.0105308
0.0902552
-0.0316493
-0.0602762
-0.306716
-0.122833
0.00655887
-0.0152209
0.120434
0.185302
-0.047408
-0.12279
-0.166142
0.33612
0.356536
0.375412
0.345122
0.369536
0.2918
0.282515
0.301219
0.310472
0.304438
-1.06135
-0.769232
-1.71227
-1.02133
-0.57243
0.233307
0.189478
0.471727
0.360199
0.431844
0.414941
0.373767
0.337868
0.348514
0.382825
0.0849166
0.194675
0.168535
0.175585
0.0788767
0.0119698
0.310598
0.304157
0.34216
0.366506
0.331659
0.366206
0.224733
0.224253
0.22418
0.220983
0.219008
0.221045
-0.209105
-0.226372
-0.204569
-0.223581
-0.237633
-0.244213
-0.479412
-0.458593
-0.506683
-0.481963
-0.477536
-0.459126
-0.14052
-0.196353
-0.266931
-0.240498
-0.295447
-0.360096
-0.376593
-0.279909
-0.192134
-0.199705
0.102869
0.35514
0.179818
0.349765
0.186665
0.244281
0.188636
0.182889
0.21461
0.0828118
0.158249
-0.0742661
-0.579748
-0.486417
0.486522
0.507134
0.297878
0.107431
-0.122082
0.0688129
0.257173
0.195546
0.236051
0.304045
0.297963
-0.290573
-0.220451
0.0295223
0.256445
-0.0662653
-0.0731813
-0.0779547
0.0902772
0.0163953
)
;

boundaryField
{
    wall-4
    {
        type            zeroGradient;
    }
    velocity-inlet-5
    {
        type            zeroGradient;
    }
    velocity-inlet-6
    {
        type            zeroGradient;
    }
    pressure-outlet-7
    {
        type            fixedValue;
        value           uniform 0;
    }
    wall-8
    {
        type            zeroGradient;
    }
    frontAndBackPlanes
    {
        type            empty;
    }
}


// ************************************************************************* //
