/*--------------------------------*- C++ -*----------------------------------*\
  =========                 |
  \\      /  F ield         | OpenFOAM: The Open Source CFD Toolbox
   \\    /   O peration     | Website:  https://openfoam.org
    \\  /    A nd           | Version:  9
     \\/     M anipulation  |
\*---------------------------------------------------------------------------*/
FoamFile
{
    format      ascii;
    class       surfaceScalarField;
    location    "27";
    object      phi;
}
// * * * * * * * * * * * * * * * * * * * * * * * * * * * * * * * * * * * * * //

dimensions      [0 3 -1 0 0 0 0];

internalField   nonuniform List<scalar> 
1300
(
3.75095
5.62643
-5.5165
3.75095
-5.4531
5.62643
-4.47414
4.47414
-1.11714
1.11714
1.87647
1.87449
-2.95306
2.95306
-2.23092
2.23092
-2.56308
2.56308
-5.24649
5.24649
-5.06876
5.06876
4.67396
-4.67396
-4.05392
4.05392
-1.52682
1.52682
-3.9183
3.9183
3.16997
-3.16997
-3.31499
3.31499
-0.317365
0.317365
-0.553557
4.30451
3.1974
3.1974
-2.17683
2.17683
-4.8612
4.8612
6.2183
-6.2183
8.15128
-8.15128
-2.63478
-3.37328
1.49861
-9.16785
-3.95449
-3.95449
-8.4404
8.4404
-2.81397
2.81246
2.94234
-2.94234
-1.78516
1.78516
-4.40978
-0.0643571
-4.40978
4.47915
-0.00500922
4.47915
-1.24917
0.132029
-1.24917
3.97544
-3.97544
0.947546
0.169597
0.947546
3.06452
-3.06452
-1.87716
3.75363
1.87379
-1.87182
6.17633
-1.87913
3.75362
-5.90355
5.90355
-3.21434
0.261282
-3.21434
2.75127
0.201787
2.75127
-6.65619
6.65619
-2.40218
0.171265
-2.40218
2.23339
-0.00247653
2.23339
2.85483
-2.85483
-2.6598
0.0967273
-2.6598
2.46844
0.0946333
2.46844
0.353554
5.27288
-5.97998
8.79244
-5.27288
0.0263895
5.20849
0.0379926
5.20849
-5.10606
0.0373014
-5.10606
5.01056
0.0581977
5.01056
4.76746
-0.093494
4.76746
-4.78718
0.113215
-4.78718
-3.00064
-4.23965
-4.28989
0.235976
-4.28989
-1.53015
0.00333393
-1.53015
1.47873
0.0480816
1.47873
-3.53205
3.53205
-4.28181
0.363507
-4.28181
3.12467
0.0453036
3.12467
1.86853
1.88242
5.61949
-5.61949
2.44951
-2.87135
-0.443649
-2.87135
-3.76406
-4.38722
3.76406
-0.449068
-0.586271
0.268906
-0.586271
3.15916
0.0382373
3.15916
2.35758
0.110867
-2.35758
0.18075
3.23886
-3.23886
1.55837
0.618458
1.55837
-5.56736
5.56736
4.95249
0.0580688
-4.95249
0.091293
6.15702
0.0612777
6.15702
-6.19958
-0.0187207
-6.19958
2.64372
-6.017
-3.8227
3.95749
0.0964251
-3.95749
0.00300294
2.91208
0.0302593
2.91208
-2.92273
2.92273
-2.9825
0.0401586
-2.9825
-2.19085
0.405686
-2.19085
1.47867
0.306498
1.47867
-4.28248
-0.127304
-4.28248
-4.41582
0.134009
4.41582
0.06333
1.02874
-1.02874
-1.37968
0.130509
-1.37968
-4.11799
-0.164482
4.11799
-0.142557
-3.86139
-0.114048
-3.86139
-3.02324
0.0407396
3.02324
0.0412822
3.11236
0.0468032
-3.11236
0.0478366
-1.87083
3.75325
-1.88012
3.75392
-5.51433
-0.389223
-5.51433
6.21289
-0.309341
6.21289
3.56306
0.355241
-3.56306
0.348714
2.5814
0.169871
2.5814
-6.66959
0.0133993
-6.66959
6.47892
0.177267
6.47892
2.48066
0.100746
-2.48066
0.0784762
2.34302
-0.109631
2.34302
2.86037
-0.00554501
2.86037
-2.86133
0.00649922
-2.86133
2.80473
-2.80473
2.7368
0.0679254
-2.7368
0.0769985
-11.1329
11.1141
-0.0352216
-11.0976
5.17327
5.17327
4.19984
0.567621
4.19984
-5.00022
0.213041
-5.00022
2.65919
-6.48189
4.1193
-7.11994
4.05736
-13.2252
3.32389
-7.56354
5.52605
-5.52605
4.83451
0.691544
-4.83451
0.544615
-1.55433
0.0241808
-1.55433
-2.92162
-0.610431
-2.92162
4.19354
-0.661495
4.19354
-3.02947
3.02947
-3.07838
0.0489066
3.07838
0.0462862
2.57483
-0.23181
-2.57483
-0.296511
0.765812
0.181734
-0.765812
0.179541
3.45939
-0.220536
3.45939
-3.03478
-0.204084
-3.03478
-1.55963
0.00529868
1.55963
-0.00126211
-5.81648
0.249113
-5.81648
-11.1906
0.092991
-11.1526
-6.10659
-6.10659
2.33381
11.1263
-2.88413
0.0227982
2.88413
0.0279535
2.97698
0.0524993
-2.97698
0.0542434
-2.8655
0.0607711
2.8655
0.0572339
-2.57076
0.379906
-2.57076
-1.05898
1.05898
-1.245
0.186021
1.245
0.233668
1.26468
-0.235945
1.26468
1.43707
0.0416599
-1.43707
0.0573927
-3.75406
-0.10733
-3.75406
6.42364
-0.210752
6.42364
-2.91587
-0.118908
2.91587
-0.0554934
-0.0332815
11.1474
-5.13999
0.0339283
5.13999
-11.2087
11.2426
-3.24594
0.675182
3.24594
0.9539
5.28965
0.277709
-5.28965
0.289434
6.13633
0.34259
-6.13633
0.610279
-2.42911
-0.492506
-2.42911
-4.92755
-0.586771
4.92755
-0.734011
-11.4758
-0.202922
11.6787
-11.4176
6.0194
0.137624
-6.0194
11.3803
-0.970906
-0.0578307
0.970906
0.0880706
1.57619
-0.311512
1.57619
3.6504
-0.191003
-3.6504
-0.103662
-6.5582
-0.111389
6.5582
-0.134555
-1.98618
-0.442927
1.98618
-0.409991
-4.26683
4.30507
1.9095
-2.12846
-3.88854
-6.51568
1.85178
1.90147
4.30129
-8.39942
-4.82579
-8.39642
7.26766
-6.97823
-9.28073
9.18724
7.57755
-7.6916
-5.78499
5.83128
6.48176
-6.44048
1.87909
1.87453
7.92753
-7.66625
-15.6513
15.2621
6.56115
-6.38988
15.7588
-15.7454
-17.9954
18.338
-5.73795
5.83468
-6.69802
6.70452
-6.87832
6.82283
-2.01214
-5.1078
12.3164
-12.0805
7.86829
-8.31193
-8.50192
8.86543
3.38243
0.922643
3.42923
-1.88234
3.76143
-1.87129
3.78078
4.20694
-6.21908
2.27495
-6.16349
4.60979
3.2585
-4.16072
-2.35495
-5.91858
5.94884
-5.8219
5.87914
8.90244
-8.9668
-1.88502
3.75956
-1.86889
3.77036
-3.42526
-2.35973
3.37996
0.921335
7.08859
5.22785
-7.18501
-1.21141
-7.79422
7.60322
-8.073
7.86891
-0.444686
5.82132
-5.37664
4.41652
-1.55603
7.37735
5.71163
5.92467
5.86674
-5.58903
1.11149
-6.48813
-6.39683
-2.54859
2.6791
2.51298
-2.34338
5.93993
1.63763
5.79737
-5.54626
-2.14534
-5.65359
3.82111
2.01017
3.87002
4.0756
2.40616
4.11634
3.03126
-3.03517
0.0039086
-3.05636
6.08762
0.724389
-5.41609
-4.49475
4.93356
2.99397
5.13535
-5.50116
-2.16509
-5.15245
-9.52232
-6.12901
-10.1091
10.0921
5.16999
9.78278
-11.9583
11.8238
3.70835
2.8528
3.70587
-4.5295
-1.86038
-4.45102
12.3365
-3.2085
-9.12798
-10.3932
-7.6022
10.216
5.54279
10.8214
7.51662
11.4317
4.69578
7.64071
-10.2386
2.63637
-3.87387
-1.86408
-3.79687
3.71305
2.12162
3.80769
-4.20707
-2.49095
-4.18427
-4.26213
-2.61619
4.26768
2.43684
-4.33757
-3.73543
4.45648
2.36635
4.22383
-9.04961
3.33971
-8.44751
-9.11294
-2.96752
-8.56832
5.44001
1.17053
-6.61054
-0.779065
9.29751
-6.03902
6.94256
-4.19565
-4.11629
-4.49216
-6.79365
-1.70827
-6.65964
-8.86352
8.37101
-9.17459
8.5131
12.7258
-5.70349
-7.0223
-3.96814
-2.47234
3.92031
-0.491077
-3.7122
3.71611
0.0492289
3.83001
4.75265
4.26158
-3.88691
-1.93499
-3.83267
3.83323
2.04591
3.894
6.72666
2.17578
6.72165
-6.42485
-2.54195
-6.55216
9.10133
-8.69565
2.94564
-2.94034
5.2607
2.60821
-5.04016
-2.75405
6.13385
-3.07887
-3.05498
-12.2127
10.5665
1.64622
-4.83535
-0.418832
-0.101467
-5.50258
-3.77815
5.38937
0.535308
11.1018
7.32363
-5.51248
5.76159
6.1662
6.22427
-0.172564
5.85125
-5.17606
5.36446
-2.4784
-2.88605
5.28949
-5.45397
-1.26267
-5.30027
4.0376
0.343397
1.75144
-1.48253
-2.01936
-0.529237
-1.96196
1.48697
1.02601
1.66871
0.989931
1.68917
-2.9299
0.522182
2.40772
-1.93997
-1.8212
-3.68577
-1.01611
4.70188
5.54331
2.0599
-5.43965
-0.213937
2.7415
-2.69342
-0.814055
-2.87172
2.08799
-2.90204
-3.54887
-1.90529
5.45416
-3.3707
-0.461966
3.3182
0.551818
-3.82512
-2.09347
3.78496
0.331384
-3.12446
6.18933
-3.06487
-5.05945
2.52926
3.55836
4.53942
-4.79038
2.44647
2.34391
-1.23202
4.19959
0.935764
4.36946
-6.71772
4.55264
5.72747
3.13795
-6.08272
0.93027
-5.78745
8.49418
-7.28598
-1.2082
4.10912
4.38506
7.18654
5.53925
-5.75343
12.94
-1.15317
-6.13282
6.94062
-3.80267
4.74109
-8.54376
-10.2803
4.14753
-9.22398
10.9473
-1.72327
-3.60317
-8.35515
12.8272
-1.21688
-11.6103
8.5659
-4.064
-4.90584
8.96984
-7.27251
6.76623
-1.60456
-5.16167
-10.0944
-5.65093
10.2058
1.61794
-11.3046
13.941
-3.66388
3.09177
0.614105
2.98214
3.30456
-5.51827
2.21372
3.96795
-5.5725
1.99631
-7.51459
-7.50746
12.3102
-4.8027
-10.475
-10.48
0.00504744
2.36526
11.5757
-9.88188
6.92511
2.95677
3.31065
0.583352
-3.37857
-0.418303
0.295624
4.55541
-4.85104
4.10331
4.21418
3.42044
1.13497
3.83838
2.11047
-3.86633
-0.317942
-4.13643
1.52024
-1.69959
-3.64777
5.16801
-4.08484
0.437074
-2.73015
-3.53595
6.26609
-4.59422
3.03976
3.14957
5.08567
-4.91457
1.37862
-2.41487
-2.4997
2.70622
-4.40582
1.9499
3.21811
4.31625
0.580823
6.96188
5.34828
-8.13241
-0.315102
10.5761
-9.36472
3.18635
8.24533
-10.1115
-0.368554
-8.93688
-0.249638
-5.78938
-6.86018
5.05471
-6.76298
-3.48905
6.14154
0.58011
-6.20487
-0.454769
-6.01284
-2.85068
-6.45577
-3.06225
-6.11234
-8.81567
-1.64824
-7.16744
6.72278
-6.65693
-3.45216
7.39094
1.12216
-7.39706
7.33923
-7.4769
7.16539
0.0944725
3.62164
4.35605
1.88371
-2.38962
4.27333
-5.06775
7.24353
-8.48493
3.41718
3.98359
-6.52554
-4.50133
5.04857
4.05276
5.35507
8.97381
-10.5223
1.54844
-10.8501
12.1644
-1.31429
-16.6408
5.79072
-7.66698
2.68224
0.263398
2.70642
0.671958
2.41336
-3.08532
-2.26838
-2.26964
-2.31499
-3.37917
5.69416
1.1432
-3.37539
2.23219
-3.46977
4.61297
-0.069557
-3.30583
5.25405
-2.84069
5.51745
-3.53933
1.97812
3.29316
5.62083
-2.32767
4.31012
-1.70191
1.8231
-4.15077
-1.55607
-2.99655
5.11818
-3.26954
3.70661
-0.267137
3.97375
-4.06482
0.985954
-0.644381
3.5698
3.75055
4.26493
-3.12995
2.94083
-4.64273
-1.20995
-4.06191
-0.843798
-0.303828
-3.79081
4.09464
6.07572
-6.37955
-5.27352
9.59498
-4.32146
7.73801
-5.41315
-2.32486
-4.28628
-4.40936
3.90638
1.94487
9.68288
0.212752
-5.62591
-4.96331
-4.00941
3.21921
2.14525
-1.96585
3.61207
2.06731
-0.315877
0.581572
1.08713
1.85756
-1.27599
0.215856
1.6417
-1.26668
2.00564
0.735861
-2.0473
0.0853372
-1.39935
3.48733
1.00837
-2.03438
0.758394
1.02031
-3.49872
4.80483
-2.47728
-2.32755
5.82514
1.15697
-3.63424
4.1433
-3.79991
2.32072
-3.33683
-1.31353
-5.11343
-3.47581
-2.49331
4.7255
-3.20086
5.26076
1.17662
-5.04682
6.22345
-3.56088
1.6556
-3.04654
3.7824
-1.05209
-1.99445
2.76425
2.68991
-2.91634
0.0446257
-0.152087
2.30413
-2.45621
-0.597914
-2.53788
-4.57297
4.90435
-2.10652
4.55299
2.16681
-1.91373
6.46672
1.81168
-3.72542
-3.24777
-3.70973
-1.38151
3.15791
-0.30342
-4.1476
-5.46509
4.04686
0.3226
-6.93423
7.78291
-0.848681
-3.94027
-0.61237
4.72149
-5.94486
0.37236
-3.94855
3.83436
4.77013
5.09273
-11.4349
-0.175368
-6.26492
1.15536
-7.42028
5.54042
-3.63573
7.78325
-10.4264
6.97424
-9.30424
6.57506
-0.845224
6.31365
-4.09993
2.81434
-8.46526
-6.84733
5.27367
-2.42087
5.88777
-2.88509
8.77287
-6.54898
4.82188
3.95099
-1.38597
-3.10619
-4.46601
3.08004
0.355865
3.338
4.97589
-2.86542
4.65794
2.23882
-4.65369
-2.167
-6.49689
1.8432
-3.34732
-1.91206
3.75526
3.17362
3.75697
1.25556
-3.33866
9.15589
-9.15084
-4.35319
-2.50699
4.83505
-1.755
5.07062
-7.57761
-0.718762
4.8949
-0.840681
-4.05422
0.808594
-4.29764
1.64999
-5.94764
5.11298
-5.56775
2.19345
-9.86043
-5.20361
-5.11554
-2.23729
-5.23961
-7.65439
5.4171
-1.86367
5.47556
-8.6668
7.82612
-3.49756
8.91466
-5.41863
-1.03714
5.82862
1.33677
10.2514
0.148936
-4.65027
-1.90614
4.00651
-2.10036
1.31307
-3.64187
0.364634
2.42747
3.39767
-6.46507
-0.0604728
-4.71074
-3.92833
7.98109
5.66665
11.7424
1.22013
9.18632
-1.20523
10.4064
4.14984
4.38351
-3.03726
4.5857
1.05738
4.47455
-0.845134
2.82325
1.86129
1.86462
0.828801
2.29492
1.45563
3.28087
0.195558
-2.07408
4.64308
-8.6525
-0.982822
-8.08488
1.10236
5.73007
-4.6277
3.17066
-1.02541
1.0703
0.0827833
-1.64389
1.56111
-2.80327
-1.95977
-0.318067
-1.59912
2.35751
1.88822
-2.03944
-0.763828
0.316776
-3.79258
3.02005
-2.97543
-0.285519
5.93793
-2.72644
0.270231
-1.07085
-2.26765
-2.79689
2.71155
6.17547
0.291257
3.11059
5.19561
3.10214
0.236725
3.98497
-5.70824
-3.52962
-5.88361
-0.34319
4.3783
2.21536
9.36034
6.16635
4.41135
-3.16626
-12.3171
6.5661
-1.9804
5.2518
-1.19759
-4.75005
4.97399
2.26955
-5.5541
-0.013654
-4.7637
-6.7441
-0.544887
8.37101
-9.70654
8.66941
5.81873
1.34871
-4.4096
-0.705941
4.22358
0.159931
10.5664
-1.12158
-6.84369
7.96527
-4.60849
3.62567
0.853107
2.75896
2.41422
1.3888
-5.45489
-10.0826
-1.92345
-1.57526
-4.251
0.450877
-2.33909
6.26742
-2.64175
3.94257
5.32351
6.39382
-2.16583
-4.21372
6.4873
-2.54473
3.84909
)
;

boundaryField
{
    wall-4
    {
        type            calculated;
        value           uniform 0;
    }
    velocity-inlet-5
    {
        type            calculated;
        value           uniform -3.75095;
    }
    velocity-inlet-6
    {
        type            calculated;
        value           uniform -5.62643;
    }
    pressure-outlet-7
    {
        type            calculated;
        value           nonuniform List<scalar> 8(5.5165 5.4531 6.00806 7.66924 7.24029 6.46642 6.77849 7.38125);
    }
    wall-8
    {
        type            calculated;
        value           uniform 0;
    }
    frontAndBackPlanes
    {
        type            empty;
        value           nonuniform List<scalar> 0();
    }
}


// ************************************************************************* //
