/*--------------------------------*- C++ -*----------------------------------*\
  =========                 |
  \\      /  F ield         | OpenFOAM: The Open Source CFD Toolbox
   \\    /   O peration     | Website:  https://openfoam.org
    \\  /    A nd           | Version:  9
     \\/     M anipulation  |
\*---------------------------------------------------------------------------*/
FoamFile
{
    format      ascii;
    class       volVectorField;
    location    "27";
    object      U;
}
// * * * * * * * * * * * * * * * * * * * * * * * * * * * * * * * * * * * * * //

dimensions      [0 1 -1 0 0 0 0];

internalField   nonuniform List<vector> 
918
(
(0.985168 -0.000498304 0)
(0.00500825 2.96625 0)
(-0.0273661 1.46917 0)
(0.979701 0.00214852 0)
(0.00164354 1.45225 5.54448e-20)
(-0.0070378 2.94879 -1.91409e-18)
(0.841045 1.18156 6.94695e-19)
(0.372472 0.169342 -9.84047e-21)
(0.999906 -0.00029197 0)
(0.0575247 0.85156 0)
(-0.00645461 0.627538 0)
(0.732727 -0.00872093 0)
(0.0110941 2.93039 0)
(0.00205122 2.7949 0)
(-0.0174849 3.16098 1.04498e-18)
(0.0167255 1.2108 2.46031e-19)
(0.46924 0.0679913 6.19902e-19)
(0.189419 1.2147 5.955e-19)
(0.962823 0.00498653 0)
(-0.0437837 0.949767 0)
(0.0992872 0.21017 -4.87225e-19)
(1.002 -0.00498464 0)
(1.00021 -0.00980524 0)
(0.975707 -0.00644629 0)
(0.619862 -0.0444482 0)
(0.0164117 2.6369 0)
(-0.015016 2.91012 6.65559e-19)
(-0.078887 1.41731 0)
(-0.0755477 1.60061 0)
(-0.0429147 1.43888 0)
(-0.00786899 2.04559 0)
(0.0478364 1.48122 -4.37982e-20)
(0.0388167 1.23926 0)
(-0.0206256 2.98759 -6.71216e-23)
(-0.0166977 3.0053 1.48777e-18)
(0.00210313 3.0002 0)
(0.870007 -0.00937382 0)
(0.403288 0.941033 -5.63616e-21)
(0.818817 1.20033 -9.61701e-19)
(0.968231 1.03599 9.09882e-19)
(0.686889 1.2959 -1.61152e-19)
(0.685183 1.28635 9.03883e-19)
(0.413306 0.26343 9.6008e-21)
(0.403428 0.152088 0)
(1.15592 0.55929 0)
(0.374393 0.266479 4.43625e-20)
(0.325887 0.171632 -4.60398e-20)
(0.919626 -0.00752315 0)
(1.00029 0.000151201 0)
(0.999912 0.000344963 0)
(1.00364 -0.00779098 0)
(1.00095 -0.0009516 0)
(1.00017 1.93979e-05 0)
(0.0771446 1.78089 -2.74981e-19)
(0.0450526 0.998861 0)
(0.088954 0.935397 0)
(0.0189143 0.936412 0)
(0.0382502 0.784791 0)
(-0.00883597 1.98203 0)
(0.0279292 0.775122 0)
(0.00817098 0.669415 0)
(-0.0146023 0.739253 0)
(-0.0217262 0.633498 0)
(0.832423 -0.0140794 0)
(0.853211 0.025074 0)
(0.766755 0.00143697 0)
(0.828786 0.0300724 0)
(0.707104 -0.0167531 0)
(0.0146959 3.0004 7.01566e-19)
(0.011514 3.00792 0)
(0.00613049 3.00282 0)
(0.0135308 2.99733 7.83504e-24)
(0.0079944 2.95848 -1.0427e-18)
(0.0144814 2.98209 0)
(0.0108033 2.90363 0)
(0.0247372 2.93076 1.41962e-24)
(0.00437861 2.82492 0)
(0.030717 2.91601 0)
(-0.00581784 2.74442 0)
(0.310399 3.56029 0)
(-0.132151 3.64215 0)
(0.140776 3.25181 -9.7249e-19)
(-0.0120142 2.98544 0)
(-0.15511 1.93076 0)
(0.0326303 1.42242 -2.42633e-19)
(-0.0525204 1.26966 2.39319e-19)
(0.541938 0.153958 -2.13661e-19)
(0.468507 0.0382092 -2.06679e-19)
(0.521775 0.180542 -6.45204e-19)
(0.452295 0.0898645 -4.3153e-19)
(0.215257 0.910404 0)
(0.26948 1.35498 -6.27663e-19)
(0.385921 1.30336 1.03197e-18)
(0.987563 0.00852706 0)
(0.942141 0.00588486 0)
(1.0003 0.000573633 0)
(1.00287 0.00930216 0)
(1.00302 0.00842452 -1.28759e-18)
(0.991924 0.00971669 9.72217e-19)
(-0.0659201 1.01713 0)
(-0.0422985 0.828684 0)
(-0.0958331 1.37635 0)
(-0.053491 1.15745 0)
(-0.02489 1.09553 0)
(0.149929 0.218551 1.50461e-19)
(0.201391 0.195944 0)
(0.993513 -0.00840387 0)
(0.954362 -0.00649295 0)
(0.789698 0.0321327 0)
(0.748681 0.041771 0)
(0.675454 -0.0333871 0)
(0.961051 -0.00350771 0)
(0.683399 0.0589504 0)
(0.521321 -0.020332 8.37975e-19)
(-0.0365506 2.86395 3.6018e-19)
(0.0424634 2.90859 0)
(0.0550637 2.8845 0)
(-0.0050307 2.69838 0)
(-0.0131563 2.98533 6.13202e-19)
(-0.0180715 2.89537 0)
(-0.0153261 2.98815 -1.93673e-18)
(-0.0133956 2.92524 6.68289e-19)
(-0.158035 1.63115 0)
(-0.150274 1.72392 0)
(0.0667508 1.40344 7.17381e-21)
(0.0681071 1.39235 0)
(0.0145403 1.20717 0)
(0.937408 -0.00776319 0)
(0.855292 -0.0093804 0)
(0.864295 0.0070794 0)
(0.948757 -0.00796355 0)
(0.88331 -0.008393 0)
(0.516455 1.1358 -2.82535e-21)
(0.566975 1.18807 0)
(0.365476 0.88357 8.0399e-21)
(0.307871 0.743645 0)
(0.928115 1.07468 -2.62315e-19)
(1.04169 0.876129 5.36328e-19)
(0.379824 1.39404 0)
(0.540649 1.36305 0)
(0.545264 1.32387 0)
(0.103771 0.171418 -1.54144e-19)
(0.456096 0.247351 0)
(0.436909 0.139092 1.23518e-19)
(1.01212 0.930059 0)
(1.07999 0.777312 0)
(1.10531 0.719549 -4.66023e-19)
(1.13579 0.618627 0)
(1.18461 0.403736 5.72357e-20)
(0.957286 -0.00864623 0)
(0.96225 -0.0100803 0)
(0.901338 -0.00815504 0)
(0.984107 -0.0091964 0)
(0.97456 -0.00937625 0)
(0.936975 -0.00631055 0)
(1.00018 0.00232256 0)
(1.0009 0.00143593 0)
(0.999903 0.000848317 0)
(0.0362596 2.04356 1.73292e-19)
(0.120282 1.71842 0)
(0.0148774 2.15509 1.61288e-19)
(0.0583926 1.85508 -7.46712e-20)
(0.136807 1.20566 -4.92911e-19)
(0.0452024 1.08181 0)
(0.0959458 1.07833 0)
(0.0254191 0.879252 0)
(-3.135e-05 0.726488 0)
(-0.0220069 2.1803 2.56242e-21)
(0.016769 1.97918 0)
(-0.0588143 2.13208 1.66231e-19)
(-0.0303869 1.93547 -3.31777e-19)
(-0.000910414 0.851778 0)
(0.0133144 0.824836 0)
(-0.00403807 0.688947 0)
(-0.0305357 0.754889 0)
(-0.0303785 0.669178 0)
(0.928591 0.00751952 0)
(0.838292 -0.0128226 0)
(0.922429 -0.000693266 0)
(0.838004 -0.0110407 0)
(0.813885 0.00490651 0)
(0.904082 0.0181614 0)
(0.882338 0.020726 0)
(0.790175 0.00303796 0)
(0.00583843 3.06493 -6.2016e-21)
(0.0165915 3.05789 0)
(0.014721 2.96911 0)
(0.00860523 2.87629 0)
(0.929067 3.97947 0)
(1.24474 3.31146 1.00334e-18)
(0.0708596 3.07747 0)
(-0.0273351 2.90747 0)
(-0.218242 1.72309 0)
(-0.219849 1.89396 0)
(-0.179283 1.80702 0)
(-0.0410348 2.06396 -1.67381e-20)
(-0.170242 2.00276 0)
(-0.0983373 1.96881 0)
(-0.109185 1.66714 1.18047e-20)
(-0.105147 1.69832 -1.78363e-19)
(-0.0482083 1.51878 -2.4469e-19)
(-0.107401 1.437 0)
(0.570118 0.124648 3.14205e-19)
(0.485578 0.0138243 -3.07404e-19)
(0.260451 1.5449 0)
(0.262684 0.686024 -2.2042e-19)
(0.178747 1.6332 -7.39583e-19)
(0.226326 1.16167 7.41453e-19)
(0.902563 0.00668945 0)
(0.967626 0.0109847 0)
(0.974769 0.0107547 0)
(0.923663 0.00666846 0)
(-0.0370132 0.805457 0)
(-0.0435808 0.889246 0)
(-0.0491532 0.741762 0)
(0.318167 0.258137 4.05571e-19)
(0.260221 0.234254 -4.85628e-19)
(0.271407 0.183449 0)
(1.08944 0.086857 -2.14721e-22)
(1.07301 0.0404919 0)
(1.00102 0.0415594 0)
(0.89576 0.00114797 0)
(0.593676 0.0955616 0)
(0.623575 0.0707414 -1.3476e-18)
(0.500546 -0.00050769 5.13003e-19)
(0.00941785 2.98176 4.44114e-19)
(-0.0321272 2.86695 4.83268e-20)
(0.0036862 3.0502 -1.33717e-20)
(0.0200909 3.04346 4.80215e-19)
(-0.0150152 2.99657 2.21936e-20)
(-0.0129581 2.94945 -8.98116e-23)
(-0.0172578 3.01199 -4.19976e-19)
(0.0147922 3.02403 3.03653e-19)
(0.00730828 3.03672 -4.74721e-19)
(0.930849 -0.00104407 0)
(0.937553 -0.00378877 0)
(0.843412 -0.00855812 0)
(0.956935 0.0114857 0)
(0.943492 0.0124257 0)
(0.882347 0.00640838 0)
(0.91955 0.0153251 0)
(0.927498 0.0142311 0)
(0.840154 0.0058492 0)
(0.722136 1.41644 2.93309e-19)
(0.756291 1.52609 0)
(0.20428 0.354111 3.14812e-20)
(0.192321 0.634247 2.56607e-19)
(0.253039 0.710808 -1.48752e-19)
(0.275296 0.557918 2.83044e-19)
(0.311173 0.736204 8.5829e-19)
(0.117267 0.20031 2.33665e-19)
(0.499687 0.200523 4.61983e-19)
(0.482384 0.221025 1.17135e-19)
(0.446046 0.116 2.32486e-19)
(1.17283 0.460531 2.67402e-19)
(1.18534 0.255421 2.76869e-19)
(0.00457857 2.1792 2.04675e-20)
(0.0479955 1.9051 0)
(0.956006 0.0310671 0)
(0.928718 0.015154 0)
(0.855254 -0.0106939 0)
(0.0110867 3.07435 0)
(0.0197858 2.94417 8.29772e-19)
(0.0164783 2.95635 0)
(0.00626404 2.85069 -8.22969e-19)
(0.00628777 3.09162 1.97055e-19)
(0.00725296 3.08266 0)
(0.789902 1.8297 -2.30117e-19)
(1.25252 2.50943 6.30323e-19)
(0.772274 1.96975 -1.46224e-18)
(0.0204496 2.98227 -3.34207e-19)
(0.0364717 3.00355 0)
(-0.0331519 2.87965 0)
(-0.0911052 2.04597 1.68517e-21)
(-0.131221 1.88934 3.28119e-19)
(-0.0874348 1.84595 5.84893e-21)
(0.274233 1.35233 7.20301e-19)
(0.213501 0.464999 -4.96161e-19)
(0.0633357 1.96502 4.90242e-19)
(0.137811 1.85276 -6.1102e-19)
(0.178595 1.45696 8.59217e-20)
(0.00372679 3.11793 -1.14651e-18)
(0.0170443 3.118 1.22608e-18)
(-0.00892992 2.98086 5.3609e-19)
(-0.00299461 2.97744 -4.79175e-19)
(-0.0215157 2.88187 -5.45992e-19)
(0.00872486 3.09876 -1.44479e-18)
(0.00200391 3.10682 1.40615e-18)
(0.251564 0.650785 0)
(0.210167 0.639531 -5.14063e-19)
(0.10429 0.216005 2.31411e-19)
(0.332357 0.857525 7.0239e-19)
(0.175759 0.24061 -1.07671e-18)
(1.17656 0.173466 -4.32266e-20)
(1.1857 0.308883 0)
(1.16486 0.121173 1.04718e-19)
(0.00649418 2.19954 2.10912e-21)
(0.00324811 2.20084 0)
(0.021813 1.94442 0)
(0.337271 1.25056 -2.61001e-19)
(0.356785 1.06994 -5.5683e-19)
(0.186672 0.335012 9.63405e-19)
(1.00584 -0.0108995 0)
(1.00765 -0.00767641 2.35532e-19)
(-0.185697 1.57625 0)
(-0.190065 1.52803 0)
(1.00221 0.00352523 1.82004e-21)
(1.00372 0.00945731 4.83877e-19)
(-0.0458046 2.08947 2.13601e-20)
(-0.0229131 2.12552 0)
(0.0374418 3.18033 1.4458e-19)
(0.397986 3.49597 0)
(1.12827 0.647867 5.07073e-20)
(1.01298 0.0130509 -2.11101e-21)
(1.02116 -0.0105271 0)
(1.00173 0.00015763 9.97482e-23)
(0.104637 1.35477 0)
(0.149351 2.57567 0)
(0.0845822 1.13612 0)
(-0.00337477 2.61725 -1.84702e-19)
(-0.0746179 2.61489 -1.97177e-19)
(1.00651 0.0292179 2.73064e-21)
(1.05845 -0.00263449 0)
(1.08278 0.017422 0)
(-0.23968 1.9002 0)
(-0.163748 2.40132 0)
(-0.231846 1.22428 0)
(0.275262 1.46459 -4.06043e-19)
(1.01124 -0.00973356 0)
(1.00933 -0.0149885 0)
(1.00249 0.000727605 3.00701e-19)
(1.00548 -0.00487219 -3.53632e-19)
(1.00119 -0.00104467 0)
(-0.307553 1.79168 0)
(-0.237883 1.59793 0)
(-0.254144 1.72338 0)
(-0.227048 1.2421 0)
(-0.233746 1.39788 0)
(-0.189192 1.28951 0)
(1.03435 -0.00688202 0)
(1.02082 0.0154832 -1.0365e-21)
(0.786608 1.25566 4.88828e-19)
(1.00222 0.000373107 -2.98278e-19)
(1.00411 0.00526532 3.52825e-19)
(1.00116 0.00204181 0)
(1.01291 0.010208 2.93927e-19)
(1.00798 0.00823213 -3.62732e-19)
(1.00867 0.0145781 0)
(-0.140089 2.38734 0)
(-0.0649065 2.24374 -1.8498e-19)
(-0.0614496 2.26179 1.54246e-19)
(1.20012 0.260375 3.69079e-21)
(1.13754 0.0887488 0)
(0.0474432 3.07757 -5.51436e-19)
(0.0666377 2.85276 -4.32472e-20)
(0.144521 3.19491 8.79844e-19)
(0.139497 3.22401 -2.20428e-20)
(0.137528 3.23727 0)
(0.0204925 3.13777 1.23912e-19)
(0.0781852 3.16137 5.38294e-19)
(0.0711019 3.18762 -2.38179e-19)
(0.0234229 3.12943 0)
(0.658984 0.316478 0)
(0.577213 0.371056 0)
(1.0997 0.676466 -2.04676e-19)
(1.09685 0.808603 3.27178e-19)
(1.15726 0.568015 0)
(1.18689 0.513271 0)
(1.01616 0.0132978 -5.44544e-19)
(1.01497 0.0142229 6.80865e-19)
(1.02507 -0.0103135 0)
(1.02299 -0.0124624 0)
(1.00657 0.00243683 0)
(1.01049 0.00360683 0)
(1.00436 0.00185966 0)
(1.00977 0.00615006 0)
(1.00789 0.00577508 0)
(1.00452 0.0046018 0)
(0.093488 1.35433 0)
(0.0881033 1.31736 0)
(0.119816 1.38223 0)
(0.133675 1.40757 0)
(0.147391 2.59765 0)
(0.18882 2.6571 -2.27372e-19)
(0.0993638 2.65465 0)
(0.0864779 2.65726 5.58807e-21)
(0.0285079 2.68024 1.83224e-19)
(0.0790731 1.09205 0)
(0.0178967 0.971691 0)
(0.128177 1.1886 0)
(0.0262102 1.14145 0)
(0.0459126 2.02296 2.70734e-19)
(-0.0801109 2.6313 -2.55138e-19)
(-0.01819 2.6612 -3.05161e-19)
(-0.0536432 2.66626 0)
(-0.136266 2.6501 5.50409e-19)
(-0.167561 2.6228 3.5872e-19)
(0.0279453 2.11086 -1.75346e-19)
(-0.0559453 2.51762 3.59634e-19)
(0.00941312 2.49633 3.66073e-19)
(1.01517 0.035056 5.45511e-19)
(1.00869 0.0197877 -6.70877e-19)
(1.00683 0.0404734 -5.53254e-19)
(0.988616 0.0203184 7.12953e-19)
(1.05931 0.00328184 0)
(1.04615 -0.0110858 0)
(1.08218 0.0245245 0)
(1.06611 0.00449255 0)
(1.06231 -0.00526351 0)
(1.12134 0.0781741 0)
(1.09437 0.0408953 0)
(1.09581 0.0335542 0)
(-0.155145 2.13339 6.06198e-21)
(-0.267073 2.03819 0)
(-0.196274 2.03702 0)
(-0.209504 2.52485 -1.73889e-19)
(-0.197161 2.50563 6.81577e-21)
(-0.389269 1.89819 -1.29835e-19)
(-0.314127 1.80568 1.30715e-19)
(-0.334323 1.536 0)
(-0.332739 1.56529 0)
(-0.303971 1.59406 0)
(-0.225805 1.1965 0)
(-0.119113 1.02471 0)
(0.371574 1.47684 7.68034e-19)
(0.405104 1.48895 3.08013e-19)
(0.592315 2.44291 -1.64829e-19)
(0.405948 2.5362 4.55032e-19)
(0.352145 2.08578 -3.52007e-20)
(1.02091 -0.00848695 0)
(1.01545 -0.00992164 0)
(1.0148 -0.01561 0)
(1.00773 -0.00145731 0)
(1.00497 -0.00110098 0)
(1.00773 -0.00491828 0)
(1.00922 -0.00381268 0)
(1.01408 -0.00452997 0)
(1.02156 0.0157794 5.22081e-19)
(1.01816 0.0157419 -6.72397e-19)
(1.02207 0.0175512 -5.23497e-19)
(1.01948 0.0162598 6.55443e-19)
(0.754691 1.30606 0)
(0.688451 1.36037 5.67224e-19)
(0.864975 1.19914 3.2752e-19)
(0.909267 1.15662 -4.3568e-19)
(1.15979 2.61601 -4.42582e-19)
(0.829398 0.0971468 3.29515e-19)
(1.13795 0.104035 0)
(1.18143 0.185441 9.72588e-22)
(1.16629 0.158146 1.57799e-22)
(0.998166 0.128304 0)
(0.140192 2.96351 1.8736e-19)
(0.118531 2.86928 -7.17296e-19)
(0.0299238 2.36716 5.05746e-19)
(0.094735 0.0369438 -2.14179e-19)
(0.342884 3.42488 -4.11556e-19)
(0.19684 3.31659 0)
(0.238986 3.35922 5.3598e-19)
(0.249431 3.03649 -8.92387e-19)
(0.34344 3.1955 0)
(0.00605398 3.12099 2.8054e-20)
(0.0167582 3.12969 -3.52755e-19)
(0.0146143 3.12567 5.19191e-19)
(0.0361181 3.14011 0)
(0.0346997 3.15096 0)
(1.22071 2.61619 0)
(0.549298 0.84096 -2.77486e-19)
(1.02803 0.983318 -1.79518e-19)
(0.965561 1.05327 0)
(0.811451 0.955704 3.48732e-20)
(1.05076 0.86649 3.02679e-20)
(0.37839 0.419564 -5.70527e-19)
(0.701342 0.326866 -2.28929e-20)
(0.690339 0.254547 2.53772e-19)
(0.591407 0.40102 1.93685e-20)
(0.513189 0.379614 -7.88776e-19)
(0.669583 0.355163 0)
(0.691741 0.433678 4.18821e-19)
(0.697597 0.431898 0)
(0.628594 0.387896 0)
(0.612065 0.321207 0)
(0.778831 0.611529 1.68279e-19)
(1.19698 0.278553 -1.83462e-20)
(1.19188 0.414711 0)
(1.20611 0.362891 0)
(0.769532 0.204168 3.73302e-19)
(0.824374 0.542395 -2.12959e-19)
(0.731349 0.517042 3.52455e-19)
(0.920473 0.418562 -3.42996e-19)
(1.02002 0.0144017 3.61289e-19)
(1.01795 0.0140917 -3.66862e-19)
(1.016 0.0155125 0)
(1.03557 -0.00643105 0)
(1.02931 -0.00882646 -3.33558e-19)
(1.02706 -0.0127492 3.30114e-19)
(1.02522 0.00942214 0)
(1.02387 0.0129795 0)
(1.01147 0.00391707 0)
(1.01436 0.00876844 0)
(1.01518 0.00358694 0)
(1.01408 0.00274196 0)
(0.0657319 1.34283 0)
(0.0605865 1.28113 0)
(0.153152 1.3353 2.98697e-19)
(0.257751 1.46254 2.30229e-19)
(0.152261 1.43708 4.88905e-19)
(0.180225 1.44479 -7.99451e-19)
(0.177776 1.37303 0)
(0.126373 1.59795 2.36427e-19)
(0.116961 1.56782 0)
(0.350713 2.04041 5.11472e-20)
(0.351132 2.3709 2.75016e-19)
(0.184346 1.43923 -2.06306e-19)
(0.261415 1.36315 1.71532e-19)
(0.196057 1.3533 -1.37379e-19)
(0.269905 1.30125 2.68303e-19)
(0.239138 1.57612 0)
(0.252099 1.61728 -1.70586e-19)
(0.0476624 2.27232 8.99736e-20)
(0.0420994 2.66874 0)
(0.0705966 2.40186 -1.48732e-19)
(0.0409015 2.42158 0)
(0.0654583 2.66756 -7.41765e-21)
(0.0428144 2.69719 0)
(0.173392 1.48587 3.53562e-19)
(0.157564 1.57142 0)
(0.139607 1.38762 0)
(0.197319 1.38045 -4.07238e-19)
(-0.00470931 2.64488 -2.77371e-20)
(0.0252098 2.69731 -2.40554e-19)
(0.0123784 2.71828 -1.68194e-21)
(0.0677599 2.0766 -3.31936e-19)
(0.142084 1.79155 -1.37623e-19)
(-0.0277633 0.982855 0)
(-0.0224749 0.899737 0)
(0.0517218 1.604 -3.8425e-19)
(0.101457 1.45194 -3.98783e-19)
(0.0934577 1.58837 5.06492e-19)
(0.0419443 1.60773 0)
(-0.29327 2.33255 6.61981e-19)
(-0.241276 2.52992 -2.5695e-19)
(-0.258164 2.525 8.17733e-20)
(-0.0365629 2.07136 4.03171e-19)
(-0.222888 2.58963 1.33869e-19)
(-0.136703 2.55546 -4.45961e-19)
(1.02076 0.0203513 -3.55536e-19)
(1.0181 0.025972 3.57731e-19)
(1.01476 0.0173607 0)
(1.01809 0.0572082 5.08338e-19)
(0.996707 0.0486359 -5.92636e-19)
(0.961229 0.030419 6.80006e-19)
(1.01637 0.0883867 -6.63444e-20)
(1.04179 -0.00682467 0)
(1.04884 -0.00340348 3.03289e-19)
(1.03801 -0.0108285 -3.03384e-19)
(1.0656 0.0325925 -1.7016e-20)
(1.05889 0.0143652 1.50791e-19)
(1.06283 0.0451373 0)
(1.05841 0.0376456 -5.54897e-20)
(1.0362 0.0348542 0)
(1.03045 0.0324119 0)
(1.0273 0.0125663 0)
(1.02437 0.0152495 0)
(1.04214 0.0257416 1.1529e-19)
(1.03868 0.0200047 -2.61317e-19)
(1.05299 0.0227604 -1.18617e-19)
(1.05063 0.0231033 -1.34326e-19)
(1.07219 0.053776 2.46594e-19)
(1.08342 0.0468678 0)
(1.09089 0.0935865 0)
(-0.313828 2.30801 1.72384e-19)
(-0.30282 2.08209 1.0805e-20)
(-0.302506 2.12484 0)
(-0.222033 2.31198 -1.71363e-19)
(-0.164021 2.18516 -1.66515e-20)
(-0.191755 2.25411 3.18374e-20)
(-0.196506 2.63854 -2.88274e-19)
(-0.221458 2.59281 2.51915e-20)
(-0.230367 2.58702 -1.01067e-19)
(-0.214573 2.60064 2.10577e-19)
(-0.217046 2.58344 -2.50293e-19)
(-0.441401 1.73553 -1.63676e-20)
(-0.369761 1.92235 -2.84363e-19)
(0.362145 1.40865 -3.77305e-19)
(0.358174 1.35148 -3.48886e-19)
(0.637724 1.40748 -5.48596e-19)
(0.506522 1.47275 -2.97551e-19)
(0.555309 1.44901 0)
(0.588642 2.41687 1.33576e-19)
(0.655938 2.40639 2.38053e-19)
(0.411369 2.51214 7.97005e-20)
(0.405143 2.55566 -2.16242e-19)
(0.515023 2.51233 3.04228e-19)
(0.545979 2.45633 0)
(0.48788 2.50445 -3.76412e-19)
(0.249464 2.5838 6.50036e-19)
(0.354337 2.55939 -8.03025e-20)
(0.286381 2.64325 -9.73605e-19)
(0.93026 2.3838 2.97495e-19)
(0.828366 2.38245 0)
(1.01082 7.94172e-05 1.1973e-20)
(1.01501 -0.00553352 -9.70769e-21)
(1.01747 -0.0036672 -1.76121e-19)
(1.01472 -0.000971061 1.77027e-19)
(1.01215 0.000772757 0)
(0.624783 1.27705 0)
(0.638081 1.15923 0)
(0.741064 1.06483 0)
(0.630272 1.13261 0)
(1.18699 2.63272 5.66509e-20)
(1.07695 2.3736 0)
(0.844101 2.21524 -1.08546e-21)
(0.827769 2.47481 0)
(0.921132 2.56071 -2.98189e-20)
(0.95736 2.51508 1.98924e-20)
(0.839566 0.147127 0)
(0.807923 0.138657 9.38912e-20)
(0.926355 0.122224 4.94022e-19)
(0.8578 0.118616 -1.95516e-19)
(0.841477 0.0625868 -5.87762e-19)
(1.05207 0.220084 -3.26905e-19)
(0.969229 0.273268 -1.57556e-20)
(0.907162 0.270168 4.52499e-19)
(0.986433 0.201049 3.44521e-19)
(0.941824 0.16077 -6.29468e-19)
(0.914255 0.170012 8.08174e-20)
(0.940965 0.232467 -1.60898e-19)
(0.918205 0.192134 0)
(0.981746 0.160877 3.04107e-19)
(1.02958 0.168315 0)
(1.02357 0.194304 0)
(1.08558 0.112083 1.06982e-19)
(1.05532 0.160491 -1.31474e-20)
(1.0465 0.223792 -5.95558e-20)
(1.0807 0.194257 0)
(1.02674 0.0389295 2.7063e-19)
(1.04684 0.0486851 3.25471e-19)
(1.03844 0.0357656 -2.69417e-19)
(1.04877 0.0547098 -2.18836e-19)
(1.02388 0.061336 -3.57867e-19)
(0.983171 0.13036 0)
(1.00151 0.0832315 0)
(0.97156 0.0457977 -2.45532e-19)
(0.927401 0.0618405 1.00893e-19)
(1.03878 0.0874409 3.06032e-19)
(1.05958 0.112675 -3.22244e-19)
(1.06397 0.14042 2.93373e-19)
(1.02821 0.128286 0)
(1.06845 0.0997375 0)
(1.05637 0.0793873 -1.33492e-19)
(1.04973 0.084181 -2.46321e-19)
(0.585227 1.09029 -6.45715e-20)
(0.620186 1.42822 1.6683e-19)
(1.16069 2.74999 5.85781e-20)
(1.22737 3.08917 -6.10607e-20)
(1.25162 2.73143 4.73064e-19)
(1.28321 2.71483 -3.00673e-19)
(1.21121 2.35499 -8.98525e-21)
(1.2141 2.99365 1.56707e-19)
(1.23265 2.95916 -1.56283e-19)
(1.21909 3.24286 -2.51958e-19)
(1.38053 2.97561 3.48669e-19)
(1.3725 2.89352 0)
(0.545563 0.848045 -1.81878e-20)
(0.147554 1.26887 3.99039e-19)
(0.525115 0.479021 3.74801e-19)
(0.363011 0.239844 4.07499e-19)
(0.532542 0.406743 4.43303e-19)
(0.542679 0.490576 -6.91639e-19)
(0.544517 0.493002 5.6642e-19)
(0.499353 0.424214 -2.2609e-19)
(0.433039 0.364407 5.1932e-19)
(0.771213 0.258133 -2.09575e-19)
(0.732363 0.288479 0)
(0.727317 0.227429 1.03813e-20)
(0.714008 0.518864 2.1554e-19)
(0.681509 0.490821 -7.94777e-19)
(0.603261 0.487022 1.66487e-20)
(0.619257 0.476356 0)
(0.673288 0.728635 1.81463e-19)
(0.809678 0.76398 1.02325e-19)
(0.73911 0.841759 -1.26416e-19)
(0.852411 0.799044 -3.52227e-20)
(0.882254 0.836975 7.59315e-21)
(0.89095 0.839104 -7.77386e-21)
(0.819861 0.640055 -2.85311e-19)
(0.899192 0.69355 3.27258e-20)
(0.953843 0.703453 0)
(0.943598 0.677882 -3.82963e-20)
(0.995525 0.314378 8.19351e-20)
(1.10952 0.286983 3.89681e-20)
(1.03632 0.255953 1.33618e-19)
(0.97486 0.347287 -1.80702e-19)
(1.02042 0.413096 0)
(1.07537 0.402412 0)
(0.895459 0.353064 5.23988e-21)
(0.837171 0.287706 0)
(0.854539 0.276199 2.28996e-19)
(0.890743 0.277467 -6.31257e-21)
(0.91252 0.421588 9.426e-19)
(0.869741 0.484672 2.40919e-19)
(0.87386 0.449177 -2.94565e-19)
(0.804636 0.435971 3.16201e-19)
(0.787971 0.436438 2.09434e-19)
(0.755622 0.42204 -2.05573e-19)
(1.02815 -0.000696369 2.81105e-19)
(1.02013 -2.03293e-05 0)
(1.01855 0.000992413 1.88901e-19)
(1.02128 -0.00218741 -4.25641e-19)
(1.02212 0.00402616 2.06972e-19)
(1.02032 0.0107354 -4.34404e-19)
(1.02139 0.0101725 0)
(1.02102 0.0103633 -9.13895e-20)
(1.01598 0.00739965 2.29335e-19)
(1.01678 0.0100743 -1.14627e-19)
(1.01747 0.00933503 8.42828e-20)
(0.0803596 1.26542 0)
(0.126613 1.33281 0)
(0.0654318 1.31991 0)
(0.0508562 1.21916 0)
(0.0575441 1.38349 -6.35413e-19)
(0.0821339 1.3465 2.02624e-19)
(0.103221 1.5097 1.40217e-19)
(0.0881213 1.34875 -1.58909e-19)
(0.0684255 1.47048 3.84754e-19)
(0.0587493 1.4523 -2.94256e-19)
(0.058723 1.37091 -4.46357e-21)
(0.0655261 1.37867 3.85994e-19)
(0.0756246 1.34684 5.68989e-20)
(0.0755658 1.40072 5.11778e-20)
(0.104222 2.39347 1.65397e-19)
(0.0995133 2.4276 0)
(0.173408 2.06517 -2.17369e-20)
(0.100994 1.71416 -9.34565e-20)
(0.227922 2.06884 1.71723e-20)
(0.21136 2.45384 0)
(0.269465 2.4074 -1.73626e-19)
(0.302644 2.40862 1.23767e-19)
(0.227377 2.02221 4.75213e-20)
(0.149982 2.18442 1.37283e-20)
(0.147877 2.30808 0)
(0.0285779 1.87903 3.94743e-19)
(-0.0188921 2.39032 4.21988e-19)
(-0.0100862 2.17554 0)
(0.0120658 2.4522 -1.29961e-20)
(-0.00443856 2.30509 -1.82263e-19)
(0.138085 1.41034 -7.68956e-20)
(0.060767 1.2749 1.30471e-18)
(0.0505804 1.35874 -3.84604e-19)
(0.143948 1.46848 -4.16091e-19)
(0.155842 1.52541 0)
(-0.0113822 1.24365 0)
(-0.140089 1.0479 -3.98464e-19)
(-0.156852 1.15386 1.31167e-19)
(-0.0798963 1.18208 0)
(-0.0892638 0.968828 -3.05131e-19)
(-0.0836734 0.952867 5.97784e-19)
(1.04073 0.00989154 0)
(1.04647 0.00580988 -2.85072e-20)
(1.03939 0.018444 -2.0824e-19)
(1.04817 0.0144098 0)
(1.05085 0.0137997 0)
(1.03516 0.00959462 -6.15649e-21)
(1.03111 0.0104444 3.40845e-19)
(1.03092 0.0144473 4.12651e-19)
(1.02613 0.0187329 0)
(1.02386 0.019568 0)
(1.03512 0.0212911 2.09393e-19)
(1.02632 0.0251861 0)
(1.02592 0.0234359 0)
(-0.28077 2.28005 0)
(-0.389558 2.02667 -5.44098e-20)
(-0.364404 2.17181 -1.48071e-19)
(-0.160757 1.27223 0)
(-0.385531 1.86879 -2.81973e-19)
(-0.388515 1.64537 1.04558e-19)
(-0.299707 1.30913 0)
(0.390885 1.69697 0)
(0.358757 1.27771 5.70687e-19)
(0.300797 1.33662 0)
(0.412229 1.27222 -7.50718e-19)
(0.458837 1.44539 0)
(0.438496 1.3839 3.51411e-19)
(1.0296 2.70355 -5.72329e-21)
(0.953991 2.41766 -3.75321e-19)
(0.897017 2.17876 4.25734e-19)
(0.840356 2.37576 1.34357e-19)
(0.844466 2.51793 0)
(0.912685 2.51132 0)
(0.912416 2.37767 0)
(0.892495 2.358 -5.11674e-19)
(0.692877 2.49365 -5.5221e-20)
(0.801464 2.48478 -2.2784e-20)
(0.813393 2.45664 1.74344e-20)
(0.689551 2.38539 0)
(0.793494 2.38427 0)
(0.753006 2.39425 -2.4437e-19)
(0.770413 2.50655 0)
(0.598031 1.0842 0)
(0.493507 0.939864 -6.76967e-20)
(0.554048 0.966665 -5.40871e-21)
(0.524119 1.0696 0)
(0.527395 1.02414 1.03999e-19)
(0.761932 0.859644 -4.72473e-21)
(0.767586 1.00017 0)
(0.743454 0.957627 -3.21406e-20)
(0.63358 1.02064 0)
(0.638883 0.935881 0)
(1.16532 2.77186 1.9362e-20)
(1.14409 2.83548 9.59484e-20)
(0.936286 2.36123 -2.35309e-19)
(0.902927 2.33814 2.08172e-20)
(1.12892 2.74599 0)
(1.08054 2.71701 -2.48388e-20)
(1.08782 2.49661 -1.09567e-19)
(0.983302 2.23632 -3.00573e-20)
(0.49825 1.37243 0)
(0.508365 1.08003 5.69668e-20)
(0.544103 1.14945 0)
(0.860524 0.215958 0)
(0.817284 0.168581 0)
(0.774157 0.153391 0)
(0.85145 0.222571 -3.60209e-19)
(0.791683 0.219518 2.21066e-19)
(0.936527 0.0511848 -2.07164e-19)
(0.952001 0.0996014 0)
(0.925398 0.105061 9.19395e-20)
(0.882245 0.0824753 3.74607e-19)
(0.866428 0.0456998 -2.30937e-19)
(1.16719 3.36801 -9.46753e-19)
(1.21442 3.28732 0)
(1.16576 3.39534 -1.87284e-18)
(0.652077 3.55553 1.60602e-18)
(0.879277 3.12138 3.31974e-19)
(0.522321 0.869617 2.87673e-19)
(0.444221 0.867723 0)
(0.349364 0.512342 -9.28453e-20)
(0.45159 0.689119 4.50087e-19)
(0.528959 0.480859 -1.23057e-19)
(0.507245 0.523764 1.43691e-19)
(0.648644 0.541308 2.99062e-19)
(0.678862 0.565369 0)
(0.635889 0.619859 0)
(0.589746 0.560838 0)
(0.950269 0.586119 -3.49628e-20)
(0.871635 0.532097 -2.33371e-19)
(0.898436 0.565928 1.28265e-19)
(0.930334 0.50141 -1.73315e-19)
(1.0328 0.471342 0)
(1.0433 0.55886 -1.7571e-20)
(0.831029 0.388086 -4.65249e-19)
(0.835933 0.372579 -5.44055e-19)
(0.785809 0.383536 3.64506e-19)
(0.778978 0.352056 -4.04545e-19)
(0.835191 0.310332 -3.01471e-19)
(0.789957 0.305725 3.70493e-19)
(1.02651 0.00517426 -2.20867e-19)
(1.02609 0.00565924 4.5256e-19)
(1.02895 -0.00097398 2.67641e-19)
(1.03305 0.000431202 -3.30517e-19)
(1.03317 0.00813273 0)
(1.02973 0.00829044 -5.33694e-19)
(0.029392 1.65357 -5.47937e-20)
(0.0404588 1.57048 0)
(0.072041 1.69802 -4.51808e-19)
(0.0858425 1.68404 4.17051e-19)
(0.0814208 1.51333 -2.62887e-19)
(0.0739203 1.48373 0)
(-0.0618414 2.07048 0)
(-0.0469592 1.56561 1.56589e-19)
(-0.197145 1.56138 -1.42791e-19)
(-0.283732 1.85898 -4.06656e-20)
(-0.239155 2.27277 2.7157e-19)
(-0.18266 2.24635 -1.10983e-19)
(0.492683 1.38003 3.36745e-19)
(0.488109 1.38568 -3.61027e-19)
(0.434289 1.27154 3.6976e-19)
(0.429665 1.29196 -2.19405e-20)
(0.615997 1.28555 0)
(0.535489 1.3746 4.83746e-19)
(0.549892 1.38342 -4.70634e-19)
(0.440701 1.26011 -3.55965e-19)
(0.494944 1.21544 0)
(0.549732 1.18526 0)
(0.658417 2.45135 8.11735e-20)
(0.66915 2.47759 6.1479e-19)
(0.718047 2.49435 -4.22998e-19)
(0.623545 2.47699 -1.30115e-19)
(0.561222 2.57051 1.20037e-19)
(0.51234 2.5427 -3.49762e-19)
(0.968669 2.38058 -2.30899e-19)
(1.01022 2.40008 0)
(0.912092 2.15903 -2.97224e-19)
(1.04902 2.69754 0)
(1.05104 2.68455 0)
(0.622436 2.28202 1.82206e-19)
(1.04804 3.16914 4.31091e-19)
(0.918911 3.03828 -3.68289e-19)
(0.287928 0.938235 0)
(0.332523 0.802844 -1.80558e-19)
(0.493549 0.759531 -1.12049e-19)
(0.397301 2.02914 0)
(0.4694 2.78802 -2.31098e-19)
(0.428949 2.55268 0)
(0.683681 0.679383 -3.7864e-19)
(0.756281 0.673563 4.92294e-19)
(0.77491 0.62238 -4.82559e-19)
(0.664727 0.6513 -5.43882e-20)
(0.711682 0.600652 -2.23461e-19)
(1.00984 2.77448 -3.27768e-19)
(1.04381 2.82933 2.25982e-19)
(0.647956 2.16819 1.56622e-19)
(0.607848 1.72982 -1.37508e-19)
(0.706322 1.92025 4.20849e-20)
(0.994988 2.45796 -7.40903e-20)
(0.997382 2.45212 -1.01432e-19)
(0.67284 1.86177 -5.80555e-22)
(0.463961 1.35056 -4.88273e-20)
)
;

boundaryField
{
    wall-4
    {
        type            noSlip;
    }
    velocity-inlet-5
    {
        type            fixedValue;
        value           uniform (1 0 0);
    }
    velocity-inlet-6
    {
        type            fixedValue;
        value           uniform (0 3 0);
    }
    pressure-outlet-7
    {
        type            zeroGradient;
    }
    wall-8
    {
        type            noSlip;
    }
    frontAndBackPlanes
    {
        type            empty;
    }
}


// ************************************************************************* //
