/*--------------------------------*- C++ -*----------------------------------*\
  =========                 |
  \\      /  F ield         | OpenFOAM: The Open Source CFD Toolbox
   \\    /   O peration     | Website:  https://openfoam.org
    \\  /    A nd           | Version:  9
     \\/     M anipulation  |
\*---------------------------------------------------------------------------*/
FoamFile
{
    format      ascii;
    class       volScalarField;
    location    "24";
    object      p;
}
// * * * * * * * * * * * * * * * * * * * * * * * * * * * * * * * * * * * * * //

dimensions      [0 2 -2 0 0 0 0];

internalField   nonuniform List<scalar> 
2200
(
0.411757
0.39026
0.374355
0.35869
0.344083
0.331572
0.321216
0.313108
0.307379
0.304354
0.304675
0.30828
0.314446
0.322857
0.333432
0.346104
0.360819
0.37657
0.392524
0.414039
0.344174
0.340917
0.338001
0.333894
0.328444
0.321983
0.315363
0.309383
0.304809
0.302327
0.30265
0.305753
0.310776
0.317093
0.323952
0.330577
0.336156
0.34033
0.343271
0.346558
0.304231
0.304459
0.306529
0.307893
0.308309
0.307466
0.305508
0.302842
0.300242
0.298622
0.299004
0.301279
0.304367
0.307394
0.309602
0.3106
0.310278
0.309105
0.307207
0.30698
0.281788
0.283239
0.285872
0.28836
0.2908
0.292824
0.293989
0.294218
0.293839
0.293414
0.29385
0.295008
0.295953
0.29615
0.295306
0.293524
0.291273
0.288889
0.286269
0.28485
0.267565
0.269546
0.272375
0.275208
0.278071
0.280906
0.283327
0.285119
0.286255
0.28687
0.287371
0.287624
0.287164
0.285874
0.28383
0.281274
0.278601
0.275854
0.273075
0.271117
0.260213
0.261799
0.26402
0.266607
0.269326
0.272002
0.274562
0.276956
0.278877
0.280167
0.280768
0.280532
0.279419
0.277615
0.275492
0.273133
0.27064
0.268194
0.266048
0.264473
0.256926
0.257912
0.259221
0.261176
0.263399
0.265599
0.267777
0.270032
0.272179
0.273881
0.2746
0.27418
0.273015
0.271498
0.269834
0.26803
0.266094
0.264334
0.263122
0.262138
0.254783
0.255434
0.256122
0.257497
0.259181
0.260899
0.262596
0.264386
0.266234
0.26794
0.268798
0.268651
0.267989
0.267104
0.266063
0.264838
0.263507
0.262374
0.261802
0.261145
0.252011
0.25245
0.252938
0.254119
0.255579
0.257111
0.258646
0.260171
0.261712
0.26321
0.264302
0.264738
0.264666
0.264237
0.263529
0.262551
0.261503
0.260598
0.260239
0.259797
0.248311
0.248526
0.249002
0.250258
0.251798
0.253479
0.255228
0.256938
0.258567
0.260112
0.261482
0.262318
0.262509
0.262169
0.261391
0.260427
0.259407
0.258492
0.258144
0.257924
0.244549
0.244617
0.245071
0.246238
0.247698
0.249388
0.251295
0.253331
0.255392
0.257373
0.259034
0.25999
0.260136
0.259763
0.259091
0.258314
0.257444
0.256681
0.256392
0.256317
0.24101
0.241006
0.241406
0.242285
0.243481
0.244939
0.246651
0.248649
0.250972
0.253422
0.255502
0.256773
0.257274
0.257352
0.257154
0.25673
0.256253
0.255845
0.255671
0.255662
0.237445
0.237357
0.237689
0.238345
0.239374
0.240654
0.242159
0.244021
0.246331
0.24905
0.251676
0.253645
0.254968
0.255665
0.255937
0.255969
0.255897
0.255778
0.255695
0.255689
0.233601
0.233556
0.233848
0.234454
0.235492
0.236832
0.238471
0.240523
0.243037
0.2461
0.249302
0.251904
0.25373
0.254871
0.255565
0.255951
0.256117
0.256159
0.256152
0.25615
0.229354
0.229353
0.229607
0.230239
0.231352
0.232836
0.234776
0.237275
0.24036
0.244116
0.248062
0.251243
0.253466
0.254993
0.256045
0.256687
0.257011
0.257169
0.25722
0.257216
0.224239
0.224203
0.224507
0.22521
0.226347
0.227918
0.230085
0.233011
0.236785
0.241494
0.246488
0.250574
0.253455
0.255519
0.256975
0.257916
0.258499
0.258849
0.258973
0.258955
0.218133
0.218092
0.218405
0.219113
0.22029
0.222011
0.224459
0.227819
0.232316
0.238083
0.244365
0.249634
0.253492
0.256275
0.25828
0.259656
0.260562
0.261091
0.261279
0.261243
0.210574
0.21053
0.210892
0.211767
0.213222
0.215327
0.218305
0.222403
0.227889
0.234944
0.24272
0.24932
0.254239
0.257796
0.260343
0.262094
0.263269
0.263943
0.2642
0.264154
0.201649
0.201587
0.202032
0.203119
0.20496
0.207663
0.211463
0.216644
0.22353
0.232301
0.241852
0.249956
0.255951
0.260307
0.263396
0.265532
0.266954
0.26775
0.268055
0.267996
0.190784
0.190739
0.191342
0.192753
0.195104
0.198533
0.203345
0.20992
0.218616
0.229576
0.241331
0.251236
0.258528
0.26381
0.267539
0.270128
0.271829
0.27278
0.273157
0.273086
0.177531
0.177437
0.178191
0.180002
0.183024
0.187429
0.193607
0.202
0.212967
0.226609
0.241041
0.253089
0.261941
0.268352
0.272907
0.276078
0.278178
0.27935
0.27979
0.279686
0.160994
0.160955
0.162025
0.164385
0.168319
0.174095
0.182137
0.192907
0.206761
0.223655
0.241229
0.255774
0.266454
0.274191
0.27971
0.283553
0.28607
0.287469
0.288002
0.287879
0.14019
0.140095
0.141569
0.14483
0.150203
0.158015
0.168658
0.182662
0.200168
0.220962
0.242193
0.259584
0.272323
0.281553
0.288144
0.292775
0.295861
0.297578
0.298198
0.298016
0.112749
0.112944
0.115297
0.120055
0.127711
0.138597
0.153038
0.171275
0.193281
0.218696
0.244075
0.264603
0.279584
0.290496
0.298389
0.303976
0.307679
0.309698
0.31041
0.310196
0.0762543
0.0767105
0.0806379
0.0883051
0.0998387
0.115616
0.135192
0.158783
0.18623
0.216946
0.246899
0.270855
0.288324
0.301089
0.310401
0.317108
0.32166
0.324188
0.325037
0.324681
0.0272743
0.0278384
0.0353404
0.0484389
0.0664566
0.0889864
0.115328
0.145599
0.179396
0.216008
0.250895
0.278434
0.298492
0.313267
0.324205
0.332222
0.337726
0.340664
0.3415
0.341056
-0.0388179
-0.0356615
-0.0195288
0.00263445
0.02945
0.0601962
0.0944709
0.132262
0.173096
0.216353
0.256847
0.288708
0.312178
0.329731
0.342983
0.35302
0.360274
0.363993
0.364864
0.364596
-0.115326
-0.104438
-0.0769826
-0.0449784
-0.00846519
0.0311671
0.0736052
0.119137
0.167326
0.217662
0.264449
0.301447
0.32902
0.350063
0.366381
0.379026
0.388805
0.394235
0.396204
0.396531
-0.181853
-0.16543
-0.131169
-0.0909183
-0.0453233
0.00286462
0.0533912
0.106646
0.162148
0.219411
0.272232
0.313945
0.344998
0.3689
0.387571
0.402101
0.413076
0.419844
0.422287
0.422338
-0.231155
-0.216809
-0.17737
-0.131389
-0.0788209
-0.0235442
0.0342923
0.0947738
0.157167
0.22089
0.279167
0.324807
0.358772
0.384732
0.405008
0.420735
0.432306
0.439142
0.44162
0.441822
-0.271831
-0.25842
-0.215783
-0.166053
-0.108315
-0.0473928
0.0166493
0.0834198
0.151945
0.22155
0.28484
0.33409
0.370324
0.397553
0.418309
0.434238
0.446112
0.453209
0.455965
0.456215
-0.306968
-0.293275
-0.248424
-0.196048
-0.134283
-0.0687994
0.00037884
0.0724716
0.146434
0.221529
0.289387
0.341527
0.379145
0.407058
0.4284
0.444714
0.456661
0.464082
0.467022
0.467267
-0.337637
-0.323867
-0.277111
-0.222519
-0.157462
-0.0882378
-0.0147874
0.0619086
0.140775
0.220752
0.292512
0.346871
0.385928
0.414756
0.43634
0.452754
0.46498
0.472626
0.475698
0.475876
-0.365327
-0.351545
-0.303129
-0.246339
-0.178432
-0.106159
-0.0291238
0.0515613
0.134725
0.218899
0.294287
0.35134
0.39193
0.421429
0.443537
0.460222
0.472346
0.480096
0.482841
0.482744
-0.390714
-0.377047
-0.327301
-0.268297
-0.19779
-0.12296
-0.0428978
0.0412212
0.12815
0.216345
0.29556
0.355303
0.397168
0.427726
0.450273
0.467009
0.479071
0.486534
0.489405
0.489405
-0.414667
-0.40069
-0.349977
-0.288981
-0.216121
-0.139029
-0.0563404
0.0307702
0.121101
0.213194
0.296251
0.358775
0.402736
0.434094
0.456939
0.473681
0.485736
0.4931
0.495983
0.496097
-0.437196
-0.423031
-0.371612
-0.308809
-0.233912
-0.154696
-0.0696143
0.0201731
0.113659
0.209408
0.296321
0.362082
0.408022
0.440382
0.463731
0.480703
0.492735
0.499874
0.502825
0.502938
-0.458473
-0.444326
-0.392376
-0.328116
-0.251486
-0.170237
-0.0828837
0.00938751
0.1058
0.205083
0.295981
0.365067
0.412922
0.446644
0.470666
0.487854
0.499981
0.507111
0.509857
0.509946
-0.478977
-0.464684
-0.412391
-0.346979
-0.268942
-0.185812
-0.0962986
-0.00170329
0.0974029
0.199973
0.294533
0.366887
0.417672
0.45323
0.478021
0.495426
0.507479
0.514285
0.517017
0.517036
-0.499189
-0.48432
-0.431749
-0.365359
-0.286203
-0.201439
-0.109972
-0.013216
0.0883659
0.193954
0.292288
0.368386
0.422351
0.45991
0.485855
0.503504
0.515335
0.521974
0.524347
0.524228
-0.519112
-0.503436
-0.450544
-0.383228
-0.303155
-0.217043
-0.1239
-0.0251948
0.0786426
0.186991
0.288698
0.368648
0.426212
0.4668
0.494399
0.512501
0.523729
0.529503
0.531549
0.531344
-0.538583
-0.522156
-0.468841
-0.400593
-0.319718
-0.23252
-0.138014
-0.0376677
0.0681227
0.178733
0.28359
0.368011
0.429766
0.473782
0.503847
0.522647
0.532941
0.537524
0.538653
0.538311
-0.557421
-0.540453
-0.486645
-0.417473
-0.335859
-0.247783
-0.152199
-0.0505206
0.0569199
0.169824
0.278163
0.366583
0.43239
0.480694
0.514129
0.534822
0.544408
0.545242
0.544518
0.544851
-0.575602
-0.558264
-0.503935
-0.433878
-0.35156
-0.262745
-0.166295
-0.0635334
0.0453869
0.160415
0.271022
0.362526
0.433384
0.486748
0.524958
0.549108
0.559525
0.55625
0.551018
0.548628
-0.593094
-0.575455
-0.520643
-0.449798
-0.366821
-0.277351
-0.180185
-0.0765426
0.0336149
0.150036
0.262533
0.357749
0.432801
0.491552
0.536
0.565878
0.581465
0.57256
0.567119
0.571938
-0.609915
-0.591986
-0.536714
-0.46519
-0.381618
-0.291555
-0.193768
-0.0893886
0.0216391
0.139228
0.253577
0.351005
0.429796
0.494272
0.545572
0.583628
0.608648
0.59209
0.547453
0.501933
-0.625997
-0.60784
-0.552165
-0.480111
-0.396066
-0.305513
-0.207237
-0.102374
0.00923058
0.127738
0.243154
0.34189
0.423669
0.493326
0.552234
0.601121
0.641433
0.653883
0.674281
0.724822
-0.641309
-0.6231
-0.567089
-0.494678
-0.410334
-0.319485
-0.22096
-0.115892
-0.00405375
0.11477
0.230667
0.330184
0.413648
0.486676
0.548658
0.598906
0.631769
0.637202
0.611005
0.618657
-0.655809
-0.637711
-0.581434
-0.508826
-0.424344
-0.333398
-0.234829
-0.129805
-0.018131
0.100588
0.216426
0.315503
0.397988
0.470099
0.530351
0.575327
0.580474
0.54181
0.486575
0.477971
-0.669536
-0.651695
-0.595211
-0.522556
-0.438077
-0.347237
-0.248846
-0.144146
-0.0329498
0.0850392
0.200057
0.297826
0.377226
0.442929
0.495754
0.514182
0.485554
0.41735
0.346852
0.335162
-0.682518
-0.665026
-0.608434
-0.535887
-0.451548
-0.360996
-0.26297
-0.158801
-0.0484206
0.0683631
0.181878
0.276714
0.349978
0.402615
0.431488
0.423157
0.375956
0.276699
0.190484
0.173756
-0.695217
-0.67814
-0.621508
-0.549188
-0.465089
-0.374945
-0.277429
-0.174011
-0.0647539
0.0503582
0.161425
0.252416
0.318547
0.355354
0.349891
0.315178
0.211349
0.0898045
-0.0172603
-0.0402543
-0.70851
-0.691781
-0.635111
-0.563073
-0.479267
-0.389548
-0.292611
-0.19006
-0.0821193
0.0307885
0.13849
0.224236
0.282106
0.297362
0.258562
0.172423
0.0142987
-0.139181
-0.26715
-0.292127
-0.722897
-0.706417
-0.649568
-0.577777
-0.494255
-0.404915
-0.308576
-0.207005
-0.100648
0.00962016
0.113226
0.193558
0.240472
0.228751
0.166128
0.0141992
-0.193428
-0.412128
-0.595509
-0.641691
-0.73844
-0.722049
-0.664907
-0.593308
-0.510032
-0.421032
-0.325316
-0.224815
-0.120153
-0.0127605
0.0855897
0.16094
0.193769
0.146944
0.0504048
-0.148688
-0.394604
-0.698435
-1.03235
-1.17457
-0.755179
-0.738861
-0.681236
-0.609741
-0.526641
-0.437954
-0.34287
-0.243495
-0.140711
-0.0366024
0.0559937
0.124704
0.14147
0.061269
-0.0872436
-0.312701
-0.567715
-0.935835
-1.5503
-2.1365
-0.773108
-0.756774
-0.698583
-0.627119
-0.544091
-0.455677
-0.361226
-0.263026
-0.162176
-0.0612893
0.0258601
0.0864753
0.0851073
-0.0182544
-0.224343
-0.485273
-0.712776
-0.97896
-1.58567
-3.19982
-0.792321
-0.77593
-0.717032
-0.645549
-0.56252
-0.474372
-0.380572
-0.283573
-0.184688
-0.0871791
-0.00576426
0.0460649
0.025475
-0.082681
-0.328075
-0.601845
-0.774572
-0.836833
-0.862171
-1.27387
-0.812714
-0.796299
-0.736741
-0.665311
-0.582272
-0.494458
-0.401451
-0.305856
-0.209266
-0.115843
-0.0401775
0.00168028
-0.0367148
-0.133271
-0.385546
-0.627117
-0.761847
-0.785425
-0.741715
-0.78915
-0.834267
-0.817798
-0.757697
-0.68643
-0.603372
-0.516011
-0.423942
-0.329966
-0.235988
-0.146981
-0.0763169
-0.0442154
-0.0944875
-0.186498
-0.423688
-0.622003
-0.72454
-0.735817
-0.778654
-0.793739
-0.856838
-0.840097
-0.779875
-0.708908
-0.625758
-0.538971
-0.447993
-0.355811
-0.26474
-0.180311
-0.114539
-0.0907558
-0.14605
-0.245973
-0.459862
-0.622088
-0.710647
-0.672853
-0.698936
-0.702027
-0.880169
-0.863034
-0.803159
-0.732564
-0.649234
-0.563223
-0.473459
-0.383244
-0.295396
-0.215705
-0.154585
-0.141742
-0.194997
-0.316717
-0.499673
-0.624374
-0.692643
-0.717623
-0.702445
-0.709757
-0.903705
-0.886355
-0.827516
-0.757184
-0.673583
-0.588525
-0.500038
-0.411843
-0.327544
-0.252608
-0.195217
-0.195549
-0.239198
-0.383701
-0.547142
-0.642523
-0.653288
-0.714598
-0.68029
-0.690473
-0.927084
-0.909767
-0.852341
-0.782133
-0.698445
-0.614539
-0.527344
-0.441125
-0.360621
-0.29041
-0.235609
-0.249186
-0.293335
-0.443265
-0.577898
-0.668245
-0.641458
-0.68516
-0.670439
-0.672301
-0.949809
-0.932933
-0.87681
-0.806886
-0.723514
-0.640799
-0.554784
-0.470555
-0.39388
-0.328558
-0.274533
-0.298585
-0.356634
-0.493588
-0.586213
-0.657962
-0.677376
-0.66168
-0.671651
-0.668029
-0.971234
-0.955069
-0.900037
-0.830543
-0.748297
-0.666629
-0.581728
-0.499271
-0.425888
-0.365993
-0.31099
-0.341139
-0.430024
-0.562435
-0.586161
-0.578299
-0.66774
-0.640823
-0.668245
-0.667094
-0.990381
-0.975259
-0.921472
-0.852565
-0.772176
-0.691146
-0.607233
-0.526442
-0.455385
-0.401977
-0.346733
-0.378639
-0.504263
-0.656282
-0.640351
-0.510155
-0.581735
-0.616161
-0.648979
-0.661744
-1.0063
-0.992513
-0.940401
-0.872314
-0.793838
-0.713231
-0.630457
-0.551186
-0.481466
-0.434224
-0.382304
-0.404714
-0.581595
-0.792411
-0.843461
-0.797084
-0.811754
-0.812339
-0.81652
-0.809512
-1.01782
-1.00569
-0.955895
-0.888985
-0.812003
-0.731997
-0.65038
-0.572102
-0.502622
-0.4596
-0.413448
-0.424301
-0.650451
-0.974143
-1.30988
-1.4719
-1.49293
-1.4442
-1.38874
-1.32891
-1.0241
-1.01384
-0.966972
-0.901436
-0.825453
-0.746237
-0.665557
-0.587876
-0.51752
-0.472949
-0.439789
-0.431807
-0.68032
-1.08408
-1.6498
-2.01706
-2.06291
-1.98149
-1.86147
-1.78178
-1.02395
-1.01549
-0.972198
-0.908228
-0.833109
-0.754597
-0.674577
-0.597138
-0.524379
-0.472208
-0.446766
-0.427309
-0.628847
-0.935056
-1.33931
-1.5703
-1.55001
-1.46531
-1.31744
-1.23707
-1.01638
-1.00928
-0.970048
-0.908167
-0.834359
-0.756499
-0.676422
-0.597738
-0.520901
-0.457508
-0.422854
-0.367245
-0.422297
-0.375919
-0.326304
-0.269308
-0.161721
-0.0666559
0.0027151
0.0703571
-0.999436
-0.99263
-0.95911
-0.900289
-0.828186
-0.750893
-0.670036
-0.589126
-0.506659
-0.427004
-0.369808
-0.250325
-0.117434
0.191089
0.535935
0.80773
1.01426
1.15039
1.21892
1.24162
-0.968714
-0.962113
-0.937219
-0.88401
-0.814484
-0.738125
-0.656722
-0.572881
-0.485627
-0.385015
-0.298934
-0.162473
0.115805
0.529564
0.969606
1.33109
1.59189
1.74544
1.81173
1.82998
-0.9241
-0.919367
-0.906261
-0.860356
-0.794194
-0.719377
-0.638383
-0.551804
-0.461581
-0.349306
-0.237181
-0.124686
0.172356
0.551454
0.946432
1.28556
1.54489
1.70368
1.77572
1.79595
-0.879983
-0.878888
-0.872534
-0.831399
-0.768878
-0.696162
-0.61736
-0.530991
-0.440696
-0.336181
-0.219735
-0.138805
0.0803615
0.376962
0.691463
0.960344
1.17411
1.3129
1.38163
1.40557
-0.841048
-0.843616
-0.835285
-0.799026
-0.74026
-0.6712
-0.596577
-0.515302
-0.431473
-0.344095
-0.23847
-0.171976
-0.0388055
0.191622
0.441473
0.638111
0.794041
0.904026
0.957995
0.976041
-0.782702
-0.786385
-0.780085
-0.753435
-0.702544
-0.641549
-0.575174
-0.503743
-0.428982
-0.353679
-0.259577
-0.198688
-0.123031
0.0543069
0.251365
0.397218
0.509931
0.592001
0.628152
0.63554
-0.702305
-0.704664
-0.701747
-0.685328
-0.648471
-0.602356
-0.549415
-0.490688
-0.424393
-0.359615
-0.27722
-0.221511
-0.17961
-0.0556779
0.0941514
0.196627
0.273907
0.32995
0.351967
0.359045
-0.61546
-0.616847
-0.615403
-0.605824
-0.58368
-0.553596
-0.515832
-0.471714
-0.41526
-0.360282
-0.29164
-0.239724
-0.212091
-0.131541
-0.0201132
0.0458046
0.100892
0.137778
0.154204
0.159882
-0.537648
-0.538572
-0.537758
-0.532922
-0.521816
-0.504595
-0.480075
-0.450386
-0.406889
-0.356541
-0.297688
-0.247263
-0.221538
-0.169281
-0.0937844
-0.0529769
-0.0148888
0.0103038
0.0238813
0.0293159
-0.480748
-0.480935
-0.480663
-0.478944
-0.474094
-0.465267
-0.450565
-0.431304
-0.401047
-0.35346
-0.298651
-0.250801
-0.219883
-0.185171
-0.143181
-0.114843
-0.0894394
-0.071442
-0.0620761
-0.0603317
-0.449486
-0.44931
-0.449124
-0.448656
-0.44678
-0.442085
-0.432776
-0.417549
-0.393476
-0.360183
-0.305906
-0.256917
-0.223787
-0.209094
-0.181332
-0.162419
-0.146877
-0.137435
-0.133422
-0.134051
-0.442311
-0.44189
-0.441606
-0.441497
-0.440896
-0.437429
-0.432008
-0.421459
-0.402415
-0.378175
-0.325386
-0.279031
-0.242425
-0.246105
-0.227065
-0.212387
-0.20116
-0.199413
-0.201661
-0.202342
-0.454285
-0.453781
-0.453486
-0.453601
-0.453512
-0.451836
-0.450126
-0.445234
-0.438495
-0.42152
-0.375531
-0.326631
-0.302906
-0.295286
-0.27554
-0.25997
-0.247969
-0.242527
-0.243744
-0.245301
-0.480419
-0.479872
-0.479736
-0.480272
-0.48138
-0.482811
-0.486864
-0.491919
-0.50303
-0.501688
-0.475484
-0.409083
-0.37343
-0.352969
-0.326977
-0.302299
-0.276535
-0.255923
-0.247213
-0.254837
-0.512395
-0.512486
-0.51326
-0.514966
-0.518484
-0.525234
-0.53873
-0.561222
-0.597792
-0.634247
-0.635342
-0.539237
-0.461198
-0.420267
-0.378473
-0.34015
-0.302572
-0.278486
-0.265418
-0.273809
-0.542324
-0.542929
-0.544665
-0.548293
-0.555574
-0.569846
-0.596891
-0.644382
-0.718618
-0.814522
-0.847741
-0.731166
-0.609016
-0.541995
-0.464789
-0.396473
-0.339225
-0.320267
-0.315583
-0.319442
-0.558807
-0.560141
-0.563408
-0.569236
-0.580527
-0.602795
-0.645202
-0.720444
-0.845771
-0.999102
-1.08274
-0.956746
-0.813608
-0.690055
-0.568237
-0.478806
-0.430899
-0.407229
-0.410436
-0.411405
-0.551034
-0.552571
-0.555798
-0.564265
-0.579612
-0.606987
-0.659387
-0.755085
-0.912901
-1.1055
-1.30846
-1.11178
-0.940807
-0.782928
-0.654408
-0.572543
-0.545146
-0.531048
-0.52865
-0.526775
-0.513203
-0.515442
-0.51846
-0.525153
-0.540985
-0.570709
-0.62579
-0.725023
-0.891553
-1.11962
-1.26743
-1.12551
-0.932087
-0.777934
-0.684025
-0.637105
-0.602777
-0.608112
-0.602826
-0.599998
-0.446442
-0.448309
-0.451455
-0.456936
-0.469634
-0.495708
-0.544105
-0.631868
-0.777736
-0.968994
-1.07079
-0.949297
-0.781477
-0.703401
-0.658254
-0.624114
-0.617163
-0.616238
-0.612719
-0.610155
-0.358642
-0.359896
-0.362116
-0.366387
-0.375193
-0.393822
-0.429199
-0.493923
-0.600009
-0.732021
-0.796488
-0.693175
-0.599699
-0.584726
-0.579847
-0.568485
-0.575674
-0.574392
-0.570003
-0.566589
-0.263926
-0.264572
-0.26561
-0.267592
-0.272361
-0.283135
-0.304096
-0.343071
-0.406282
-0.486199
-0.519257
-0.437625
-0.428724
-0.45171
-0.466023
-0.49451
-0.486893
-0.486963
-0.485343
-0.484349
-0.175733
-0.175863
-0.176019
-0.176173
-0.177465
-0.181531
-0.190093
-0.206991
-0.233005
-0.267637
-0.26993
-0.255122
-0.295236
-0.319994
-0.351633
-0.387572
-0.384377
-0.384732
-0.385651
-0.384895
-0.103497
-0.103257
-0.102948
-0.1021
-0.101311
-0.101099
-0.101463
-0.103486
-0.104353
-0.0942112
-0.108989
-0.149488
-0.185173
-0.225767
-0.259113
-0.27743
-0.28083
-0.28477
-0.285952
-0.285972
-0.0507501
-0.0503353
-0.0498971
-0.0488268
-0.0473891
-0.0455328
-0.0424995
-0.0382605
-0.0311764
-0.0140962
-0.0205445
-0.0728406
-0.114248
-0.150995
-0.17666
-0.188807
-0.19567
-0.199032
-0.199942
-0.200315
-0.0167383
-0.0163196
-0.0159678
-0.0151759
-0.0139376
-0.0121108
-0.00875994
-0.00365558
0.00377671
0.0149559
0.0101804
-0.0329314
-0.0686101
-0.0957147
-0.116768
-0.124645
-0.128676
-0.130953
-0.13206
-0.132626
0.00209067
0.00244208
0.00267205
0.00300418
0.00376487
0.00491363
0.00727816
0.0110224
0.0163493
0.0223442
0.0178338
-0.0131217
-0.0399053
-0.0596065
-0.0729602
-0.0788899
-0.081559
-0.0828747
-0.0836579
-0.0840976
0.00964043
0.00989316
0.0100203
0.00999407
0.0102961
0.0108352
0.0121409
0.0143172
0.0174146
0.0201087
0.0165317
-0.00383019
-0.0219292
-0.034534
-0.0428922
-0.0466996
-0.0484256
-0.04904
-0.049517
-0.0497809
0.00959779
0.00976652
0.00984134
0.00963894
0.00961732
0.00971447
0.0102071
0.0111517
0.0125153
0.013317
0.0111766
-0.000189866
-0.010399
-0.0169075
-0.0212553
-0.0231836
-0.0239859
-0.0241181
-0.0243943
-0.0245882
0.00462387
0.00468801
0.00471764
0.0045001
0.00438548
0.00432003
0.00438103
0.00468142
0.00504065
0.00508246
0.00435983
0.000417734
-0.00282516
-0.00435201
-0.00565377
-0.00604889
-0.0062501
-0.00619416
-0.00628765
-0.00637016
-1.52581
-0.640497
-0.366902
-0.0776036
0.117965
0.287376
0.429893
0.574594
0.728848
0.805647
-0.506605
-0.0784429
-0.050202
0.146253
0.28298
0.405075
0.511335
0.604743
0.636191
0.591662
-0.100574
0.125458
0.170071
0.31107
0.405834
0.492705
0.564428
0.617829
0.622471
0.63452
0.144746
0.298708
0.335449
0.445577
0.50516
0.56802
0.615992
0.649928
0.660129
0.683102
0.336275
0.441929
0.471942
0.54718
0.59173
0.636432
0.670422
0.695554
0.706145
0.737089
0.483634
0.557143
0.587679
0.634601
0.671811
0.703678
0.729186
0.750281
0.765076
0.792912
0.607127
0.660091
0.686466
0.716303
0.745335
0.770051
0.790738
0.810296
0.825548
0.851783
0.713394
0.752127
0.773792
0.79532
0.81711
0.837172
0.85494
0.87333
0.888322
0.911909
0.809381
0.838616
0.856029
0.871881
0.888631
0.905098
0.920866
0.938017
0.95161
0.973914
0.898679
0.919675
0.934955
0.948468
0.96236
0.976377
0.98996
1.00462
1.01615
1.03582
0.985227
1.00115
1.01518
1.02721
1.0393
1.051
1.06216
1.07387
1.08153
1.09834
1.07088
1.08385
1.09768
1.10938
1.11996
1.12972
1.1385
1.14675
1.15033
1.16162
1.16031
1.1713
1.18479
1.194
1.20144
1.20862
1.21582
1.22241
1.22341
1.23084
1.25879
1.26352
1.27156
1.27605
1.27932
1.28379
1.28978
1.29756
1.30137
1.31126
1.37211
1.3584
1.35095
1.34531
1.34263
1.34403
1.35055
1.36297
1.37771
1.40736
1.49295
1.43727
1.4064
1.38933
1.38119
1.3812
1.38986
1.40933
1.44138
1.51055
)
;

boundaryField
{
    wall-4
    {
        type            zeroGradient;
    }
    pressure-outlet-7
    {
        type            fixedValue;
        value           uniform 0;
    }
    velocity-inlet-6
    {
        type            zeroGradient;
    }
    velocity-inlet-5
    {
        type            zeroGradient;
    }
    frontAndBackPlanes
    {
        type            empty;
    }
}


// ************************************************************************* //
