/*--------------------------------*- C++ -*----------------------------------*\
  =========                 |
  \\      /  F ield         | OpenFOAM: The Open Source CFD Toolbox
   \\    /   O peration     | Website:  https://openfoam.org
    \\  /    A nd           | Version:  9
     \\/     M anipulation  |
\*---------------------------------------------------------------------------*/
FoamFile
{
    format      ascii;
    class       surfaceScalarField;
    location    "24";
    object      phi;
}
// * * * * * * * * * * * * * * * * * * * * * * * * * * * * * * * * * * * * * //

dimensions      [0 3 -1 0 0 0 0];

internalField   nonuniform List<scalar> 
4262
(
0.10714
0.470849
0.0955632
0.705162
0.0693434
0.858523
0.0472732
1.02083
0.0307945
1.215
0.0195252
1.44949
0.0122026
1.73319
0.00721183
2.07603
0.00341902
2.48904
-0.000288298
2.986
-0.00399227
2.986
-0.00776727
2.48902
-0.0127075
2.07598
-0.0199224
1.73308
-0.0310625
1.44936
-0.0474575
1.21491
-0.0694511
1.02076
-0.09561
0.858462
-0.107191
0.705167
0.470797
0.112853
0.357995
0.135265
0.682751
0.120435
0.873352
0.0979124
1.04336
0.074642
1.23827
0.0529446
1.47119
0.0346011
1.75153
0.0203748
2.09025
0.00912518
2.50029
-0.00076055
2.99589
-0.0106302
2.99587
-0.0216643
2.50005
-0.0356859
2.09
-0.0539023
1.75129
-0.0755804
1.47104
-0.0988399
1.23817
-0.121342
1.04326
-0.135872
0.872992
-0.113144
0.682439
0.357653
0.0919739
0.266022
0.124875
0.64985
0.121094
0.877134
0.105075
1.05938
0.0868549
1.25649
0.0679088
1.49013
0.0488592
1.77058
0.0305926
2.10852
0.0140693
2.51681
-0.00148268
3.01144
-0.016908
3.01129
-0.0331491
2.51629
-0.0511802
2.10803
-0.069966
1.77008
-0.0884691
1.48954
-0.106159
1.25586
-0.12162
1.05872
-0.125448
0.87682
-0.0922699
0.64926
0.265383
0.0637791
0.202242
0.10441
0.609219
0.10601
0.875534
0.0945388
1.07085
0.0806405
1.27038
0.066219
1.50455
0.0502097
1.78659
0.0333611
2.12537
0.016109
2.53406
-0.00212966
3.02968
-0.0202451
3.02941
-0.0372371
2.53329
-0.0535837
2.12438
-0.0689858
1.78548
-0.0829147
1.50347
-0.0964987
1.26944
-0.10775
1.06997
-0.105542
0.874612
-0.0642469
0.607965
0.201136
0.0371997
0.165043
0.0802037
0.566215
0.0903174
0.86542
0.0827977
1.07837
0.0699743
1.28321
0.0581066
1.51642
0.0456748
1.79902
0.0313774
2.13967
0.0153241
2.55011
-0.00282046
3.04782
-0.0207642
3.04735
-0.0363733
2.5489
-0.0500735
2.13808
-0.0619202
1.79733
-0.0732937
1.51484
-0.0856417
1.28179
-0.0925887
1.07692
-0.0817104
0.863734
-0.0377413
0.563996
0.163395
0.019269
0.145774
0.0566387
0.528845
0.0719806
0.850078
0.0698732
1.08047
0.0609183
1.29216
0.0499861
1.52735
0.0390238
1.80998
0.0273379
2.15135
0.0132748
2.56418
-0.00379673
3.06489
-0.0204678
3.06402
-0.0336921
2.56212
-0.0444553
2.14884
-0.0547288
1.8076
-0.0649959
1.52511
-0.073223
1.29002
-0.0745796
1.07828
-0.0582541
0.847408
-0.0198121
0.525554
0.143583
0.0102301
0.135544
0.040743
0.498332
0.0564427
0.834378
0.0571697
1.07975
0.0515649
1.29777
0.0425609
1.53636
0.032706
1.81984
0.0220757
2.16198
0.00996709
2.57629
-0.00475037
3.07961
-0.0191205
3.07839
-0.0305586
2.57356
-0.0403979
2.15868
-0.0489843
1.81619
-0.0569366
1.53306
-0.061553
1.29464
-0.0597878
1.07651
-0.0427527
0.830373
-0.0108608
0.493663
0.132722
0.00586792
0.129676
0.030727
0.473473
0.0459679
0.819137
0.0477467
1.07797
0.0436483
1.30187
0.0364517
1.54355
0.0278359
1.82845
0.0177554
2.17206
0.00640205
2.58764
-0.00619321
3.0922
-0.0183275
3.09053
-0.028618
2.58385
-0.0370563
2.16712
-0.0443784
1.82351
-0.0504832
1.53917
-0.0533057
1.29746
-0.0501673
1.07337
-0.0332553
0.813461
-0.00666533
0.467073
0.126057
0.0039474
0.125728
0.0243126
0.453108
0.0390437
0.804406
0.0411875
1.07582
0.0375311
1.30552
0.0312509
1.54983
0.0234374
1.83627
0.0141144
2.18139
0.00376917
2.59799
-0.00731101
3.10328
-0.0178148
3.10103
-0.0268863
2.59292
-0.0348392
2.17507
-0.0412259
1.8299
-0.0458626
1.5438
-0.0480234
1.29962
-0.0441897
1.06954
-0.0273339
0.796605
-0.00492633
0.444665
0.12113
0.00261703
0.123111
0.0174773
0.438248
0.0307428
0.791141
0.0334066
1.07316
0.0303176
1.30861
0.0249556
1.5552
0.0183111
1.84291
0.0101683
2.18953
0.000742698
2.60741
-0.00953012
3.11356
-0.0191546
3.11065
-0.0267477
2.60051
-0.0330804
2.1814
-0.0373525
1.83417
-0.0405587
1.54701
-0.0417689
1.30083
-0.0370395
1.06481
-0.0210883
0.780654
-0.00378098
0.427358
0.117349
0.00107111
0.12204
0.00992373
0.429395
0.0205183
0.780546
0.0231127
1.07057
0.0206003
1.31112
0.0163485
1.55945
0.0112151
1.84804
0.00501179
2.19573
-0.0025318
2.61495
-0.0117109
3.12274
-0.019951
3.11889
-0.0254007
2.60596
-0.0287635
2.18476
-0.031797
1.8372
-0.0341921
1.54941
-0.0341147
1.30075
-0.0283751
1.05907
-0.0144268
0.766706
-0.00266439
0.415595
0.114685
9.31377e-05
0.121947
0.00431497
0.425173
0.0118779
0.772983
0.0143537
1.06809
0.0122284
1.31325
0.00824317
1.56343
0.00345735
1.85283
-0.00177663
2.20097
-0.00779046
2.62097
-0.0147057
3.12965
-0.020423
3.12461
-0.0237521
2.60929
-0.0256876
2.1867
-0.0272499
1.83877
-0.0277503
1.54991
-0.0266228
1.29962
-0.0207137
1.05316
-0.00940408
0.755396
-0.00181633
0.408008
0.112869
-0.000526564
0.122474
0.000506791
0.42414
0.00525353
0.768237
0.00710246
1.06624
0.0054632
1.31489
0.00225272
1.56664
-0.00190305
1.85699
-0.00689068
2.20595
-0.0124818
2.62656
-0.0182839
3.13545
-0.0226589
3.12899
-0.0252408
2.61187
-0.0264599
2.18792
-0.0261447
1.83845
-0.0252075
1.54897
-0.0231296
1.29755
-0.0169907
1.04702
-0.0074027
0.745808
-0.00169245
0.402297
0.111176
-0.00120523
0.123679
-0.00187348
0.424808
0.00060101
0.765762
0.0017321
1.06511
0.000228612
1.31639
-0.00270632
1.56958
-0.0068353
1.86112
-0.01182
2.21094
-0.0174713
2.63221
-0.0231575
3.14114
-0.0270246
3.13285
-0.0284153
2.61326
-0.0281905
2.18769
-0.0266636
1.83692
-0.024549
1.54685
-0.0209924
1.29399
-0.0146411
1.04067
-0.00646397
0.737631
-0.0017009
0.397534
0.109475
-0.00196797
0.125647
-0.00418605
0.427026
-0.00434192
0.765918
-0.00426207
1.06503
-0.00562898
1.31776
-0.00806237
1.57201
-0.0116877
1.86474
-0.0165708
2.21582
-0.022395
2.63803
-0.028221
3.14697
-0.0318157
3.13645
-0.0323736
2.61382
-0.0310418
2.18636
-0.0287352
1.83462
-0.0255432
1.54366
-0.0207679
1.28922
-0.0138205
1.03372
-0.0061589
0.72997
-0.00170569
0.393081
0.10777
-0.0024637
0.128111
-0.00649272
0.431055
-0.00822009
0.767645
-0.00851589
1.06533
-0.00998168
1.31922
-0.0130217
1.57505
-0.0174473
1.86917
-0.0231181
2.22149
-0.0295483
2.64446
-0.0356203
3.15304
-0.0389652
3.13979
-0.0391329
2.61399
-0.0369102
2.18414
-0.0331923
1.8309
-0.0279694
1.53844
-0.0214563
1.2827
-0.013657
1.02592
-0.00633718
0.72265
-0.00187232
0.388616
0.105897
-0.00316018
0.131271
-0.00862453
0.43652
-0.0119607
0.770982
-0.0131796
1.06654
-0.0146105
1.32065
-0.0177771
1.57822
-0.0230043
1.87439
-0.0298745
2.22836
-0.037478
2.65207
-0.0441593
3.15972
-0.047271
3.1429
-0.0468877
2.61361
-0.0437948
2.18105
-0.0391625
1.82627
-0.0327512
1.53203
-0.0250919
1.27504
-0.0162083
1.01704
-0.00801696
0.714458
-0.00247118
0.38307
0.103426
-0.00359255
0.134863
-0.0100486
0.442976
-0.0148448
0.775778
-0.0171161
1.06882
-0.019458
1.323
-0.023837
1.5826
-0.030572
1.88113
-0.0390862
2.23688
-0.0482193
2.6612
-0.0558147
3.16731
-0.0589157
3.14601
-0.057976
2.61267
-0.0539561
2.17703
-0.047781
1.82009
-0.0391744
1.52342
-0.0290817
1.26495
-0.0186464
1.0066
-0.00970609
0.705518
-0.00312816
0.376492
0.100298
-0.00488366
0.139747
-0.0137546
0.451847
-0.0210021
0.783025
-0.0248599
1.07267
-0.0279054
1.32604
-0.0331711
1.58786
-0.0412443
1.8892
-0.051134
2.24677
-0.0612894
2.67136
-0.0691924
3.17522
-0.0716011
3.14841
-0.0690508
2.61012
-0.0631563
2.17113
-0.0549831
1.81192
-0.0451162
1.51355
-0.0340671
1.2539
-0.0226141
0.995151
-0.0121298
0.695034
-0.00390289
0.368266
0.0963952
-0.00593732
0.145684
-0.0165581
0.462467
-0.0260152
0.792482
-0.0324497
1.07911
-0.0383962
1.33199
-0.0462176
1.59569
-0.0562334
1.89922
-0.0676709
2.2582
-0.0786861
2.68237
-0.0862449
3.18278
-0.0870675
3.14924
-0.0824177
2.60547
-0.0745837
2.1633
-0.0642913
1.80163
-0.0520756
1.50134
-0.0387591
1.24058
-0.0256638
0.982056
-0.0140444
0.683414
-0.00457576
0.358797
0.0918194
-0.00816514
0.153849
-0.0229129
0.477215
-0.0360881
0.805658
-0.0453568
1.08838
-0.0533643
1.34
-0.063296
1.60562
-0.0755125
1.91143
-0.0885922
2.27128
-0.100109
2.69389
-0.1067
3.18937
-0.105259
3.1478
-0.0976782
2.59789
-0.086573
2.15219
-0.0734233
1.78848
-0.0594634
1.48738
-0.0453189
1.22644
-0.0311984
0.967935
-0.0173483
0.669564
-0.00554624
0.346995
0.0862732
-0.0102352
0.164085
-0.0285435
0.495523
-0.0458428
0.822957
-0.0593482
1.10188
-0.0719074
1.35256
-0.0859355
1.61964
-0.101179
1.92668
-0.115983
2.28609
-0.127704
2.70561
-0.132496
3.19416
-0.127455
3.14276
-0.116114
2.58654
-0.10204
2.13812
-0.0865026
1.77294
-0.0702363
1.47111
-0.0536513
1.20985
-0.0368705
0.951154
-0.0205314
0.653225
-0.00658837
0.333052
0.0796848
-0.0150032
0.179088
-0.0398247
0.520345
-0.0619179
0.84505
-0.0797689
1.11973
-0.0966492
1.36944
-0.114617
1.63761
-0.132773
1.94483
-0.14915
2.30246
-0.160357
2.71682
-0.162453
3.19626
-0.153606
3.13391
-0.138422
2.57136
-0.120217
2.11991
-0.100979
1.7537
-0.0819778
1.45211
-0.0634866
1.19136
-0.0447681
0.932436
-0.025216
0.633673
-0.00787388
0.31571
0.0718109
-0.0192187
0.198307
-0.0514295
0.552556
-0.0817193
0.87534
-0.106314
1.14433
-0.129555
1.39268
-0.152627
1.66068
-0.174228
1.96643
-0.191625
2.31986
-0.201572
2.72676
-0.200116
3.1948
-0.185906
3.1197
-0.165354
2.55081
-0.142997
2.09756
-0.120688
1.73139
-0.0990114
1.43044
-0.0773426
1.16969
-0.0540748
0.909168
-0.0296749
0.609273
-0.00900353
0.295038
0.0628074
-0.0335028
0.231809
-0.0774884
0.596541
-0.115453
0.913304
-0.146115
1.17499
-0.175769
1.42233
-0.203298
1.68821
-0.22669
1.98983
-0.243402
2.33657
-0.250237
2.7336
-0.243136
3.1877
-0.222674
3.09924
-0.19734
2.52547
-0.170479
2.0707
-0.14385
1.70476
-0.118151
1.40474
-0.0925767
1.14412
-0.0654958
0.882087
-0.0364808
0.580258
-0.0106968
0.269254
0.0521106
-0.0469389
0.278748
-0.113678
0.66328
-0.166008
0.965634
-0.205342
1.21433
-0.241406
1.45839
-0.270616
1.71742
-0.293223
2.01243
-0.306691
2.35004
-0.308058
2.73496
-0.293837
3.17348
-0.26654
3.07194
-0.234941
2.49387
-0.202958
2.03871
-0.172619
1.67442
-0.143988
1.3761
-0.114785
1.11492
-0.0810998
0.848402
-0.0420844
0.541243
-0.0108358
0.238006
0.0412747
-0.031547
0.310295
-0.0874409
0.719174
-0.13707
1.01526
-0.18123
1.25849
-0.222687
1.49985
-0.260725
1.75546
-0.295419
2.04713
-0.323984
2.37861
-0.342387
2.75337
-0.343658
3.17475
-0.323577
3.05186
-0.291822
2.46212
-0.253869
2.00076
-0.212531
1.63309
-0.169756
1.33333
-0.125337
1.0705
-0.0779041
0.80097
-0.0341928
0.497532
-0.00738861
0.211201
0.0338861
-0.00909358
0.319389
-0.0373555
0.747436
-0.0744753
1.05238
-0.112026
1.29604
-0.148765
1.53659
-0.183561
1.79026
-0.214874
2.07844
-0.239815
2.40355
-0.253842
2.7674
-0.250274
3.17118
-0.227995
3.02958
-0.194831
2.42896
-0.156159
1.96209
-0.116497
1.59342
-0.0777081
1.29454
-0.0415493
1.03434
-0.0125274
0.771948
0.0031925
0.481812
0.00395886
0.210435
0.037845
0.00358885
0.3158
-0.0159812
0.767006
-0.0432078
1.07961
-0.0729974
1.32583
-0.103254
1.56685
-0.133053
1.82006
-0.160307
2.1057
-0.181927
2.42517
-0.193655
2.77912
-0.19028
3.16781
-0.168481
3.00778
-0.135919
2.39639
-0.100284
1.92645
-0.0652085
1.55835
-0.0327836
1.26212
-0.00569041
1.00725
0.0129498
0.753308
0.0161477
0.478614
0.00746503
0.219118
0.04531
0.00359645
0.312203
-0.00673231
0.777335
-0.0269926
1.09987
-0.051407
1.35024
-0.076361
1.5918
-0.101535
1.84523
-0.125031
2.12919
-0.143855
2.44399
-0.153844
2.78911
-0.148973
3.16293
-0.127683
2.98649
-0.10052
2.36923
-0.0717434
1.89768
-0.043557
1.53016
-0.0177067
1.23627
0.00381028
0.985729
0.0167016
0.740416
0.0168385
0.478477
0.00675272
0.229204
0.0520627
0.00601572
0.306188
-0.000946109
0.784296
-0.0187243
1.11765
-0.0393935
1.37091
-0.0606661
1.61307
-0.082532
1.8671
-0.103132
2.14979
-0.119774
2.46063
-0.12883
2.79817
-0.125281
3.15939
-0.108852
2.97006
-0.0858018
2.34618
-0.0600993
1.87198
-0.0349953
1.50506
-0.0122911
1.21356
0.00571455
0.967723
0.0148085
0.731322
0.012891
0.480394
0.00464657
0.237448
0.0567093
0.00614005
0.300048
0.00110743
0.789329
-0.0144491
1.13321
-0.0328622
1.38932
-0.0518805
1.63209
-0.0713449
1.88656
-0.0898256
2.16827
-0.105023
2.47583
-0.113572
2.80672
-0.110896
3.15671
-0.0951525
2.95432
-0.0735372
2.32456
-0.0515519
1.84999
-0.0307536
1.48426
-0.0128231
1.19563
0.00106381
0.953837
0.00847102
0.723915
0.00778092
0.481084
0.00268832
0.242541
0.0593976
0.00415444
0.295893
0.000630641
0.792853
-0.0128637
1.1467
-0.0295917
1.40605
-0.0472641
1.64976
-0.0651626
1.90446
-0.082335
2.18544
-0.0970069
2.4905
-0.106175
2.81588
-0.105498
3.15603
-0.0927493
2.94157
-0.0747754
2.30659
-0.0556212
1.83084
-0.037401
1.46604
-0.020702
1.17893
-0.00768623
0.940821
-0.0011041
0.717333
0.000821729
0.479159
0.000459962
0.242902
0.0598576
0.00270691
0.293186
-0.000213494
0.795773
-0.0123298
1.15882
-0.0280513
1.42177
-0.044937
1.66665
-0.06197
1.92149
-0.0784734
2.20195
-0.0929465
2.50498
-0.102307
2.82524
-0.101843
3.15557
-0.0902586
2.92999
-0.0735483
2.28988
-0.0553245
1.81261
-0.0371559
1.44787
-0.0233649
1.16514
-0.0133955
0.930851
-0.00700186
0.710939
-0.00476594
0.476923
-0.00152069
0.239657
0.0583369
2.2167e-05
0.293164
-0.00282915
0.798625
-0.0133921
1.16938
-0.0279333
1.43631
-0.0439374
1.68265
-0.0604912
1.93805
-0.0767628
2.21822
-0.0913769
2.51959
-0.101726
2.83559
-0.103892
3.15773
-0.0948332
2.92093
-0.0786601
2.27371
-0.0617364
1.79569
-0.0481572
1.43429
-0.0343355
1.15132
-0.0228828
0.919399
-0.0144198
0.702476
-0.00742592
0.469929
-0.00231094
0.234542
0.0560259
-0.000480808
0.293645
-0.0051318
0.803276
-0.0151412
1.17939
-0.0284876
1.44966
-0.0436577
1.69782
-0.0597947
1.95418
-0.0760701
2.2345
-0.0910948
2.53462
-0.102491
2.84699
-0.10597
3.16121
-0.0971937
2.91215
-0.0834802
2.25999
-0.0685823
1.78079
-0.0519721
1.41768
-0.0374748
1.13682
-0.0254836
0.907407
-0.0161549
0.693148
-0.0092896
0.463064
-0.00294762
0.2282
0.0530783
-0.0025123
0.296157
-0.00769907
0.808462
-0.0171335
1.18882
-0.0294059
1.46193
-0.0437592
1.71218
-0.0595103
1.96993
-0.0759088
2.25089
-0.0916463
2.55035
-0.104501
2.85984
-0.110445
3.16716
-0.105253
2.90696
-0.0914726
2.24621
-0.0735801
1.7629
-0.0580593
1.40216
-0.0447284
1.12349
-0.033379
0.896058
-0.0222365
0.682005
-0.0109598
0.451787
-0.00339288
0.220633
0.0496854
-0.00390824
0.300066
-0.00925709
0.813811
-0.0184492
1.19801
-0.0302774
1.47376
-0.0440196
1.72592
-0.0593697
1.98528
-0.0758535
2.26738
-0.0922694
2.56677
-0.106445
2.87402
-0.114714
3.17543
-0.111505
2.90375
-0.099234
2.23394
-0.083933
1.7476
-0.0665001
1.38473
-0.050427
1.10742
-0.0350705
0.880701
-0.0226328
0.669567
-0.0125022
0.441656
-0.00380083
0.211932
0.0458846
-0.0044397
0.304505
-0.0105642
0.819936
-0.0195818
1.20703
-0.030992
1.48517
-0.0442495
1.73918
-0.0592732
2.00031
-0.0758271
2.28393
-0.0929647
2.58391
-0.109018
2.89007
-0.12062
3.18703
-0.120305
2.90344
-0.109306
2.22294
-0.0910018
1.72929
-0.0733347
1.36706
-0.0565955
1.09068
-0.0433591
0.867465
-0.029644
0.655852
-0.0144559
0.426468
-0.0042414
0.201717
0.0416432
-0.0044301
0.308935
-0.0109896
0.826495
-0.020071
1.21611
-0.031303
1.4964
-0.0443032
1.75218
-0.0590563
2.01506
-0.0755857
2.30046
-0.0932435
2.60156
-0.110301
2.90713
-0.12262
3.19935
-0.124278
2.90509
-0.116208
2.21487
-0.10165
1.71474
-0.0810859
1.3465
-0.0618002
1.07139
-0.0434621
0.849127
-0.0275994
0.63999
-0.0147858
0.413654
-0.00418671
0.191118
0.0374565
-0.00442157
0.313357
-0.011418
0.833492
-0.0203474
1.22504
-0.0312769
1.50733
-0.0440203
1.76492
-0.0585742
2.02961
-0.0751149
2.317
-0.0932602
2.61971
-0.111916
2.92579
-0.12907
3.2165
-0.136536
2.91256
-0.127841
2.20618
-0.108857
1.69575
-0.0887197
1.32636
-0.0678206
1.05049
-0.050543
0.831849
-0.0341553
0.623602
-0.0162284
0.395728
-0.00401419
0.178904
0.0334423
-0.00438102
0.317738
-0.0113815
0.840492
-0.0201689
1.23383
-0.0308821
1.51804
-0.0434159
1.77745
-0.0577739
2.04397
-0.074297
2.33352
-0.0928079
2.63822
-0.112424
2.9454
-0.129876
3.23395
-0.137173
2.91986
-0.133527
2.20253
-0.121739
1.68396
-0.0993217
1.30394
-0.0743031
1.02548
-0.0475392
0.805085
-0.0266173
0.60268
-0.0129329
0.382043
-0.00306682
0.169038
0.0303755
-0.00440432
0.322142
-0.0114483
0.847536
-0.0199175
1.2423
-0.0302483
1.52838
-0.0424444
1.78965
-0.05657
2.0581
-0.0729981
2.34995
-0.0916591
2.65688
-0.112105
2.96585
-0.132743
3.25459
-0.146504
2.93362
-0.145227
2.20125
-0.129571
1.66831
-0.107843
1.28221
-0.0793355
0.996968
-0.0528829
0.778633
-0.0283925
0.57819
-0.0100638
0.363715
-0.0025923
0.161567
0.0277832
-0.00431418
0.326456
-0.0111486
0.85437
-0.0193614
1.25051
-0.0293726
1.53839
-0.0412238
1.8015
-0.0550533
2.07193
-0.0713424
2.36624
-0.0902964
2.67584
-0.111909
2.98746
-0.134466
3.27715
-0.149221
2.94837
-0.152258
2.20429
-0.144104
1.66015
-0.121184
1.25929
-0.0892385
0.965023
-0.046989
0.736383
-0.00527675
0.536477
0.0179415
0.340496
0.0199758
0.159532
0.047759
-0.00419281
0.330649
-0.0109419
0.86112
-0.018816
1.25839
-0.0283828
1.54795
-0.0397735
1.81289
-0.0532456
2.0854
-0.0693368
2.38233
-0.0882751
2.69477
-0.110098
3.00929
-0.133445
3.30049
-0.152278
2.96721
-0.161243
2.21326
-0.152925
1.65184
-0.132525
1.23889
-0.0977717
0.93027
-0.0550866
0.693698
-0.00121069
0.482601
0.0302597
0.309026
0.0142772
0.175515
0.0620362
-0.00395755
0.334607
-0.0104154
0.867577
-0.0180057
1.26598
-0.0272054
1.55715
-0.0382195
1.82391
-0.0512963
2.09848
-0.0670963
2.39813
-0.0860212
2.7137
-0.108564
3.03183
-0.134592
3.32652
-0.156177
2.98879
-0.165422
2.2225
-0.166627
1.65304
-0.15093
1.2232
-0.118122
0.897462
-0.0555569
0.631133
0.0435467
0.383498
0.149721
0.202852
0.167314
0.157921
0.229351
-0.0037955
0.338402
-0.010224
0.874006
-0.0176915
1.27344
-0.0267852
1.56625
-0.0378684
1.83499
-0.0513044
2.11191
-0.0679318
2.41476
-0.0883303
2.7341
-0.113258
3.05676
-0.142593
3.35586
-0.169108
3.01531
-0.189254
2.24265
-0.192495
1.65628
-0.180587
1.21129
-0.149732
0.866607
-0.113221
0.594622
-0.13343
0.403707
-0.367567
0.436989
-0.919774
0.710127
0.891017
-1.58144
-0.00356883
0.341971
-0.00969113
0.880128
-0.0169607
1.28071
-0.0258926
1.57518
-0.0368561
1.84595
-0.050316
2.12537
-0.0672027
2.43165
-0.0883706
2.75526
-0.115228
3.08361
-0.148844
3.38947
-0.182352
3.04881
-0.204729
2.26502
-0.226489
1.67804
-0.234811
1.21961
-0.235196
0.866992
-0.312534
0.67196
-0.685864
0.777038
-1.39677
1.1479
-2.01277
1.32613
1.22154
-2.34329
-0.00338829
0.345359
-0.00929224
0.886032
-0.0162912
1.28771
-0.0249495
1.58384
-0.035697
1.8567
-0.0491244
2.1388
-0.0662859
2.44881
-0.0882671
2.77725
-0.116642
3.11199
-0.153294
3.42613
-0.190785
3.0863
-0.226774
2.30101
-0.252536
1.7038
-0.264964
1.23204
-0.353168
0.955196
-0.741509
1.0603
-1.49598
1.53151
-2.08328
1.73519
-2.32941
1.57226
1.33895
-2.44683
-0.00312332
0.348483
-0.00861857
0.891527
-0.0153428
1.29444
-0.0237786
1.59227
-0.0343516
1.86727
-0.0477524
2.1522
-0.0650598
2.46612
-0.0875814
2.79977
-0.117557
3.14196
-0.157719
3.46629
-0.202995
3.13158
-0.241102
2.33912
-0.285731
1.74843
-0.380265
1.32657
-0.697135
1.27207
-1.40366
1.76682
-2.00519
2.13305
-2.25085
1.98085
-2.36761
1.68902
1.4062
-2.43486
-0.0028795
0.351362
-0.00806675
0.896715
-0.0144507
1.30082
-0.0225506
1.60037
-0.0328983
1.87762
-0.0461638
2.16547
-0.0635861
2.48354
-0.0867548
2.82294
-0.118229
3.17344
-0.162011
3.51007
-0.213317
3.18289
-0.26773
2.39353
-0.323637
1.80434
-0.494567
1.4975
-1.06153
1.83903
-1.75388
2.45917
-2.09189
2.47106
-2.24691
2.13586
-2.33227
1.77438
1.47302
-2.39909
-0.00273101
0.354093
-0.00769389
0.901677
-0.0140438
1.30717
-0.0221885
1.60852
-0.0327698
1.8882
-0.0462768
2.17897
-0.0641232
2.50138
-0.0879976
2.84681
-0.12084
3.20628
-0.167212
3.55644
-0.224513
3.24019
-0.279603
2.44862
-0.374726
1.89946
-0.742325
1.8651
-1.45694
2.55365
-1.94921
2.95145
-2.1552
2.67705
-2.26467
2.24533
-2.34281
1.85252
1.53861
-2.4084
-0.00274103
0.356834
-0.00802621
0.906963
-0.0146845
1.31383
-0.0231791
1.61701
-0.0341687
1.89919
-0.0481851
2.19299
-0.0667553
2.51996
-0.0917537
2.87181
-0.126634
3.24116
-0.177907
3.60771
-0.241266
3.30355
-0.312117
2.51947
-0.497214
2.08456
-1.01504
2.38293
-1.6459
3.18451
-1.93996
3.24551
-2.09217
2.82926
-2.21016
2.36332
-2.30568
1.94804
1.60311
-2.37018
-0.00267734
0.359512
-0.00801626
0.912302
-0.0150533
1.32087
-0.0240315
1.62599
-0.0355411
1.9107
-0.0502326
2.20768
-0.0696176
2.53934
-0.0957325
2.89792
-0.131975
3.2774
-0.183602
3.65934
-0.248306
3.36825
-0.339756
2.61092
-0.607945
2.35275
-1.22476
2.99974
-1.73271
3.69247
-1.94637
3.45917
-2.09346
2.97635
-2.22413
2.49398
-2.34151
2.06542
1.66524
-2.40363
-0.00255105
0.362063
-0.00832362
0.918074
-0.0157401
1.32828
-0.0251293
1.63538
-0.0370577
1.92263
-0.0522593
2.22288
-0.072336
2.55942
-0.0994202
2.92501
-0.137486
3.31547
-0.195228
3.71708
-0.270116
3.44314
-0.393321
2.73413
-0.750334
2.70976
-1.37012
3.61952
-1.74388
4.06623
-1.92658
3.64186
-2.03803
3.08781
-2.13606
2.59201
-2.21048
2.13985
1.66055
-2.2058
-0.0023639
0.364427
-0.00802952
0.92374
-0.0158557
1.33611
-0.0258062
1.64533
-0.038349
1.93517
-0.0542837
2.23882
-0.0752077
2.58034
-0.103469
2.95327
-0.143017
3.35502
-0.198804
3.77287
-0.275946
3.52028
-0.437458
2.89564
-0.865274
3.13758
-1.42401
4.17826
-1.70285
4.34507
-1.8707
3.80971
-1.97264
3.18974
-1.98209
2.60147
-1.92668
2.08443
1.64606
-1.9122
-0.00212187
0.366548
-0.00820744
0.929825
-0.0163597
1.34426
-0.0266387
1.65561
-0.0394556
1.94799
-0.055581
2.25494
-0.0766564
2.60142
-0.104921
2.98153
-0.144176
3.39427
-0.202791
3.83148
-0.291929
3.60942
-0.484083
3.08779
-0.938211
3.59171
-1.39191
4.63195
-1.5758
4.52897
-1.65345
3.88736
-1.66769
3.20398
-1.52934
2.46312
-1.03777
1.59286
0.608298
-0.00154069
0.368089
-0.00733096
0.935616
-0.0159158
1.35285
-0.0269285
1.66662
-0.04073
1.96179
-0.0581059
2.27232
-0.0808742
2.62418
-0.11152
3.01218
-0.154574
3.43733
-0.215757
3.89267
-0.312081
3.70574
-0.548329
3.32404
-1.05954
4.10292
-1.44228
5.01469
-1.55309
4.63977
-1.56328
3.89756
-1.47408
3.11478
-1.23644
2.22548
-0.659319
1.01574
-0.051021
-0.00115705
0.369246
-0.00703149
0.94149
-0.0159104
1.36173
-0.0274248
1.67814
-0.0418578
1.97622
-0.060173
2.29063
-0.0843152
2.64833
-0.117133
3.045
-0.1635
3.48369
-0.233085
3.96225
-0.352492
3.82515
-0.638199
3.60975
-1.17215
4.63687
-1.46489
5.30743
-1.5377
4.71258
-1.52567
3.88553
-1.32403
2.91314
-0.813914
1.71536
-0.125351
0.327176
-0.176372
-0.000294751
0.369541
-0.005135
0.94633
-0.0143137
1.3709
-0.0265625
1.69038
-0.0418618
1.99152
-0.0613043
2.31008
-0.087032
2.67405
-0.1219
3.07987
-0.171133
3.53293
-0.244659
4.03578
-0.377648
3.95814
-0.711951
3.94405
-1.23946
5.16438
-1.44009
5.50806
-1.48047
4.75296
-1.4064
3.81146
-1.12124
2.62798
-0.353007
0.947129
0.0360662
-0.0618966
-0.140305
0.000718649
0.368822
-0.00373501
0.950784
-0.0130419
1.38021
-0.0257166
1.70306
-0.0413662
2.00717
-0.0615916
2.3303
-0.0883743
2.70084
-0.12487
3.11636
-0.176802
3.58486
-0.258537
4.11751
-0.417354
4.11696
-0.796669
4.32337
-1.28321
5.65092
-1.42013
5.64498
-1.42738
4.76021
-1.25145
3.63554
-0.749992
2.12652
-0.0818593
0.278996
0.0382773
-0.182033
-0.102028
0.00263314
0.366189
0.000156772
0.95326
-0.00958403
1.38995
-0.0228
1.71628
-0.0390143
2.02339
-0.0600028
2.35129
-0.0879162
2.72875
-0.12591
3.15436
-0.178933
3.63788
-0.265417
4.204
-0.438008
4.28955
-0.864049
4.74941
-1.27003
6.0569
-1.34742
5.72237
-1.3261
4.73889
-1.06079
3.37023
-0.389724
1.45545
-0.0274172
-0.0833109
0.0064561
-0.215906
-0.095572
0.00399286
0.362196
0.00241606
0.954837
-0.00670574
1.39907
-0.0192966
1.72887
-0.0353964
2.03949
-0.0568208
2.37271
-0.085073
2.757
-0.123025
3.19231
-0.176967
3.69182
-0.269513
4.29654
-0.459467
4.4795
-0.90941
5.19935
-1.22199
6.36948
-1.27409
5.77447
-1.18397
4.64877
-0.85173
3.03799
-0.156616
0.760331
0.0045743
-0.244502
0.0016489
-0.212981
-0.0939231
0.00641783
0.355778
0.00692269
0.954332
-0.000111491
1.40611
-0.0128051
1.74156
-0.0292323
2.05591
-0.0507228
2.39421
-0.0787147
2.78499
-0.117152
3.23074
-0.171489
3.74616
-0.266844
4.3919
-0.467704
4.68036
-0.907879
5.63953
-1.1321
6.5937
-1.14791
5.79028
-0.985813
4.48668
-0.538317
2.59049
0.00174296
0.220272
0.0330478
-0.275806
0.0206518
-0.200585
-0.0732713
0.00896904
0.346809
0.0121072
0.951194
0.00642191
1.41179
-0.00426544
1.75225
-0.0205162
2.07217
-0.0414738
2.41516
-0.0684838
2.812
-0.105085
3.26735
-0.156755
3.79783
-0.251397
4.48654
-0.459878
4.88884
-0.859444
6.03909
-1.02403
6.75829
-1.05464
5.82089
-0.842352
4.27438
-0.305757
2.0539
-0.00910037
-0.0763852
-0.0026155
-0.282291
0.013405
-0.216606
-0.0598664
0.0130464
0.333763
0.0204312
0.943809
0.0171698
1.41505
0.00709621
1.76232
-0.00861495
2.08788
-0.0274893
2.43404
-0.0524114
2.83693
-0.0860172
3.30095
-0.133724
3.84554
-0.224561
4.57738
-0.431353
5.09563
-0.757879
6.36562
-0.867312
6.86772
-0.870918
5.8245
-0.667525
4.07099
-0.145282
1.53165
-0.0431234
-0.178544
-0.0225269
-0.302888
0.0142171
-0.25335
-0.0456492
0.0174765
0.316287
0.0297294
0.931556
0.0296407
1.41514
0.0216904
1.77027
0.0087882
2.10078
-0.0075371
2.45036
-0.0299979
2.85939
-0.0603924
3.33135
-0.101761
3.88691
-0.178344
4.65396
-0.353316
5.2706
-0.589541
6.60184
-0.687226
6.96541
-0.728638
5.86591
-0.588243
3.9306
-0.257545
1.20095
-0.275699
-0.160389
-0.174438
-0.404149
-0.0588758
-0.368911
-0.104525
0.0234765
0.29281
0.04275
0.912283
0.0472558
1.41064
0.0418714
1.77566
0.0317595
2.11089
0.0177274
2.46439
-0.000856812
2.87797
-0.0235275
3.35402
-0.0551653
3.91854
-0.110899
4.70969
-0.236753
5.39646
-0.381503
6.74659
-0.464253
7.04816
-0.553597
5.95526
-0.585583
3.96258
-0.596462
1.21183
-0.647987
-0.108864
-0.469045
-0.583091
-0.233289
-0.604668
-0.337814
0.0296883
0.263122
0.0573119
0.884659
0.0680694
1.39988
0.0675479
1.77618
0.0611638
2.11727
0.0515199
2.47404
0.0395127
2.88998
0.0236885
3.36984
0.00416934
3.93806
-0.0133212
4.72719
-0.0451745
5.42831
-0.0852748
6.78669
-0.129994
7.09288
-0.1968
6.02206
-0.326155
4.09194
-0.584759
1.47044
-0.727893
0.0342695
-0.586429
-0.724555
-0.319037
-0.87206
-0.656851
0.0372176
0.225904
0.0761378
0.845739
0.0952821
1.38074
0.0998511
1.77161
0.0979987
2.11913
0.0935978
2.47844
0.0893235
2.89425
0.0846891
3.37447
0.0870933
3.93566
0.0989404
4.71534
0.168659
5.35859
0.310138
6.64522
0.410031
6.99299
0.533463
5.89863
0.448382
4.17702
0.0455387
1.87328
-0.288095
0.367904
-0.407152
-0.605498
-0.247041
-1.03217
-0.903892
0.0436325
0.182272
0.0960333
0.793338
0.125841
1.35093
0.137659
1.75979
0.142343
2.11444
0.143255
2.47753
0.147229
2.89028
0.156756
3.36495
0.177719
3.9147
0.237208
4.65585
0.405453
5.19035
0.843123
6.20755
1.2003
6.63581
1.59196
5.50697
1.63665
4.13233
1.16038
2.34955
0.714265
0.814022
0.270208
-0.161441
0.0691003
-0.831063
-0.834792
0.0484723
0.133799
0.118321
0.72349
0.162765
1.30648
0.183803
1.73875
0.196254
2.10199
0.204123
2.46966
0.218449
2.87595
0.237968
3.34543
0.280022
3.87264
0.395191
4.54068
0.651382
4.93416
1.27496
5.58397
1.68744
6.22333
2.00362
5.19079
2.09046
4.04548
1.75841
2.6816
1.28209
1.29034
0.826915
0.293737
0.337235
-0.341383
-0.497557
0.0461944
0.087605
0.137872
0.631812
0.202051
1.2423
0.235407
1.7054
0.256227
2.08117
0.270746
2.45514
0.291859
2.85484
0.325139
3.31215
0.377704
3.82008
0.506391
4.41199
0.804232
4.63632
1.46211
4.9261
1.86405
5.82139
2.11815
4.93669
2.21108
3.95255
1.97425
2.91843
1.45882
1.80577
0.913618
0.838942
0.383528
0.188708
-0.114029
0.0382102
0.0493948
0.155805
0.514217
0.244599
1.15351
0.294149
1.65585
0.324663
2.05066
0.34652
2.43328
0.372635
2.82873
0.413332
3.27145
0.459902
3.77351
0.568549
4.30335
0.800156
4.40471
1.31092
4.41533
1.7216
5.41071
1.86433
4.79396
1.88416
3.93272
1.71932
3.08327
1.33019
2.19489
0.851823
1.31731
0.365707
0.674824
0.251677
0.0318
0.0175948
0.177685
0.368332
0.292255
1.03894
0.359332
1.58877
0.399466
2.01052
0.431458
2.40129
0.458733
2.80145
0.492951
3.23723
0.526664
3.73979
0.590415
4.23959
0.707358
4.28777
1.02673
4.09596
1.43559
5.00185
1.50998
4.71957
1.47438
3.96831
1.33074
3.22692
1.04518
2.48045
0.656938
1.70555
0.264288
1.06747
0.515965
0.032838
-0.0152432
0.181446
0.219724
0.337192
0.883196
0.432087
1.49387
0.484378
1.95823
0.524368
2.3613
0.550463
2.77536
0.578248
3.20945
0.604732
3.71331
0.620666
4.22366
0.668975
4.23946
0.868525
3.89641
1.22333
4.64705
1.26679
4.6761
1.16721
4.0679
1.01413
3.38
0.784853
2.70973
0.478861
2.01155
0.179944
1.36639
0.69591
0.0325657
-0.047809
0.125873
0.126417
0.281587
0.727482
0.392708
1.38275
0.453213
1.89773
0.488358
2.32616
0.500497
2.76322
0.506081
3.20386
0.500076
3.71932
0.451946
4.27179
0.433808
4.25759
0.495945
3.83427
0.654434
4.48856
0.663653
4.66689
0.591446
4.14011
0.492539
3.4789
0.367542
2.83472
0.212564
2.16652
0.0700703
1.50888
0.76598
0.00845944
-0.0562684
0.0171374
0.117739
0.102775
0.641845
0.196126
1.2894
0.268824
1.82503
0.320896
2.27408
0.357377
2.72673
0.375503
3.18574
0.370775
3.72404
0.319106
4.32346
0.280825
4.29588
0.30466
3.81044
0.412202
4.38102
0.416423
4.66266
0.361567
4.19496
0.276013
3.56446
0.177479
2.93326
0.0786096
2.26539
0.00136652
1.58613
0.767347
-0.0165169
-0.0397515
-0.0424558
0.143678
-0.0177766
0.617166
0.0505101
1.22112
0.121816
1.75372
0.182553
2.21335
0.235404
2.67388
0.255169
3.16597
0.256368
3.72285
0.208184
4.37164
0.147811
4.35625
0.151531
3.80672
0.238134
4.29442
0.230248
4.67055
0.183583
4.24163
0.113582
3.63446
0.0510888
2.99575
-0.00170747
2.31819
-0.0288182
1.61324
0.738528
-0.0312927
-0.00845878
-0.0806193
0.193004
-0.0910947
0.627641
-0.0433851
1.17341
0.0270185
1.68332
0.0922869
2.14808
0.151035
2.61514
0.17563
3.14138
0.19021
3.70826
0.143694
4.41816
0.0628671
4.43708
0.0228551
3.84673
0.0886227
4.22865
0.0799174
4.67926
0.0339883
4.28756
-0.00473225
3.67318
-0.0385094
3.02953
-0.0650598
2.34474
-0.0586567
1.60684
0.679872
-0.0355353
0.0270765
-0.0939243
0.251393
-0.118711
0.652428
-0.0879801
1.14267
-0.0244449
1.61978
0.0432153
2.08042
0.108282
2.55007
0.15071
3.09895
0.176429
3.68255
0.134967
4.45962
0.026177
4.54587
-0.0506035
3.92351
-0.0275786
4.20562
-0.0322317
4.68391
-0.0533052
4.30863
-0.074314
3.69419
-0.0913339
3.04655
-0.100189
2.3536
-0.0745209
1.58117
0.605351