/*--------------------------------*- C++ -*----------------------------------*\
  =========                 |
  \\      /  F ield         | OpenFOAM: The Open Source CFD Toolbox
   \\    /   O peration     | Website:  https://openfoam.org
    \\  /    A nd           | Version:  9
     \\/     M anipulation  |
\*---------------------------------------------------------------------------*/
FoamFile
{
    format      ascii;
    class       volVectorField;
    location    "24";
    object      U;
}
// * * * * * * * * * * * * * * * * * * * * * * * * * * * * * * * * * * * * * //

dimensions      [0 1 -1 0 0 0 0];

internalField   nonuniform List<vector> 
2200
(
(0.878865 -0.0304119 0)
(1.0058 -0.0512853 0)
(1.00327 -0.0353856 0)
(1.00021 -0.0244079 0)
(0.999827 -0.0166044 0)
(1.00002 -0.0106135 0)
(1 -0.00672821 0)
(0.99992 -0.00416675 0)
(0.999881 -0.0022769 0)
(1.00016 -0.000764037 0)
(1.00004 0.0010146 0)
(0.999893 0.00253173 0)
(0.99993 0.00440043 0)
(1 0.00694476 0)
(1.00003 0.0107542 0)
(0.999792 0.0166988 0)
(1.00022 0.024485 0)
(1.00337 0.0353911 0)
(1.00583 0.0513156 0)
(0.878894 0.0304249 0)
(0.711973 -0.0327568 0)
(0.996641 -0.0629975 0)
(1.0334 -0.0561662 0)
(1.02506 -0.0464665 0)
(1.0161 -0.0361375 0)
(1.00975 -0.0264006 0)
(1.00587 -0.0182096 0)
(1.00368 -0.0114899 0)
(1.00256 -0.00611028 0)
(1.00206 -0.00170911 0)
(1.00208 0.00238623 0)
(1.00252 0.00673925 0)
(1.00359 0.0120089 0)
(1.00575 0.0186201 0)
(1.00959 0.0268081 0)
(1.01602 0.0365484 0)
(1.02495 0.0468234 0)
(1.03315 0.0565816 0)
(0.996502 0.063164 0)
(0.711729 0.0328217 0)
(0.535615 -0.0238793 0)
(0.969931 -0.056886 0)
(1.05626 -0.0546806 0)
(1.05209 -0.0487922 0)
(1.03619 -0.0406179 0)
(1.02436 -0.032622 0)
(1.0158 -0.024358 0)
(1.01041 -0.0163766 0)
(1.00731 -0.00898823 0)
(1.00594 -0.00240711 0)
(1.00586 0.00366036 0)
(1.00713 0.0101685 0)
(1.01025 0.0174011 0)
(1.01558 0.0253184 0)
(1.02422 0.0334298 0)
(1.03599 0.0412237 0)
(1.05182 0.0492926 0)
(1.05606 0.0546374 0)
(0.969361 0.0572234 0)
(0.534816 0.0239247 0)
(0.392598 -0.0135892 0)
(0.911914 -0.0462329 0)
(1.05747 -0.0467362 0)
(1.06919 -0.0439313 0)
(1.05449 -0.0378561 0)
(1.03935 -0.0313448 0)
(1.02772 -0.0245316 0)
(1.01908 -0.0174559 0)
(1.01339 -0.01015 0)
(1.01064 -0.00272726 0)
(1.01052 0.0045297 0)
(1.01313 0.0118909 0)
(1.01869 0.0190434 0)
(1.02735 0.0258621 0)
(1.03873 0.0324168 0)
(1.05381 0.0387609 0)
(1.06845 0.0446892 0)
(1.05637 0.0474697 0)
(0.91069 0.0465311 0)
(0.391099 0.0136813 0)
(0.308481 -0.00442426 0)
(0.847348 -0.0322157 0)
(1.04964 -0.0396534 0)
(1.07938 -0.0378752 0)
(1.06778 -0.0329483 0)
(1.05127 -0.027232 0)
(1.03826 -0.022134 0)
(1.0283 -0.0163161 0)
(1.02131 -0.00972266 0)
(1.01748 -0.00251216 0)
(1.01735 0.00491072 0)
(1.02095 0.0119826 0)
(1.02772 0.0183481 0)
(1.03728 0.0239154 0)
(1.05028 0.0287494 0)
(1.06675 0.0342749 0)
(1.07815 0.0389639 0)
(1.04803 0.0406021 0)
(0.844842 0.0326106 0)
(0.30606 0.00453433 0)
(0.265394 9.73485e-05 0)
(0.789655 -0.0198521 0)
(1.03365 -0.0312295 0)
(1.08392 -0.0318754 0)
(1.07742 -0.0284403 0)
(1.06055 -0.0234274 0)
(1.04689 -0.019037 0)
(1.0361 -0.0142274 0)
(1.02834 -0.0086118 0)
(1.02403 -0.00200402 0)
(1.0238 0.00524449 0)
(1.02769 0.0115489 0)
(1.03504 0.0167675 0)
(1.04578 0.0211888 0)
(1.05927 0.0253872 0)
(1.07598 0.0300251 0)
(1.08218 0.0331443 0)
(1.03116 0.0322172 0)
(0.7858 0.0202822 0)
(0.26212 5.54708e-06 0)
(0.242006 0.00109788 0)
(0.740304 -0.0118854 0)
(1.01422 -0.0240859 0)
(1.08419 -0.0259702 0)
(1.0831 -0.0239379 0)
(1.0677 -0.0199999 0)
(1.0538 -0.0160333 0)
(1.04269 -0.0118132 0)
(1.0345 -0.00699352 0)
(1.02974 -0.00120158 0)
(1.02933 0.00527914 0)
(1.0334 0.0108029 0)
(1.0412 0.0152597 0)
(1.05198 0.0191713 0)
(1.06564 0.0225099 0)
(1.08082 0.0260557 0)
(1.08143 0.0276847 0)
(1.01023 0.0252831 0)
(0.734639 0.0124035 0)
(0.237697 -0.000982986 0)
(0.228567 0.00111336 0)
(0.699596 -0.00749007 0)
(0.994326 -0.0193822 0)
(1.08166 -0.0216405 0)
(1.08607 -0.0202101 0)
(1.07252 -0.0170941 0)
(1.05904 -0.0137771 0)
(1.04837 -0.00976051 0)
(1.04058 -0.00521646 0)
(1.03593 -8.4211e-07 0)
(1.0355 0.00531637 0)
(1.03939 0.0101823 0)
(1.04653 0.0141649 0)
(1.05642 0.0173726 0)
(1.06979 0.0203423 0)
(1.08288 0.0229286 0)
(1.07775 0.0237848 0)
(0.988521 0.0209148 0)
(0.69165 0.0081498 0)
(0.223035 -0.0009693 0)
(0.220054 0.000748687 0)
(0.665838 -0.00502716 0)
(0.974839 -0.0163534 0)
(1.07837 -0.018671 0)
(1.08806 -0.0173862 0)
(1.07605 -0.0148409 0)
(1.06269 -0.0117445 0)
(1.05252 -0.00797487 0)
(1.04509 -0.00373958 0)
(1.04056 0.000926715 0)
(1.03986 0.00531451 0)
(1.04313 0.00956222 0)
(1.04957 0.0131903 0)
(1.05956 0.0163734 0)
(1.07244 0.0188276 0)
(1.08366 0.0206665 0)
(1.07283 0.0213522 0)
(0.966796 0.018204 0)
(0.655135 0.00581567 0)
(0.212987 -0.000560395 0)
(0.214546 0.00035755 0)
(0.640206 -0.002938 0)
(0.957777 -0.0126709 0)
(1.07572 -0.0151151 0)
(1.09042 -0.0140786 0)
(1.07921 -0.0120453 0)
(1.06557 -0.00942226 0)
(1.0551 -0.00607822 0)
(1.04749 -0.00224129 0)
(1.04284 0.00203019 0)
(1.04188 0.00609698 0)
(1.04496 0.00986962 0)
(1.05142 0.0128416 0)
(1.06086 0.0154456 0)
(1.0739 0.0168228 0)
(1.08459 0.0180879 0)
(1.06838 0.0184271 0)
(0.946874 0.0149094 0)
(0.626369 0.0039055 0)
(0.205663 -0.000118098 0)
(0.211649 0.000133062 0)
(0.623738 -0.00105824 0)
(0.943481 -0.00820571 0)
(1.07312 -0.0104571 0)
(1.09284 -0.00972664 0)
(1.0825 -0.00804673 0)
(1.06875 -0.00603506 0)
(1.05776 -0.00354115 0)
(1.04955 -0.000544542 0)
(1.04442 0.00309834 0)
(1.04328 0.00692805 0)
(1.04639 0.00981573 0)
(1.0532 0.0119477 0)
(1.063 0.0129875 0)
(1.07627 0.0143556 0)
(1.08527 0.0151892 0)
(1.06315 0.0147004 0)
(0.928625 0.0109114 0)
(0.605719 0.00227226 0)
(0.200297 0.000126781 0)
(0.21078 -4.55128e-05 0)
(0.614497 8.83166e-06 0)
(0.932183 -0.00432594 0)
(1.07068 -0.00650118 0)
(1.09524 -0.00612402 0)
(1.08607 -0.00443788 0)
(1.07258 -0.00245804 0)
(1.06166 -0.000379071 0)
(1.05318 0.00206157 0)
(1.04766 0.00480353 0)
(1.04613 0.00780391 0)
(1.04891 0.00962255 0)
(1.05537 0.0106971 0)
(1.06531 0.0115145 0)
(1.07788 0.0120072 0)
(1.08515 0.0121424 0)
(1.05756 0.0111391 0)
(0.91384 0.00747511 0)
(0.592848 0.00134866 0)
(0.196755 0.000224371 0)
(0.211262 -0.000102624 0)
(0.611541 0.000753464 0)
(0.925664 -0.0014708 0)
(1.06881 -0.00331187 0)
(1.09714 -0.00303392 0)
(1.08923 -0.00167191 0)
(1.07609 -7.33722e-05 0)
(1.06546 0.0018694 0)
(1.05729 0.0042384 0)
(1.05181 0.00660529 0)
(1.04973 0.00905503 0)
(1.05154 0.0103459 0)
(1.05688 0.0111792 0)
(1.06551 0.011662 0)
(1.07755 0.0110787 0)
(1.08381 0.0107669 0)
(1.05134 0.0094735 0)
(0.901097 0.00574094 0)
(0.583409 0.00121365 0)
(0.193665 0.000278186 0)
(0.212751 0.000148785 0)
(0.611733 0.0011275 0)
(0.920984 0.000301797 0)
(1.06717 -0.000960695 0)
(1.09829 -0.000622952 0)
(1.09096 0.000509889 0)
(1.07787 0.00199055 0)
(1.06715 0.00402529 0)
(1.05895 0.0063733 0)
(1.05335 0.00879557 0)
(1.0508 0.0110104 0)
(1.052 0.0121041 0)
(1.05695 0.0123438 0)
(1.06505 0.01208 0)
(1.07647 0.0110281 0)
(1.08129 0.0101793 0)
(1.04507 0.00831801 0)
(0.890827 0.0047283 0)
(0.576461 0.00126803 0)
(0.190909 0.00030338 0)
(0.215675 0.000408236 0)
(0.613659 0.0015449 0)
(0.919749 0.00205501 0)
(1.06648 0.00153789 0)
(1.09907 0.00200465 0)
(1.09219 0.00289913 0)
(1.07921 0.00410332 0)
(1.06833 0.00604825 0)
(1.05981 0.00838509 0)
(1.05374 0.0110104 0)
(1.05062 0.0131082 0)
(1.05126 0.0141049 0)
(1.05587 0.0139222 0)
(1.06371 0.0129796 0)
(1.07449 0.0117917 0)
(1.07776 0.0103611 0)
(1.03858 0.00792593 0)
(0.881485 0.0042825 0)
(0.569748 0.00132652 0)
(0.187919 0.000307297 0)
(0.219116 0.000432075 0)
(0.617649 0.00205475 0)
(0.920804 0.00352599 0)
(1.06652 0.00339 0)
(1.10039 0.00383741 0)
(1.09425 0.00487823 0)
(1.08173 0.00641415 0)
(1.07099 0.00872179 0)
(1.0622 0.0112997 0)
(1.05539 0.0142122 0)
(1.05127 0.0162315 0)
(1.05079 0.0171162 0)
(1.05433 0.016675 0)
(1.06125 0.0153289 0)
(1.07107 0.0133734 0)
(1.07263 0.0110133 0)
(1.03073 0.00777731 0)
(0.872236 0.00416781 0)
(0.563538 0.00150944 0)
(0.184965 0.000335115 0)
(0.224621 0.000533915 0)
(0.626148 0.00262978 0)
(0.924421 0.00482316 0)
(1.06746 0.00539744 0)
(1.10176 0.00585148 0)
(1.09682 0.00676132 0)
(1.08513 0.00863134 0)
(1.07488 0.0113542 0)
(1.06602 0.0144945 0)
(1.05855 0.0178389 0)
(1.05329 0.0198869 0)
(1.05155 0.0206098 0)
(1.05369 0.0198034 0)
(1.0594 0.0181594 0)
(1.06746 0.0157318 0)
(1.06718 0.0127729 0)
(1.02302 0.00907816 0)
(0.863613 0.0050846 0)
(0.556504 0.00203319 0)
(0.181192 0.000426885 0)
(0.22962 0.000630979 0)
(0.632774 0.00296272 0)
(0.928573 0.00576945 0)
(1.06916 0.00691119 0)
(1.10358 0.00771493 0)
(1.09966 0.00910436 0)
(1.0888 0.0115605 0)
(1.07876 0.0149568 0)
(1.0696 0.0188593 0)
(1.06125 0.0227322 0)
(1.05463 0.0249769 0)
(1.05154 0.0255209 0)
(1.05201 0.0244437 0)
(1.05619 0.0222465 0)
(1.06199 0.0191956 0)
(1.05937 0.0149884 0)
(1.01254 0.0103298 0)
(0.852409 0.00596852 0)
(0.54752 0.00258281 0)
(0.176356 0.000536471 0)
(0.237805 0.000849366 0)
(0.645958 0.00402492 0)
(0.937077 0.0079581 0)
(1.07251 0.0100569 0)
(1.10569 0.011215 0)
(1.10288 0.0128422 0)
(1.09288 0.0158717 0)
(1.08287 0.0198603 0)
(1.07302 0.0243089 0)
(1.06327 0.0284747 0)
(1.05503 0.0307169 0)
(1.05045 0.0306996 0)
(1.04945 0.028897 0)
(1.05199 0.0257906 0)
(1.05559 0.0219582 0)
(1.05077 0.0172931 0)
(1.0025 0.0123141 0)
(0.842285 0.00744544 0)
(0.537559 0.00324022 0)
(0.170403 0.000650484 0)
(0.246139 0.00111609 0)
(0.657857 0.00478638 0)
(0.945885 0.00962639 0)
(1.07733 0.0127171 0)
(1.10941 0.0151541 0)
(1.10742 0.0180662 0)
(1.09809 0.0219458 0)
(1.0879 0.0266641 0)
(1.07707 0.0317006 0)
(1.06569 0.0359657 0)
(1.05553 0.0378517 0)
(1.04899 0.0369523 0)
(1.04607 0.0342338 0)
(1.04651 0.0303428 0)
(1.04781 0.025539 0)
(1.04022 0.0198022 0)
(0.989036 0.0138961 0)
(0.826986 0.00851363 0)
(0.523811 0.00381225 0)
(0.162901 0.00075902 0)
(0.259148 0.00144392 0)
(0.677735 0.00669612 0)
(0.960536 0.0132421 0)
(1.08555 0.0177986 0)
(1.1154 0.0211888 0)
(1.11381 0.0249205 0)
(1.10466 0.0298033 0)
(1.09386 0.0353924 0)
(1.08159 0.0409241 0)
(1.06796 0.0450717 0)
(1.05519 0.0463121 0)
(1.04634 0.0442732 0)
(1.04149 0.0401924 0)
(1.03974 0.0348803 0)
(1.03866 0.028942 0)
(1.02901 0.0227545 0)
(0.976749 0.0165435 0)
(0.814616 0.0105976 0)
(0.510277 0.00467345 0)
(0.154585 0.000884853 0)
(0.274297 0.00201383 0)
(0.700705 0.00812021 0)
(0.978581 0.0166724 0)
(1.09713 0.0229431 0)
(1.12413 0.02818 0)
(1.12212 0.0339184 0)
(1.11243 0.0403457 0)
(1.1004 0.0468951 0)
(1.08616 0.052898 0)
(1.07003 0.0567732 0)
(1.05465 0.0568302 0)
(1.04316 0.0530752 0)
(1.0358 0.0474204 0)
(1.0317 0.0410653 0)
(1.02837 0.0341083 0)
(1.01605 0.0269071 0)
(0.959977 0.0196142 0)
(0.793007 0.0124996 0)
(0.489408 0.00554565 0)
(0.143536 0.00105911 0)
(0.295834 0.00288661 0)
(0.731715 0.011982 0)
(1.00235 0.0224655 0)
(1.11261 0.0309203 0)
(1.13612 0.037767 0)
(1.13293 0.045621 0)
(1.12181 0.0533014 0)
(1.10758 0.0610056 0)
(1.09048 0.0672951 0)
(1.0709 0.0704555 0)
(1.05181 0.0690125 0)
(1.0373 0.0636623 0)
(1.0279 0.0562922 0)
(1.02173 0.0480689 0)
(1.01631 0.0397189 0)
(1.00198 0.0314884 0)
(0.944054 0.0234201 0)
(0.776318 0.0154307 0)
(0.470647 0.00677838 0)
(0.13204 0.0011612 0)
(0.326411 0.00400381 0)
(0.773844 0.0148407 0)
(1.03387 0.0297069 0)
(1.13392 0.0408729 0)
(1.15264 0.0506567 0)
(1.14662 0.0608634 0)
(1.13249 0.070676 0)
(1.115 0.079349 0)
(1.0943 0.0855637 0)
(1.071 0.087731 0)
(1.04862 0.0844055 0)
(1.03115 0.0765531 0)
(1.0187 0.0669897 0)
(1.01006 0.0572619 0)
(1.00251 0.0475745 0)
(0.985367 0.0382323 0)
(0.921996 0.0286033 0)
(0.74495 0.0184419 0)
(0.438652 0.00776283 0)
(0.116084 0.00132386 0)
(0.363015 0.00790163 0)
(0.825228 0.0245643 0)
(1.07381 0.0419737 0)
(1.16067 0.0570804 0)
(1.17299 0.0685748 0)
(1.16273 0.0823005 0)
(1.14452 0.0932316 0)
(1.12277 0.102098 0)
(1.09752 0.107615 0)
(1.06942 0.107895 0)
(1.04227 0.101813 0)
(1.02114 0.0915338 0)
(1.00687 0.0800395 0)
(0.996438 0.0682382 0)
(0.986692 0.0568516 0)
(0.966567 0.0456126 0)
(0.898895 0.0342722 0)
(0.720073 0.022466 0)
(0.413382 0.00967341 0)
(0.101738 0.00126855 0)
(0.446573 0.0115093 0)
(0.904994 0.0346466 0)
(1.12633 0.0615889 0)
(1.19357 0.0798781 0)
(1.19885 0.0960995 7.86261e-35)
(1.18113 0.111534 -5.16216e-35)
(1.15719 0.122488 0)
(1.12983 0.130762 0)
(1.09928 0.134465 0)
(1.06639 0.13205 0)
(1.03567 0.122973 0)
(1.01175 0.109708 0)
(0.993733 0.095337 0)
(0.980382 0.0816382 0)
(0.968398 0.0686419 0)
(0.944456 0.0561714 0)
(0.868713 0.0427491 0)
(0.674475 0.0276434 0)
(0.362785 0.0101664 0)
(0.0784616 0.00101745 0)
(0.513928 0.0265159 -6.71274e-21)
(0.996132 0.058982 4.45414e-21)
(1.18345 0.0940037 0)
(1.22958 0.115848 1.17033e-21)
(1.22518 0.135084 -9.48319e-22)
(1.19912 0.150051 5.44632e-35)
(1.16875 0.159942 0)
(1.13524 0.166625 4.9306e-21)
(1.09889 0.167885 -1.76301e-20)
(1.06013 0.162499 3.88542e-21)
(1.02337 0.149878 0)
(0.994269 0.133026 -1.26732e-20)
(0.974329 0.116727 -1.5849e-20)
(0.958986 0.100843 2.78684e-20)
(0.943091 0.0858668 -2.24062e-20)
(0.912234 0.0704987 0)
(0.823628 0.053496 -8.59577e-21)
(0.615338 0.034398 0)
(0.313073 0.0147838 -4.64714e-20)
(0.0606716 0.00178181 5.49823e-20)
(0.543608 0.0548725 -1.00602e-23)
(1.0499 0.102295 -4.29168e-20)
(1.22775 0.145569 1.1636e-20)
(1.26243 0.164421 1.64452e-20)
(1.24904 0.183266 -1.29639e-21)
(1.21504 0.19622 2.86957e-21)
(1.1781 0.204299 0)
(1.13824 0.208921 0)
(1.09567 0.207649 2.76127e-20)
(1.05072 0.199269 0)
(1.00902 0.183354 4.35678e-20)
(0.97647 0.165195 1.35968e-20)
(0.950216 0.146659 3.33849e-22)
(0.928972 0.129458 -3.12695e-20)
(0.909518 0.113404 0)
(0.875059 0.098065 0)
(0.784099 0.0771156 -1.4494e-19)
(0.58364 0.0541518 3.63494e-19)
(0.300284 0.0245562 -2.15966e-19)
(0.0593027 0.00576213 -2.56061e-19)
(0.546935 0.0787274 7.66045e-20)
(1.07931 0.160161 -2.245e-20)
(1.26054 0.207673 -5.86888e-21)
(1.28872 0.223923 -3.18062e-20)
(1.2677 0.239746 1.37517e-20)
(1.22719 0.248665 -2.44914e-21)
(1.18428 0.253404 4.84771e-21)
(1.13846 0.254893 0)
(1.08987 0.250547 -5.72367e-20)
(1.03888 0.239218 6.35093e-20)
(0.991312 0.221441 -1.19118e-19)
(0.952585 0.200059 5.80948e-20)
(0.924164 0.180263 -4.28368e-20)
(0.90171 0.162358 9.37976e-20)
(0.878671 0.145957 0)
(0.84214 0.12968 -3.68447e-20)
(0.754914 0.109013 0)
(0.570121 0.0768454 2.08647e-19)
(0.304176 0.0413103 -4.95182e-19)
(0.0707446 0.00957154 3.10701e-19)
(0.535806 0.110982 -3.65561e-19)
(1.09413 0.218842 1.45973e-19)
(1.28035 0.274465 2.36081e-20)
(1.30628 0.288605 0)
(1.28009 0.301007 1.69528e-20)
(1.23479 0.305089 -1.8165e-20)
(1.18681 0.305877 -5.08889e-21)
(1.13562 0.303599 0)
(1.0816 0.295647 4.03968e-20)
(1.02539 0.280695 -4.36249e-20)
(0.972528 0.258671 1.04816e-19)
(0.930098 0.235377 0)
(0.897038 0.215144 -9.02646e-20)
(0.869997 0.197284 4.96733e-20)
(0.846451 0.180942 1.35168e-19)
(0.812282 0.165102 -1.18962e-19)
(0.731917 0.142097 1.96418e-19)
(0.563243 0.105214 -4.36121e-19)
(0.316963 0.0597642 2.76677e-19)
(0.0829929 0.0161762 -3.4685e-19)
(0.519646 0.135122 2.26512e-19)
(1.09716 0.273763 -1.66952e-19)
(1.29027 0.34163 7.37923e-20)
(1.31545 0.354059 -1.00967e-19)
(1.28569 0.363369 6.76307e-20)
(1.23717 0.363052 -1.09693e-20)
(1.18528 0.359962 3.66288e-21)
(1.12978 0.353705 -2.67101e-20)
(1.07133 0.34179 -4.03839e-20)
(1.01042 0.32316 -9.39296e-20)
(0.953816 0.298566 -2.26319e-19)
(0.909034 0.274513 -7.62405e-20)
(0.875012 0.252639 2.64539e-21)
(0.848546 0.233913 -1.79454e-19)
(0.822499 0.216772 -6.34415e-21)
(0.787059 0.198704 1.74954e-19)
(0.711875 0.174066 -5.44108e-20)
(0.557748 0.133377 -3.17261e-20)
(0.32659 0.0792238 0)
(0.0916127 0.0228781 7.45038e-19)
(0.500353 0.156352 0)
(1.08845 0.324116 5.19392e-20)
(1.29204 0.405719 3.60959e-20)
(1.31844 0.418063 -1.22595e-20)
(1.28618 0.425206 -8.25146e-20)
(1.23521 0.420858 1.69317e-20)
(1.18031 0.414077 1.90655e-21)
(1.12156 0.403887 4.80117e-20)
(1.05964 0.388103 -2.43323e-20)
(0.994847 0.365451 4.10554e-20)
(0.934076 0.337403 1.22157e-19)
(0.884536 0.308776 1.68933e-19)
(0.846756 0.284774 -1.05676e-19)
(0.81705 0.264933 1.94949e-19)
(0.794736 0.24813 -1.56639e-19)
(0.765298 0.232224 0)
(0.698698 0.207211 -4.16932e-19)
(0.555394 0.162048 5.6049e-19)
(0.332814 0.098063 4.23765e-20)
(0.0968341 0.0291497 -7.90859e-19)
(0.485097 0.177146 -5.43839e-21)
(1.07932 0.373381 -3.54696e-19)
(1.28892 0.467155 -2.72014e-19)
(1.31626 0.479613 2.26334e-19)
(1.2819 0.485109 -4.86566e-20)
(1.22932 0.477334 2.59725e-20)
(1.17227 0.46722 -8.75145e-21)
(1.11091 0.453389 -3.88656e-21)
(1.04569 0.43401 -8.53616e-20)
(0.977133 0.407891 6.47067e-22)
(0.913475 0.376639 -1.33539e-19)
(0.864931 0.346917 -1.80362e-19)
(0.830161 0.322692 1.1907e-19)
(0.804047 0.302601 -7.01605e-20)
(0.776806 0.284313 1.70723e-19)
(0.743109 0.263763 0)
(0.678112 0.236746 -2.58846e-19)
(0.543587 0.188443 3.82866e-19)
(0.331737 0.114732 7.32764e-19)
(0.0978867 0.034193 -8.59954e-19)
(0.469974 0.194856 -6.75719e-19)
(1.0649 0.418122 3.41329e-19)
(1.28188 0.5248 2.65426e-19)
(1.31055 0.538141 -2.4572e-19)
(1.27451 0.542588 1.12242e-20)
(1.22071 0.531775 7.041e-20)
(1.16193 0.518728 -1.91513e-21)
(1.0985 0.501626 -1.79242e-20)
(1.0309 0.47884 -5.30521e-20)
(0.960234 0.449052 9.24253e-20)
(0.89479 0.413395 1.26089e-19)
(0.842698 0.380143 2.82818e-19)
(0.802448 0.351933 0)
(0.770312 0.327934 5.59547e-21)
(0.749451 0.308689 -4.75214e-19)
(0.723746 0.293354 1.0923e-19)
(0.666191 0.26519 5.56886e-19)
(0.535492 0.212356 -1.63603e-19)
(0.32362 0.129428 3.47412e-19)
(0.0955971 0.037173 -2.90058e-20)
(0.460701 0.213865 6.17623e-21)
(1.05316 0.462153 3.16486e-19)
(1.27263 0.580054 2.01916e-19)
(1.30189 0.593986 -4.3958e-19)
(1.26428 0.597142 2.7901e-19)
(1.20975 0.583672 -8.7315e-20)
(1.1497 0.568141 -1.41714e-21)
(1.08468 0.548163 3.80546e-20)
(1.01504 0.522306 9.32337e-20)
(0.941798 0.489223 -1.19304e-19)
(0.873873 0.450921 0)
(0.820932 0.414855 -1.11747e-19)
(0.78445 0.38529 1.28295e-19)
(0.759154 0.362515 1.72937e-19)
(0.732244 0.343591 -9.91872e-20)
(0.700945 0.319513 -2.50789e-19)
(0.642458 0.289881 -7.61843e-20)
(0.518495 0.230532 -1.21138e-21)
(0.312631 0.139235 0)
(0.0908787 0.0397748 0)
(0.451965 0.229307 -3.35043e-19)
(1.03952 0.502473 0)
(1.26131 0.631696 2.31626e-19)
(1.29135 0.646907 -1.06793e-19)
(1.25255 0.648966 -2.89912e-19)
(1.19747 0.632927 8.00363e-20)
(1.13635 0.615233 -7.48405e-21)
(1.07001 0.592704 -1.72522e-20)
(0.998723 0.564129 5.82094e-20)
(0.923314 0.527846 -4.93651e-20)
(0.85287 0.485326 7.08647e-20)
(0.798464 0.444962 3.49055e-19)
(0.758178 0.413034 1.34924e-20)
(0.724406 0.385842 -1.76518e-19)
(0.703474 0.362221 3.41339e-19)
(0.680845 0.344346 4.50688e-21)
(0.628614 0.310518 8.15085e-20)
(0.504582 0.248273 -3.9551e-19)
(0.300288 0.146781 4.00821e-19)
(0.0851013 0.0414213 -4.78934e-19)
(0.445506 0.248412 3.40151e-23)
(1.02766 0.541908 0)
(1.24922 0.680839 0)
(1.27937 0.697115 9.95664e-20)
(1.23954 0.697868 1.13847e-19)
(1.18409 0.679469 -6.60909e-20)
(1.12208 0.659903 4.10229e-20)
(1.05466 0.635177 0)
(0.98175 0.604311 -9.52936e-20)
(0.904251 0.565404 1.74492e-19)
(0.831791 0.520032 2.16615e-19)
(0.775657 0.477548 -1.31663e-19)
(0.735292 0.441573 -1.65339e-19)
(0.711705 0.413489 3.91061e-19)
(0.686261 0.390489 -1.20751e-19)
(0.656806 0.364122 -1.46669e-19)
(0.602207 0.329543 -8.97253e-20)
(0.483496 0.259998 -4.29006e-19)
(0.286251 0.15216 6.05405e-20)
(0.0786791 0.0419369 5.20384e-19)
(0.441749 0.267204 -1.34099e-19)
(1.01589 0.578387 -2.11924e-19)
(1.23631 0.726514 2.36306e-20)
(1.2667 0.744459 4.54206e-23)
(1.22612 0.744193 3.67917e-20)
(1.17034 0.723558 -1.77568e-19)
(1.10748 0.702218 0)
(1.03902 0.675517 1.45483e-20)
(0.964563 0.642515 -1.14716e-20)
(0.884962 0.6009 2.75526e-19)
(0.809509 0.552323 -5.43329e-20)
(0.75082 0.505706 6.03408e-20)
(0.710774 0.467268 0)
(0.67602 0.434542 -2.13526e-19)
(0.656606 0.40716 2.66233e-19)
(0.635638 0.385001 0)
(0.585548 0.343235 -1.96268e-19)
(0.465209 0.27166 5.74143e-19)
(0.271079 0.155605 6.82323e-20)
(0.0718658 0.0414738 -6.44594e-19)
(0.439772 0.284209 -2.97967e-19)
(1.00589 0.613738 3.8239e-19)
(1.22344 0.769748 0)
(1.25359 0.789109 2.48162e-19)
(1.21234 0.787849 0)
(1.1563 0.765222 1.65768e-19)
(1.09265 0.742279 0)
(1.02323 0.713831 0)
(0.947353 0.679126 -3.33736e-20)
(0.865472 0.636004 -2.68659e-19)
(0.787493 0.585497 -4.03024e-19)
(0.727488 0.535481 7.63772e-20)
(0.685159 0.492715 2.85902e-19)
(0.66156 0.45924 2.40315e-19)
(0.637003 0.431206 -8.54356e-19)
(0.60906 0.398108 -3.53086e-19)
(0.55672 0.358907 2.05296e-19)
(0.440892 0.277708 0)
(0.254382 0.156947 5.90805e-19)
(0.0645272 0.0400215 -6.9922e-19)
(0.438334 0.299964 3.28786e-19)
(0.995632 0.646148 -4.20483e-19)
(1.21038 0.809635 0)
(1.24034 0.830832 -1.02825e-20)
(1.19857 0.828984 -1.01962e-19)
(1.14234 0.804673 0)
(1.07806 0.780252 -1.31903e-20)
(1.00782 0.750161 2.07265e-20)
(0.930618 0.713925 -4.18789e-20)
(0.847233 0.668563 2.6447e-20)
(0.767794 0.613809 0)
(0.70515 0.561423 3.05384e-19)
(0.660624 0.516607 4.04888e-21)
(0.624465 0.476057 1.30554e-19)
(0.605417 0.441097 1.5738e-19)
(0.586555 0.415672 0)
(0.538108 0.364905 -3.46095e-19)
(0.420579 0.283269 6.78547e-19)
(0.237174 0.156098 -7.21782e-19)
(0.0573814 0.0376734 1.51714e-18)
(0.43716 0.314924 0)
(0.986654 0.677811 0)
(1.1978 0.847389 -2.31277e-19)
(1.22711 0.869981 0)
(1.18484 0.867492 0)
(1.1285 0.841784 2.39466e-19)
(1.06371 0.816143 -1.68849e-20)
(0.99269 0.784622 1.70407e-20)
(0.914142 0.747107 -2.86559e-21)
(0.828008 0.700623 0)
(0.743396 0.64677 -6.48245e-20)
(0.677619 0.591669 -2.5312e-19)
(0.632555 0.539077 -3.17818e-19)
(0.608222 0.497877 -1.32041e-19)
(0.585094 0.463121 1.73198e-19)
(0.557927 0.422402 -4.11328e-19)
(0.507344 0.376152 7.48963e-19)
(0.393653 0.283885 6.35154e-21)
(0.219369 0.153122 -6.98014e-19)
(0.0503686 0.034815 -1.03521e-19)
(0.435874 0.329513 0)
(0.977465 0.707036 -3.28148e-19)
(1.18525 0.882238 2.58082e-19)
(1.21401 0.906436 0)
(1.17134 0.903554 0)
(1.11497 0.876723 -5.29805e-19)
(1.04983 0.850058 0)
(0.978219 0.817395 0)
(0.898618 0.778834 -7.09986e-20)
(0.811543 0.731718 5.13907e-20)
(0.727727 0.674515 -5.17451e-19)
(0.659086 0.614571 0)
(0.608141 0.563799 -3.45873e-19)
(0.567969 0.513961 1.14899e-20)
(0.548812 0.468796 -5.54231e-19)
(0.532586 0.434557 2.22911e-19)
(0.487253 0.372649 3.51471e-21)
(0.374723 0.281977 -7.98831e-19)
(0.203321 0.148821 3.79012e-19)
(0.0450465 0.0319758 1.10754e-19)
(0.434664 0.343648 0)
(0.969452 0.73567 -3.8727e-19)
(1.17333 0.915425 2.74867e-19)
(1.20123 0.940696 5.76515e-19)
(1.15815 0.937201 1.16381e-19)
(1.10181 0.909384 -8.06893e-20)
(1.03647 0.881951 4.97836e-20)
(0.964492 0.84828 -8.84562e-20)
(0.884061 0.808856 7.59482e-20)
(0.794985 0.760554 3.14604e-19)
(0.704466 0.702849 4.29135e-19)
(0.629831 0.643613 8.26652e-20)
(0.57708 0.584891 5.02029e-19)
(0.549014 0.533909 3.26115e-19)
(0.52517 0.488647 4.00211e-19)
(0.500536 0.431795 -2.49701e-19)
(0.454102 0.376953 -2.95004e-19)
(0.347325 0.27465 3.46603e-19)
(0.186117 0.139798 -2.04832e-19)
(0.0414956 0.0315542 3.61598e-19)
(0.433371 0.357314 5.09586e-19)
(0.961249 0.761881 6.15086e-19)
(1.16148 0.94601 1.51084e-19)
(1.18871 0.97255 1.61617e-20)
(1.14535 0.968631 -4.04719e-19)
(1.08912 0.940001 1.5352e-19)
(1.02365 0.911876 -5.7038e-20)
(0.951275 0.877448 -2.15031e-20)
(0.869801 0.837597 -6.70379e-20)
(0.778288 0.789111 -3.51573e-19)
(0.686267 0.731666 2.5712e-20)
(0.610459 0.669354 0)
(0.553995 0.611358 0)
(0.505323 0.551913 -1.65862e-19)
(0.481808 0.489901 -6.59448e-19)
(0.467643 0.439949 5.41825e-19)
(0.432532 0.354274 3.30622e-19)
(0.34128 0.253978 0)
(0.191203 0.118635 6.53859e-19)
(0.0360582 0.0116432 -3.90878e-19)
(0.432217 0.370248 -2.72286e-19)
(0.954039 0.787466 2.35604e-19)
(1.15032 0.975266 -3.36931e-19)
(1.17668 1.00258 -3.62683e-19)
(1.13304 0.99797 -1.59954e-19)
(1.07691 0.968515 3.67704e-20)
(1.01136 0.939875 0)
(0.938807 0.904914 1.30149e-19)
(0.856622 0.864425 1.18569e-20)
(0.764301 0.815607 0)
(0.670644 0.757286 0)
(0.588216 0.697212 5.77926e-20)
(0.52002 0.634603 8.841e-20)
(0.484015 0.5717 -1.79082e-19)
(0.453115 0.51275 4.76751e-19)
(0.425176 0.429766 -5.96766e-19)
(0.387714 0.345264 -7.09688e-19)
(0.322322 0.229597 6.28452e-19)
(0.22078 0.137462 -2.356e-19)
(0.121611 0.091716 1.35189e-19)
(0.430818 0.382406 3.14424e-19)
(0.946486 0.810559 0)
(1.13922 1.00199 0)
(1.16499 1.03038 -1.22081e-19)
(1.12119 1.02535 9.88174e-20)
(1.06523 0.995222 -2.07613e-20)
(0.999676 0.966076 -2.16485e-19)
(0.926822 0.930529 -2.07571e-19)
(0.843852 0.889992 7.10373e-20)
(0.74968 0.841483 -2.84927e-20)
(0.651126 0.78482 6.84965e-20)
(0.563567 0.722341 -4.76592e-19)
(0.500991 0.659598 -5.24287e-19)
(0.436539 0.595272 -9.5618e-20)
(0.397386 0.514564 0)
(0.373524 0.441495 -1.24807e-20)
(0.346746 0.293806 3.92042e-19)
(0.303182 0.132116 -6.58303e-19)
(0.26386 -0.0254797 4.88708e-19)
(0.0807572 -0.0879066 3.90648e-19)
(0.429522 0.393945 -6.85371e-19)
(0.939779 0.833238 -2.96293e-19)
(1.12878 1.02781 6.46045e-21)
(1.15374 1.05686 1.55766e-19)
(1.10973 1.05122 0)
(1.05387 1.02043 4.59457e-19)
(0.988202 0.990945 2.6899e-19)
(0.915197 0.955229 -4.47497e-20)
(0.831877 0.914744 -2.30995e-20)
(0.736737 0.866226 -2.6838e-20)
(0.637603 0.809477 2.49275e-20)
(0.5498 0.751112 4.21304e-19)
(0.465296 0.689462 5.12391e-19)
(0.414201 0.618337 9.2247e-20)
(0.366053 0.550828 5.09694e-19)
(0.306932 0.433336 0)
(0.20876 0.290712 0)
(0.0449508 0.279995 4.86027e-19)
(-0.0668014 0.629867 -3.34697e-20)
(0.000648858 1.50239 -6.24205e-19)
(0.427833 0.404875 3.73178e-19)
(0.932696 0.853644 8.88754e-19)
(1.11831 1.05139 -1.33694e-18)
(1.14271 1.08158 8.05253e-19)
(1.09858 1.07581 -9.37014e-20)
(1.04284 1.04471 6.00745e-19)
(0.977209 1.01511 0)
(0.904125 0.979315 2.17415e-19)
(0.820016 0.939015 0)
(0.723055 0.891671 2.56282e-19)
(0.619849 0.837119 -3.90983e-20)
(0.521706 0.778782 4.38389e-20)
(0.449176 0.718986 5.6936e-19)
(0.362204 0.659354 -2.09687e-19)
(0.277944 0.568668 -2.66627e-19)
(0.209367 0.497037 0)
(0.108395 0.584377 0)
(0.0385702 1.25077 0)
(0.0788765 2.42733 -2.73324e-19)
(0.109657 2.89325 -1.6968e-19)
(0.426218 0.415359 0)
(0.926471 0.873831 0)
(1.10855 1.07442 4.78524e-19)
(1.13216 1.10531 -6.71144e-19)
(1.08781 1.09921 4.59879e-19)
(1.03222 1.0678 -5.50378e-19)
(0.966518 1.03823 -3.10196e-20)
(0.893201 1.00265 2.4152e-20)
(0.808867 0.963399 6.95871e-21)
(0.711536 0.917018 -2.91438e-19)
(0.60685 0.864887 5.9787e-20)
(0.512629 0.811518 3.96992e-19)
(0.411679 0.757993 -5.61094e-19)
(0.340703 0.686762 -6.5799e-19)
(0.274285 0.633752 2.2979e-19)
(0.208436 0.752115 0)
(0.144872 1.49163 3.31679e-19)
(0.143382 2.6689 3.69252e-19)
(0.149058 3.07965 -4.1325e-19)
(0.13979 3.21855 4.54169e-19)
(0.424237 0.425042 0)
(0.919817 0.891641 7.22942e-19)
(1.09875 1.09515 -1.24012e-19)
(1.1219 1.12724 8.45493e-19)
(1.07747 1.12128 -4.82715e-19)
(1.02201 1.08995 0)
(0.95637 1.06061 0)
(0.883206 1.02547 0)
(0.798415 0.986616 -7.07028e-20)
(0.699255 0.941813 3.08011e-21)
(0.591939 0.890908 0)
(0.485622 0.83946 -3.87498e-19)
(0.405776 0.791034 0)
(0.29593 0.744323 4.68189e-19)
(0.217075 0.822038 -3.05267e-19)
(0.172104 1.44169 -2.56057e-19)
(0.179389 2.65932 -6.28534e-19)
(0.198427 3.12554 -3.14441e-19)
(0.188357 3.27199 -3.63879e-19)
(0.17312 3.31316 3.11304e-19)
(0.422443 0.434104 -2.44242e-19)
(0.914044 0.909467 1.51079e-20)
(1.08971 1.11566 -1.33672e-19)
(1.11214 1.14845 -6.76506e-19)
(1.06749 1.14239 0)
(1.01223 1.11102 0)
(0.946644 1.08203 0)
(0.873303 1.04735 -1.49969e-20)
(0.78834 1.0101 7.98021e-20)
(0.689388 0.967803 0)
(0.580873 0.92169 0)
(0.481142 0.877948 0)
(0.36872 0.835443 0)
(0.30748 0.829655 3.08565e-19)
(0.287029 1.18184 8.0559e-19)
(0.276124 2.3322 2.51193e-19)
(0.287062 3.08023 4.59301e-19)
(0.279019 3.29168 -2.96088e-19)
(0.22817 3.3602 1.09137e-19)
(0.193837 3.37289 0)
(0.420292 0.44264 2.47605e-19)
(0.907547 0.925283 -1.55993e-18)
(1.08036 1.13435 -4.42145e-19)
(1.10245 1.16843 -1.07891e-19)
(1.05777 1.16272 1.23154e-19)
(1.00266 1.13168 -8.67328e-19)
(0.937117 1.10315 5.862e-20)
(0.864028 1.06928 3.97443e-19)
(0.778987 1.03284 0)
(0.678679 0.991494 -1.66306e-20)
(0.568871 0.946112 1.51286e-20)
(0.459373 0.903194 0)
(0.378598 0.876363 0)
(0.330503 1.00076 -3.8282e-19)
(0.296505 1.82967 1.62959e-21)
(0.293644 2.92665 -1.36595e-19)
(0.311719 3.29595 2.28815e-19)
(0.284836 3.39943 9.01782e-20)
(0.21664 3.42557 5.35418e-20)
(0.190369 3.43413 -2.88932e-20)
(0.418088 0.451178 4.77205e-19)
(0.901425 0.942934 1.49257e-18)
(1.07101 1.15484 5.43527e-19)
(1.09244 1.18953 0)
(1.04762 1.1837 0)
(0.992816 1.15261 6.6451e-19)
(0.92753 1.12447 -4.08893e-19)
(0.854554 1.0911 -3.65609e-19)
(0.769629 1.0562 -1.44036e-20)
(0.66984 1.01889 5.0403e-20)
(0.559195 0.981306 -2.85782e-19)
(0.451668 0.945926 0)
(0.373524 0.951848 0)
(0.348011 1.3427 -2.14331e-19)
(0.360633 2.43614 -2.7962e-19)
(0.402641 3.19875 0)
(0.428773 3.38488 2.8238e-20)
(0.358815 3.45051 2.03699e-19)
(0.283245 3.49517 -4.19578e-19)
(0.25815 3.52128 2.49589e-19)
(0.414947 0.460158 -9.04094e-19)
(0.893585 0.959528 -7.10212e-19)
(1.06025 1.17466 0)
(1.08156 1.21068 0)
(1.03688 1.20516 0)
(0.982349 1.17429 0)
(0.917226 1.14646 4.36594e-19)
(0.844699 1.11381 -4.74688e-19)
(0.760114 1.08005 0)
(0.660394 1.04317 -4.01212e-20)
(0.552363 1.00343 4.71933e-19)
(0.449748 0.974774 2.43297e-20)
(0.40002 1.06831 4.13692e-20)
(0.407314 1.71643 3.17042e-19)
(0.431171 2.87554 -9.91897e-20)
(0.466985 3.33027 0)
(0.449092 3.46218 -5.62649e-20)
(0.35847 3.55145 1.00248e-19)
(0.27333 3.62173 3.37456e-19)
(0.19692 3.60218 -2.90322e-19)
(0.411828 0.469205 4.28742e-19)
(0.886032 0.97925 -6.98604e-19)
(1.04919 1.19748 0)
(1.06989 1.23376 -1.73239e-19)
(1.02517 1.22784 6.57424e-19)
(0.971156 1.19661 0)
(0.906665 1.16896 0)
(0.834805 1.13667 8.88656e-19)
(0.751087 1.10398 1.38485e-20)
(0.652384 1.07096 -6.89307e-20)
(0.538628 1.04239 -2.00514e-19)
(0.449117 1.03315 1.55975e-19)
(0.412121 1.23141 0)
(0.448923 2.13274 -1.49402e-19)
(0.49811 3.13498 1.24463e-19)
(0.558386 3.43808 -3.07373e-20)
(0.552366 3.54308 0)
(0.482231 3.6392 -1.88031e-19)
(0.405561 3.68464 -7.4444e-19)
(0.321269 3.65555 -1.88782e-19)
(0.40708 0.478571 -8.31475e-19)
(0.876087 0.997126 9.94155e-19)
(1.03633 1.21901 7.40227e-19)
(1.0572 1.25656 -1.91744e-19)