/*--------------------------------*- C++ -*----------------------------------*\
  =========                 |
  \\      /  F ield         | OpenFOAM: The Open Source CFD Toolbox
   \\    /   O peration     | Website:  https://openfoam.org
    \\  /    A nd           | Version:  9
     \\/     M anipulation  |
\*---------------------------------------------------------------------------*/
FoamFile
{
    format      ascii;
    class       volScalarField;
    location    "39";
    object      p;
}
// * * * * * * * * * * * * * * * * * * * * * * * * * * * * * * * * * * * * * //

dimensions      [0 2 -2 0 0 0 0];

internalField   nonuniform List<scalar> 
918
(
0.588231
1.24192
0.0105138
0.587583
-0.00700468
1.20894
-0.465233
0.748873
0.568384
-0.0609608
0.00104211
0.5639
1.06968
0.834661
-1.09406
0.0169434
0.698941
-0.346553
0.567416
0.015338
0.785531
0.574964
0.577995
0.568581
0.632016
0.813837
0.95053
0.018765
0.00238508
-0.000319946
-0.00382337
-0.0266062
-0.0102079
1.09258
1.14366
1.16635
0.536638
0.362152
-0.328914
-0.39786
-0.393052
-0.49571
0.741804
0.742703
-0.143379
0.750684
0.759244
0.555559
0.567745
0.56864
0.569723
0.568676
0.570069
0.445232
-0.0656923
-0.0974208
-0.041549
-0.031949
0.0903951
0.00219843
0.00123616
0.00550803
0.00130183
0.487431
0.559565
0.55678
0.568945
0.577528
1.18147
1.15339
1.17952
1.09322
1.10969
1.04766
1.02019
0.855933
0.877772
0.818915
0.805739
-1.53221
-2.49509
-0.497916
-0.243787
-0.00568398
0.0235494
0.0323797
0.690262
0.688425
0.700332
0.711977
1.11579
-0.342291
-0.458747
0.567539
0.566335
0.574725
0.57542
0.571434
0.570527
0.0163083
0.0146255
0.012376
0.0137069
0.0122685
0.774792
0.772658
0.569121
0.566139
0.584765
0.60562
0.59752
0.318137
0.635798
0.648029
0.637353
0.802199
0.798025
0.806209
0.924188
0.887119
0.987618
1.01098
0.0161012
0.00462904
0.0104298
-0.00437926
0.00566972
0.532571
0.525312
0.551599
0.539992
0.542438
0.278009
0.143116
0.447513
0.472487
-0.242119
-0.302688
-0.399232
-0.419941
-0.527392
0.634653
0.732312
0.731308
-0.162807
-0.0867897
-0.217965
-0.0141663
-0.0739147
0.545962
0.552867
0.547917
0.563331
0.557828
0.559779
0.571986
0.56906
0.570619
0.508462
0.632317
0.370924
0.335833
-0.206667
-0.115954
-0.208928
-0.0192041
-0.0145755
0.108724
0.133893
0.0785637
0.0714935
-0.00691988
-0.00127323
-0.00257128
0.000380841
0.00446672
0.480579
0.469872
0.499718
0.507077
0.549754
0.550915
0.554252
0.552715
0.97106
0.993498
1.00088
0.974563
-3.49691
-6.30117
0.0855446
0.224547
0.00486759
0.00349041
0.004244
0.00430862
0.00421637
0.000151451
0.0509622
0.0389597
0.0300421
0.0402803
0.675891
0.675467
1.03475
1.03553
1.01643
0.966663
0.555624
0.557749
0.563301
0.559153
0.008233
0.0129716
0.0121503
0.760231
0.76841
0.766558
0.281181
0.194182
0.36713
0.395037
0.664661
0.651664
0.662634
0.699674
0.735103
1.01843
1.0366
1.03489
1.04316
1.08716
1.10354
1.0689
0.512658
0.522285
0.517411
0.554799
0.5525
0.553449
0.548957
0.550435
0.548242
-0.00887298
-0.39257
0.522061
0.540278
0.521055
0.527141
0.714587
0.791802
0.713145
0.723274
0.721199
0.0513138
-0.00555919
0.292467
0.259588
0.422132
0.457435
0.436999
0.942299
0.902361
0.952511
0.925987
0.887321
0.913796
-0.344139
-1.85788
-0.968974
0.579516
0.391126
0.47977
0.0542023
0.0453833
0.0384152
1.02964
1.10697
0.688141
0.856946
0.864255
0.772645
0.802951
0.860553
0.783765
0.820171
0.85664
0.836705
0.590908
0.534334
0.54546
0.861865
0.918193
0.167493
0.111986
0.0671723
0.152036
0.211878
0.183305
1.0699
0.974312
1.04613
0.565889
0.566588
0.0217869
0.0292708
0.570748
0.570795
0.000388796
0.00156406
0.462006
-0.80403
0.154977
0.559229
0.549424
0.566394
-0.0446105
0.400335
0.00389364
0.0938861
0.0438076
0.561924
0.497913
0.458594
0.0286831
0.0163154
0.0131144
-0.171737
0.563561
0.561872
0.565856
0.566831
0.567493
0.0194398
0.0215448
0.0196057
0.0177146
0.0205876
0.0182024
0.530901
0.548534
-0.126745
0.565992
0.568116
0.567933
0.561121
0.566796
0.565015
0.022107
0.000719933
0.000736206
0.265149
0.388345
0.708046
0.801636
0.675571
0.448382
0.209403
0.608095
0.673338
0.57626
0.733711
0.725336
0.743958
0.219528
0.0713752
0.227176
0.16814
0.557098
0.555768
0.547693
0.544768
0.561242
0.559356
0.563915
0.560911
0.563868
0.565262
-0.00407298
-0.0266016
-0.0410877
-0.104237
0.356777
0.617835
0.29493
0.325106
0.187359
0.00509431
0.00607253
0.00568709
-9.80394e-05
0.0436117
0.0272143
0.0866471
0.0884966
0.0620026
0.0387865
0.0357633
0.0280871
0.0258698
0.555251
0.55353
0.559976
0.568534
0.507214
0.510989
0.477081
0.497021
0.482844
0.42361
0.457932
0.433482
0.0220501
0.0347152
0.0159744
0.0181775
0.0166893
0.0315578
0.0296249
0.0243694
0.0249201
0.0214362
0.0139925
0.0136012
-0.131002
-0.244834
1.02179
0.955868
0.166947
0.552751
0.559174
0.555959
0.560759
0.56389
0.564733
0.56248
0.559052
0.549053
0.550773
0.54729
0.547994
-0.0647576
-0.20128
-0.0279252
-0.0967137
0.172005
0.656781
0.400425
0.339984
0.334616
0.556842
0.963029
0.756718
0.746629
0.768014
-0.308354
0.0884748
-0.241329
0.378457
0.200106
0.707625
0.756974
0.777681
0.725774
0.677929
-0.0790268
0.583381
-0.0189886
0.0276747
0.222354
0.110736
0.747904
0.708978
0.714451
0.732629
0.751939
0.714796
0.696237
0.691743
0.728381
0.731923
0.533931
0.29709
0.250879
0.211953
0.691103
0.573574
0.630037
0.541516
0.552091
0.554836
0.553434
0.535654
0.543047
0.538733
0.544685
0.547979
0.556973
0.557341
0.552737
0.554921
-0.00765194
-0.00992462
0.0118886
-0.0953379
-0.0860349
-0.145237
-0.0249611
0.115278
0.0772813
0.273954
0.378839
0.0916186
-0.0237264
0.00596887
0.0400057
0.2181
0.2433
0.11717
0.206414
0.192831
0.178133
0.279166
0.285197
0.018003
0.0129975
0.014812
0.0116245
0.0645033
0.135734
0.145245
0.0378008
0.0324405
0.00637591
0.00249926
0.0195681
0.01774
0.0190358
0.058106
-0.0355827
0.014544
0.0352839
0.0403925
0.0366825
0.0318669
0.548004
0.550015
0.549761
0.557793
0.574672
0.590304
0.548751
0.528896
0.519881
0.52285
0.496514
0.506548
0.502216
0.515811
0.535926
0.544956
0.542866
0.545483
0.528521
0.530047
0.516926
0.520738
0.49649
0.478328
0.466828
0.0100036
0.0445471
0.0499278
0.000793064
0.0324791
0.0143081
0.0335902
0.0508273
0.0343088
0.0259789
0.0210473
0.0271125
0.0292272
-0.0373459
0.0440447
-0.14737
-0.18068
-0.250882
0.926279
1.04628
0.848814
0.624701
0.639467
0.878128
0.964484
0.586652
0.772633
0.796242
0.608056
0.877775
0.557558
0.557166
0.554767
0.554248
0.555487
0.0246051
0.125824
0.134306
0.189108
0.303467
0.416624
0.340029
0.218575
0.351551
0.355359
0.652018
0.666557
0.617952
0.640351
0.63945
0.464939
0.543247
0.596899
0.550737
0.598387
0.620549
0.580419
0.611065
0.557756
0.513666
0.511095
0.459403
0.481282
0.45854
0.440023
0.547196
0.525106
0.535184
0.526087
0.545563
0.569719
0.566132
0.596775
0.608033
0.529907
0.487941
0.497905
0.52655
0.487879
0.502075
0.517744
0.253733
0.152563
0.2382
-0.0522072
0.0281015
0.013105
-0.0339513
0.0115159
0.297164
-0.399906
-0.373151
-1.00565
0.522953
0.993255
0.700676
0.673481
0.748157
0.726746
0.73035
0.753707
0.759869
0.681412
0.699657
0.702904
0.661752
0.6853
0.708775
0.706106
0.555884
0.427886
0.420805
0.378091
0.250988
0.286043
0.488308
0.410361
0.336038
0.338849
0.501405
0.389059
0.455714
0.494634
0.426462
0.381338
0.586008
0.65121
0.640992
0.615421
0.533645
0.547808
0.572632
0.608452
0.635366
0.667477
0.544399
0.550213
0.551476
0.548986
0.546199
0.549124
0.54926
0.551792
0.552592
0.555524
0.554522
0.00400576
0.0153304
0.00287598
-0.00428408
0.0233998
0.0182855
0.0627171
0.0486958
0.034558
0.0415336
0.0151634
0.0106248
0.017048
0.0258089
0.137979
0.151145
0.135329
0.0957782
0.28631
0.417239
0.4878
0.365348
0.258368
0.281576
0.304829
0.0283383
0.0563022
0.0415272
0.0838773
0.0754067
0.0138948
0.0122906
0.013613
0.0157266
0.026535
0.00892471
0.0153211
0.0201938
0.0114261
0.0096483
0.0121772
0.531095
0.524614
0.525999
0.519979
0.518821
0.532782
0.537027
0.538842
0.544173
0.546175
0.536669
0.542154
0.545751
0.0329046
0.0181388
0.005373
0.0256269
0.0249175
0.0272273
0.023084
0.153645
0.0842992
0.0901487
0.0424349
-0.0860625
-0.0283678
0.515551
0.51227
0.507602
0.746594
0.597136
0.51523
0.610409
0.716852
0.303477
0.502357
0.335608
0.917466
0.810601
0.956864
0.573002
0.268431
0.423935
0.474814
0.282371
0.35466
0.360452
0.248497
0.280304
0.312624
0.413932
0.290162
0.264628
0.0224405
0.210084
0.327222
0.308113
0.436312
0.498366
0.287391
0.207169
0.163177
0.643564
0.662594
0.68162
0.652068
0.676222
0.606833
0.595771
0.613531
0.622155
0.618527
-0.733589
-0.441439
-1.38515
-0.69987
-0.249878
0.553156
0.516044
0.796249
0.681785
0.745044
0.729609
0.687624
0.65334
0.667634
0.699192
0.394841
0.5063
0.480619
0.486197
0.38671
0.319293
0.620857
0.614741
0.650877
0.674966
0.641898
0.674877
0.542176
0.5418
0.541484
0.537882
0.536123
0.538318
0.100418
0.0696128
0.104485
0.0843306
0.0625139
0.0514362
0.0368526
0.0293191
0.0256418
0.0249145
0.0338244
0.0359678
0.194088
0.136173
0.0601374
0.0901278
0.0282819
-0.038039
-0.0567346
0.045382
0.138118
0.128359
0.435472
0.687094
0.508133
0.677416
0.517049
0.57278
0.498248
0.491151
0.517871
0.405334
0.485301
0.253341
-0.250983
-0.159207
0.811214
0.828987
0.610905
0.425703
0.196519
0.384907
0.581401
0.516627
0.555284
0.624228
0.615561
0.0378096
0.104097
0.365271
0.592745
0.258768
0.251199
0.245635
0.420409
0.344487
)
;

boundaryField
{
    wall-4
    {
        type            zeroGradient;
    }
    velocity-inlet-5
    {
        type            zeroGradient;
    }
    velocity-inlet-6
    {
        type            zeroGradient;
    }
    pressure-outlet-7
    {
        type            fixedValue;
        value           uniform 0;
    }
    wall-8
    {
        type            zeroGradient;
    }
    frontAndBackPlanes
    {
        type            empty;
    }
}


// ************************************************************************* //
