/*--------------------------------*- C++ -*----------------------------------*\
  =========                 |
  \\      /  F ield         | OpenFOAM: The Open Source CFD Toolbox
   \\    /   O peration     | Website:  https://openfoam.org
    \\  /    A nd           | Version:  9
     \\/     M anipulation  |
\*---------------------------------------------------------------------------*/
FoamFile
{
    format      ascii;
    class       surfaceScalarField;
    location    "39";
    object      phi;
}
// * * * * * * * * * * * * * * * * * * * * * * * * * * * * * * * * * * * * * //

dimensions      [0 3 -1 0 0 0 0];

internalField   nonuniform List<scalar> 
1300
(
3.75095
5.62643
-3.03156
3.75095
-7.5066
5.62643
-4.41352
4.41352
-0.873118
0.873118
1.87641
1.87454
-2.90187
2.90187
-2.33302
2.33302
-2.55333
2.55333
-5.24638
5.24638
-5.0682
5.0682
4.66656
-4.66656
-6.15336
6.15336
-1.21825
1.21825
-3.79055
3.79055
3.16975
-3.16975
-2.29741
2.29741
-0.225011
0.225011
-0.553507
4.30446
3.19745
3.19745
-2.02991
2.02991
-4.86378
4.86378
6.21798
-6.21798
4.90119
-4.90119
-1.86963
-2.14169
1.74634
-11.4798
-5.76026
-5.76026
-8.44039
8.44039
-2.81396
2.81247
2.94425
-2.94425
-1.78009
1.78009
-4.34816
-0.0653608
-4.34816
4.41039
0.00313445
4.41039
-0.965147
0.0920295
-0.965147
3.88891
-3.88891
0.747263
0.125855
0.747263
3.06495
-3.06495
-1.87707
3.75349
1.87388
-1.87186
6.17632
-1.87909
3.75363
-5.98078
5.98078
-3.11578
0.213906
-3.11578
2.72651
0.175356
2.72651
-6.7952
6.7952
-2.42399
0.0909641
-2.42399
2.27979
0.0532348
2.27979
2.87056
-2.87056
-2.65532
0.10199
-2.65532
2.44054
0.112792
2.44054
0.353541
5.27289
-5.97997
8.79244
-5.27289
0.0265082
5.20835
0.0380303
5.20835
-5.10593
0.0377268
-5.10593
5.01266
0.0555406
5.01266
4.75764
-0.0910748
4.75764
-4.78125
0.114683
-4.78125
-3.67252
-4.14393
-6.32687
0.173508
-6.32687
-1.22445
0.0062025
-1.22445
1.17359
0.0446569
1.17359
-3.6337
3.6337
-4.18609
0.395545
-4.18609
3.12419
0.0455533
3.12419
1.8685
1.88245
5.61945
-5.61945
2.44971
-2.28635
-0.0110661
-2.28635
-2.28844
-2.61275
2.28844
0.00897584
-0.476
0.250989
-0.476
3.15932
0.0381247
3.15932
2.28341
0.157124
-2.28341
0.253503
3.23573
-3.23573
1.36711
0.662798
1.36711
-5.56715
5.56715
4.95401
0.0586467
-4.95401
0.0902296
6.15646
0.0615176
6.15646
-6.19954
-0.0184359
-6.19954
2.72682
-4.86851
-2.42239
5.95066
0.202696
-5.95066
0.190405
2.91473
0.0295169
2.91473
-2.92044
2.92044
-2.9835
0.0392511
-2.9835
-2.18244
0.402345
-2.18244
1.4775
0.302592
1.4775
-4.21294
-0.135226
-4.21294
-4.32752
0.141434
4.32752
0.0828638
1.09761
-1.09761
-1.0726
0.107454
-1.0726
-4.0408
-0.172136
4.0408
-0.151887
-3.76732
-0.121597
-3.76732
-3.02372
0.0402267
3.02372
0.0412214
3.11266
0.0466616
-3.11266
0.0477153
-1.87082
3.75328
-1.88013
3.75401
-5.59881
-0.381961
-5.59881
6.29041
-0.309631
6.29041
3.46937
0.321174
-3.46937
0.353596
2.59159
0.134928
2.59159
-6.76508
-0.0301153
-6.76508
6.77492
0.020277
6.77492
2.49832
0.0932702
-2.49832
0.0743294
2.26431
0.015474
2.26431
2.88572
-0.0151625
2.88572
-2.86791
-0.00265023
-2.86791
2.79904
-2.79904
2.73068
0.0683592
-2.73068
0.0753632
-11.1328
11.1144
-0.0350124
-11.0978
5.17334
5.17334
4.18728
0.570357
4.18728
-4.99663
0.215388
-4.99663
3.08705
-5.50945
3.1229
-6.79541
4.73246
-16.2122
4.32238
-8.46631
6.60672
-6.60672
6.46942
0.137305
-6.46942
0.14255
-1.26629
0.0418449
-1.26629
-3.02768
-0.606025
-3.02768
4.28512
-0.651422
4.28512
-3.02876
3.02876
-3.07784
0.0490787
3.07784
0.0463497
2.2783
-0.0139854
-2.2783
-0.00805014
0.616539
0.130725
-0.616539
0.140539
3.42664
-0.190908
3.42664
-3.0489
-0.186829
-3.0489
-1.31227
0.0459766
1.31227
0.0548393
-5.81472
0.24757
-5.81472
-11.1908
0.0930153
-11.1528
-6.10653
-6.10653
2.33387
11.1263
-2.88833
0.0204213
2.88833
0.0263993
2.97574
0.0530244
-2.97574
0.0552997
-2.86198
0.0629408
2.86198
0.058459
-2.5602
0.377762
-2.5602
-1.06553
1.06553
-1.23928
0.173746
1.23928
0.23822
1.35935
-0.261747
1.35935
1.13713
0.0364604
-1.13713
0.064528
-3.67397
-0.0933457
-3.67397
6.52321
-0.2328
6.52321
-2.94223
-0.106669
2.94223
-0.0565119
-0.0333532
11.1478
-5.13998
0.0340578
5.13998
-11.2093
11.2433
-3.23414
0.673944
3.23414
0.95314
5.28841
0.278741
-5.28841
0.29178
6.71258
0.0623434
-6.71258
0.105858
-2.53778
-0.489892
-2.53778
-5.01443
-0.584381
5.01443
-0.72931
-11.4745
-0.203861
11.6783
-11.4189
6.01858
0.137874
-6.01858
11.3812
-1.00946
-0.0881499
1.00946
0.0560754
1.68209
-0.322734
1.68209
3.59396
-0.167324
-3.59396
-0.0800062
-6.67492
-0.0901587
6.67492
-0.151718
-2.09575
-0.442029
2.09575
-0.413665
-4.267
4.30513
1.90931
-2.50963
-2.35888
-5.12238
1.8519
1.90138
4.3016
-10.1762
-6.03606
-9.98575
7.26564
-6.97386
-9.26868
9.17761
7.67446
-7.79605
-5.78523
5.83158
6.4824
-6.44118
1.87875
1.87474
7.91757
-7.70366
-15.6589
15.2769
7.48058
-7.38962
15.8367
-15.8668
-17.905
17.9674
-5.71071
5.8127
-6.72694
6.72429
-6.95083
6.89432
-3.18598
-3.60944
13.1484
-12.9749
8.3829
-8.39396
-8.53464
8.93019
3.38248
0.922654
3.42914
-1.88224
3.761
-1.87139
3.78071
2.67114
-5.85712
2.8383
-5.19718
4.05443
4.32847
-4.0634
-1.05898
-5.92053
5.95004
-5.8199
5.87836
8.98516
-9.05052
-1.88518
3.75991
-1.86883
3.77021
-3.42509
-2.36014
3.37954
0.922068
8.07445
5.07391
-8.27715
-1.7086
-7.93162
7.76429
-8.18454
7.99771
-0.439502
5.81917
-5.37966
4.42428
-1.559
7.37817
5.70664
5.92203
5.86685
-5.58811
1.10701
-6.48668
-6.39645
-2.49426
2.60172
2.43318
-2.30732
6.00675
1.66771
5.85486
-5.62975
-2.1663
-5.72309
3.82103
2.01055
3.87011
4.07719
2.40521
4.11742
3.03085
-3.03572
0.00487229
-3.05633
6.08718
0.724192
-5.41647
-4.4944
4.95199
2.96558
5.12734
-5.49228
-2.21138
-5.13868
-9.55521
-6.1037
-10.1396
10.116
5.16098
9.80633
-12.0004
11.8487
4.77685
2.70373
4.83008
-4.89796
-2.49166
-4.82363
11.6492
-2.60633
-9.04287
-10.3521
-7.55295
10.3318
5.50491
10.9847
6.98261
11.0906
4.43708
7.21212
-9.94199
2.38904
-3.86562
-1.84509
-3.79025
3.68294
2.12975
3.79573
-4.21345
-2.51349
-4.19303
-4.28881
-2.66202
4.30398
2.42031
-4.40354
-3.781
4.51021
2.38411
4.08749
-10.1236
4.37883
-7.98826
-9.22821
-3.74664
-9.08566
3.55442
2.5956
-6.15002
-2.3027
8.55886
-4.23039
7.49989
-5.081
-3.31297
-5.08905
-6.82009
-1.71455
-6.67866
-8.88212
8.39222
-9.18888
8.53746
12.6071
-5.68418
-6.92295
-3.96825
-2.47293
3.92054
-0.4914
-3.71096
3.71583
0.0500363
3.83074
4.7534
4.262
-3.88663
-1.93327
-3.83133
3.83087
2.04749
3.89381
6.76954
2.21562
6.77267
-6.47326
-2.57726
-6.60849
9.07255
-8.6702
2.89598
-2.85001
5.33592
2.66179
-5.14502
-2.7866
6.19765
-3.17255
-3.02509
-12.2063
10.5545
1.65179
-4.8281
-0.403819
-0.178808
-5.49766
-3.77102
5.38298
0.539045
11.0935
7.32251
-5.51362
5.76119
6.16472
6.22337
-0.173083
5.83327
-5.15933
5.32499
-2.47197
-2.85303
5.33419
-5.50633
-1.2743
-5.38118
4.10688
0.348534
1.69819
-1.4472
-1.94849
-0.545776
-1.88396
1.46254
0.970641
1.59326
0.945465
1.65625
-2.9545
0.559044
2.39545
-2.00903
-1.74828
-3.70374
-1.08657
4.79031
5.63195
2.13234
-5.55194
-0.171149
2.63715
-2.5925
-0.738725
-2.96502
2.17344
-2.91216
-3.68625
-1.9082
5.59446
-3.37057
-0.460756
3.31754
0.552563
-3.82584
-2.09469
3.78658
0.330834
-3.12559
6.19049
-3.06489
-5.05887
2.52844
3.55874
4.53899
-4.78991
2.44667
2.34324
-1.23116
4.23168
0.895662
4.36661
-6.80578
4.5944
5.75827
3.17192
-6.07944
0.940757
-5.86503
8.47931
-7.30722
-1.17209
4.08168
4.39762
7.12377
5.48335
-5.70036
12.8241
-1.17055
-6.13667
7.03557
-3.86365
4.79889
-8.66254
-10.2822
4.14557
-9.18373
10.9723
-1.78859
-3.63462
-8.36579
12.8183
-1.20774
-11.6106
8.59859
-4.15738
-4.26127
8.41865
-6.76371
6.75293
-1.94304
-4.80989
-10.1452
-5.7216
10.2354
1.61332
-9.8573
12.2463
-2.64518
4.09586
0.73422
4.11134
3.22862
-5.40745
2.17883
3.53509
-5.47813
2.05057
-7.45802
-6.7891
12.1509
-5.3618
-10.5357
-9.57694
-0.958804
2.5245
9.72184
-9.50711
7.43469
2.07242
3.30831
0.585499
-3.37667
-0.413583
0.249968
4.53285
-4.78282
4.0457
4.20283
3.33325
1.1996
3.8415
2.10854
-3.8679
-0.325128
-4.15488
1.49286
-1.73457
-3.67741
5.17027
-4.06483
0.387422
-2.73898
-3.50838
6.24736
-4.58406
3.03898
3.15151
5.08646
-4.91283
1.40445
-2.3989
-2.51393
2.66038
-4.39495
1.97623
3.19404
4.36034
0.579341
5.95323
6.19767
-8.54883
0.560573
11.2716
-9.56298
2.49441
8.59619
-9.9291
0.352164
-8.7335
1.00901
-5.23941
-5.14101
5.12567
-6.84022
-3.53687
6.1624
0.610275
-6.24526
-0.433395
-6.03336
-2.84875
-6.47539
-3.05378
-6.1351
-8.75414
-1.6511
-7.10304
6.74113
-6.6864
-3.45319
7.41571
1.12175
-7.41229
7.32414
-7.48696
7.16423
0.0949291
3.6209
4.35693
1.884
-2.38974
4.27373
-5.10676
7.32238
-8.61579
3.50903
4.06818
-6.64543
-4.54761
5.03516
4.03738
5.33775
8.92935
-10.4446
1.51521
-10.7373
12.0577
-1.32036
-16.514
5.77674
-7.58468
2.58291
0.313077
2.62475
0.607597
2.48466
-3.09226
-2.24241
-2.18757
-2.37111
-3.4621
5.8332
1.15947
-3.46092
2.30146
-3.53122
4.69069
-0.111709
-3.34922
5.30467
-2.82001
5.61775
-3.64293
1.97482
3.37764
5.72032
-2.34269
4.39089
-1.7291
1.85781
-4.2005
-1.60428
-2.96792
5.09767
-3.27944
3.66686
-0.314855
3.98171
-4.07721
0.904659
-0.743959
3.45887
3.71237
4.28495
-3.08535
2.94065
-4.66974
-1.25985
-4.0904
-0.896365
-0.300379
-3.74751
4.04789
6.0322
-6.33258
-5.25937
9.56616
-4.30678
7.71854
-5.40223
-2.31631
-4.27135
-4.39885
3.89359
1.93969
9.65823
0.209838
-5.61207
-4.94949
-3.99635
3.20133
2.12366
-1.90843
3.56022
2.08723
-0.389045
0.53082
1.06244
1.84413
-1.31331
0.24422
1.59991
-1.20298
1.9264
0.710756
-1.96286
0.0789015
-1.341
3.51444
1.05445
-2.02509
0.711785
1.03756
-3.50953
4.89118
-2.53967
-2.35151
5.92874
1.15953
-3.69921
4.22164
-3.87311
2.3419
-3.42848
-1.3573
-5.23041
-3.56271
-2.57193
4.87338
-3.26128
5.39362
1.18713
-5.22247
6.4096
-3.61487
1.70667
-3.08909
3.79985
-1.07582
-2.01328
2.85522
2.73923
-2.97367
0.008655
-0.118449
2.35181
-2.47026
-0.56035
-2.56938
-4.57221
4.90304
-2.10674
4.5534
2.167
-1.91517
6.46857
1.81073
-3.7259
-3.24813
-3.70889
-1.38266
3.15633
-0.578952
-4.24468
-5.38884
4.15141
0.215199
-6.9062
7.70554
-0.799337
-3.94062
-0.65378
4.73546
-5.94953
0.471403
-3.89896
3.80658
4.70224
4.91744
-11.3947
-0.215891
-6.23373
1.12874
-7.36248
5.52637
-3.56976
7.71534
-10.3761
6.92293
-9.25437
6.54325
-0.819232
6.25449
-4.07566
2.78838
-8.50998
-6.89665
5.40936
-2.70562
6.14358
-3.06784
9.21142
-5.71303
5.17438
4.03705
-0.990814
-4.09823
-5.1735
4.18268
0.000881035
4.11222
4.97489
-2.86635
4.64976
2.25867
-4.65757
-2.13628
-6.49719
1.83962
-3.34568
-1.91718
3.7568
3.16929
3.75478
1.24286
-3.3412
7.23597
-8.19478
-1.87417
-3.26683
5.16711
-0.984425
3.38527
-6.6521
-1.85414
4.84811
-0.810249
-4.03786
0.836067
-4.37294
1.66413
-6.03707
5.17609
-5.60949
2.2156
-9.80028
-5.19669
-5.14061
-2.25279
-5.23417
-7.60496
5.35217
-1.82822
5.49592
-8.56949
7.75924
-3.48817
8.84033
-5.42791
-1.04748
5.84157
1.32265
10.163
0.163779
-4.71139
-1.88013
3.93959
-2.05946
1.3212
-3.58373
0.355861
2.48008
3.44866
-6.58697
-0.0584657
-4.76986
-3.9227
7.96009
5.64345
11.6756
1.23108
9.15272
-1.19263
10.3838
4.14512
4.38334
-3.01919
4.5344
1.0287
4.53773
-0.852733
2.82755
1.77202
1.77822
0.814276
2.31739
1.39498
3.22205
0.129791
-2.05778
4.63681
-8.63316
-0.975263
-8.0628
1.11481
5.72472
-4.60991
3.10002
-0.976355
1.04056
0.054835
-1.56817
1.51334
-2.79819
-1.95722
-0.357311
-1.64316
2.35495
1.87128
-1.99764
-0.800554
0.348002
-3.91071
3.08047
-3.07182
-0.332587
6.07702
-2.77018
0.299918
-1.06351
-2.26946
-2.81524
2.73634
6.17693
0.29164
3.11204
5.19468
3.09999
0.233639
3.88067
-5.66926
-3.57734
-5.88515
-0.358783
4.37668
1.74793
7.97391
5.78498
4.80055
-1.85155
-10.0463
6.55302
-2.01862
5.23265
-1.19479
-4.84228
5.01086
2.31151
-5.62114
0.0116521
-4.83063
-6.84925
-0.525715
8.28496
-9.63727
8.58979
5.74103
1.36201
-4.41125
-0.729362
4.2375
0.145837
10.5296
-1.12693
-6.80979
7.93672
-4.59779
3.62253
0.823412
2.7368
2.33675
1.36039
-5.4494
-10.0593
-1.95147
-1.55806
-4.30298
0.487337
-2.35861
6.25062
-2.62809
3.93431
5.30863
6.34919
-2.15794
-4.17463
6.46472
-2.53042
3.81877
)
;

boundaryField
{
    wall-4
    {
        type            calculated;
        value           uniform 0;
    }
    velocity-inlet-5
    {
        type            calculated;
        value           uniform -3.75095;
    }
    velocity-inlet-6
    {
        type            calculated;
        value           uniform -5.62643;
    }
    pressure-outlet-7
    {
        type            calculated;
        value           nonuniform List<scalar> 8(3.03156 7.5066 4.01132 9.73341 7.81645 5.14921 6.20995 9.05484);
    }
    wall-8
    {
        type            calculated;
        value           uniform 0;
    }
    frontAndBackPlanes
    {
        type            empty;
        value           nonuniform List<scalar> 0();
    }
}


// ************************************************************************* //
