/*--------------------------------*- C++ -*----------------------------------*\
  =========                 |
  \\      /  F ield         | OpenFOAM: The Open Source CFD Toolbox
   \\    /   O peration     | Website:  https://openfoam.org
    \\  /    A nd           | Version:  9
     \\/     M anipulation  |
\*---------------------------------------------------------------------------*/
FoamFile
{
    format      ascii;
    class       volVectorField;
    location    "39";
    object      U;
}
// * * * * * * * * * * * * * * * * * * * * * * * * * * * * * * * * * * * * * //

dimensions      [0 1 -1 0 0 0 0];

internalField   nonuniform List<vector> 
918
(
(0.985163 -0.000501743 0)
(0.00500938 2.96625 0)
(0.00210909 0.807728 0)
(0.979703 0.00214795 0)
(-0.0345602 2.00099 2.43714e-20)
(-0.00704276 2.94879 -2.59097e-18)
(0.827204 1.1676 4.09522e-19)
(0.286831 0.134402 -1.66354e-20)
(0.999909 -0.000280846 0)
(0.0595391 0.815601 0)
(0.0161943 0.622964 0)
(0.734773 -0.0142594 0)
(0.0111357 2.93031 0)
(0.00262699 2.79487 0)
(-0.0175212 3.15633 7.49441e-19)
(0.000482503 1.86249 -1.9004e-20)
(0.35421 0.0367032 1.09147e-18)
(0.190498 1.17739 2.81444e-19)
(0.962774 0.00501691 0)
(0.00610246 0.611447 0)
(0.0653784 0.179941 -7.87418e-19)
(1.00198 -0.00498118 0)
(1.00022 -0.00979193 0)
(0.975726 -0.00644165 0)
(0.585674 -0.0368667 0)
(0.0159696 2.6386 0)
(-0.0148947 2.91002 9.61579e-19)
(-0.000667852 0.874611 0)
(0.0125623 1.06951 0)
(-0.000966048 0.84897 0)
(-0.0275382 2.59522 0)
(-0.00956023 2.07472 -1.94399e-20)
(-0.0190967 1.81551 0)
(-0.020603 2.9876 -9.34999e-23)
(-0.0166904 3.0053 2.01369e-18)
(0.00210445 3.00018 0)
(0.870694 -0.00938155 0)
(0.403575 0.937211 1.98572e-19)
(0.806197 1.18496 -4.36335e-19)
(0.95216 1.02294 4.90094e-19)
(0.676956 1.27816 -9.5884e-20)
(0.675074 1.26441 5.51975e-19)
(0.327817 0.216338 1.62293e-20)
(0.301845 0.104689 0)
(1.12708 0.549444 0)
(0.293267 0.208438 7.41596e-20)
(0.257006 0.13798 -7.69565e-20)
(0.919759 -0.0074571 0)
(1.00027 0.000148609 0)
(0.99991 0.000331981 0)
(1.00363 -0.00777144 0)
(1.00096 -0.000932937 0)
(1.00017 2.91601e-05 0)
(0.0792147 1.81038 -8.51871e-19)
(0.0288 0.995874 0)
(0.0894066 0.880237 0)
(0.0116404 0.946331 0)
(0.03421 0.758437 0)
(0.0224406 1.99841 0)
(0.0212147 0.824212 0)
(0.0169313 0.652827 0)
(0.00749659 0.803799 0)
(-0.00453788 0.602703 0)
(0.837983 -0.0157271 0)
(0.847905 0.0284536 0)
(0.767731 -0.0033677 0)
(0.818868 0.0386447 0)
(0.702969 -0.018636 0)
(0.0146927 3.0004 9.62172e-19)
(0.0115098 3.00802 0)
(0.00611649 3.00279 0)
(0.0135576 2.99736 1.09446e-23)
(0.00796842 2.95846 -1.43002e-18)
(0.014492 2.98199 0)
(0.0108451 2.9036 0)
(0.0247654 2.93033 2.2263e-24)
(0.00445988 2.82512 0)
(0.031258 2.91607 0)
(-0.00548909 2.74564 0)
(0.308668 3.55342 0)
(-0.131823 3.63501 0)
(0.139761 3.24675 -6.9744e-19)
(-0.0125949 2.98195 0)
(-0.00281191 2.08427 0)
(-0.0135201 2.13321 1.87428e-20)
(-0.000272511 1.87656 -2.85153e-20)
(0.450656 0.143689 -3.77624e-19)
(0.352812 0.0200331 -3.63888e-19)
(0.433719 0.163101 -1.13729e-18)
(0.34007 0.0559283 -7.5052e-19)
(0.2213 0.957316 0)
(0.272868 1.32103 -3.43626e-19)
(0.374053 1.2631 5.76593e-19)
(0.987477 0.00855261 0)
(0.941942 0.00586381 0)
(1.0003 0.000578453 0)
(1.00286 0.00930612 0)
(1.00302 0.00845902 -2.90235e-18)
(0.991913 0.00970017 2.19177e-18)
(-0.0133074 0.80039 0)
(-0.00479819 0.613032 0)
(-0.000937613 0.901097 0)
(-0.00732521 0.797286 0)
(-0.0165558 0.607252 0)
(0.103642 0.184655 2.43407e-19)
(0.160515 0.16155 0)
(0.993539 -0.00838142 0)
(0.954419 -0.00651731 0)
(0.768848 0.0459715 0)
(0.704586 0.0566082 0)
(0.663246 -0.0304118 0)
(0.960194 -0.00961514 0)
(0.620512 0.0756224 0)
(0.446742 -0.0127343 1.60287e-18)
(-0.0364738 2.86397 7.32063e-19)
(0.0417813 2.90972 0)
(0.0546668 2.88488 0)
(-0.00432789 2.69931 0)
(-0.0132265 2.98508 9.14094e-19)
(-0.0180203 2.89506 0)
(-0.0154628 2.98805 -2.82696e-18)
(-0.0133036 2.92517 9.66832e-19)
(0.0532287 1.31252 0)
(0.0676837 1.37281 0)
(-0.010209 2.09769 -1.68539e-22)
(-0.00524525 2.06293 0)
(-0.016432 1.83516 0)
(0.937959 -0.00770905 0)
(0.856313 -0.00955243 0)
(0.863403 0.00633068 0)
(0.949161 -0.00801783 0)
(0.883645 -0.00815014 0)
(0.515859 1.1311 -2.49812e-19)
(0.565418 1.183 0)
(0.367288 0.880931 3.62314e-20)
(0.309534 0.739919 0)
(0.911921 1.06166 -1.32369e-19)
(1.02146 0.863377 2.6193e-19)
(0.368322 1.37266 0)
(0.532322 1.34137 0)
(0.544355 1.29401 0)
(0.115064 0.180263 -3.12744e-19)
(0.361591 0.206494 0)
(0.326742 0.0979749 2.12251e-19)
(0.99219 0.918971 0)
(1.0563 0.767878 0)
(1.08084 0.708249 -1.91474e-19)
(1.10787 0.610279 0)
(1.15407 0.394108 5.43686e-20)
(0.957498 -0.00880639 0)
(0.962383 -0.0101203 0)
(0.901484 -0.00800468 0)
(0.98417 -0.00917761 0)
(0.974646 -0.00939042 0)
(0.937055 -0.00635581 0)
(1.00019 0.00233737 0)
(1.0009 0.00139849 0)
(0.999911 0.000855779 0)
(0.0338368 2.06417 4.69045e-19)
(0.121902 1.75355 0)
(0.0150455 2.18084 7.37073e-19)
(0.0522383 1.86417 -6.25855e-19)
(0.106116 1.18316 -2.29748e-19)
(0.0468238 1.06923 0)
(0.141347 1.03136 0)
(0.00802508 0.898218 0)
(0.0185571 0.715823 0)
(-0.00491491 2.22969 -1.41373e-21)
(0.0282718 1.99868 0)
(-0.00487956 2.22832 -6.53526e-20)
(0.0270636 1.99799 1.19808e-19)
(0.00418114 0.870018 0)
(0.0125043 0.848915 0)
(0.0142449 0.679071 0)
(-0.00310308 0.802623 0)
(-0.000821883 0.595341 0)
(0.935431 0.0088723 0)
(0.845107 -0.0150691 0)
(0.925495 -0.000280571 0)
(0.840112 -0.0126666 0)
(0.81216 0.00131548 0)
(0.901734 0.0198934 0)
(0.87829 0.0239157 0)
(0.788868 -0.000625168 0)
(0.00568312 3.06475 -9.04351e-21)
(0.0165189 3.0578 0)
(0.0146144 2.96907 0)
(0.00861088 2.87629 0)
(0.925656 3.97016 0)
(1.24033 3.30245 9.27383e-19)
(0.0700575 3.07421 0)
(-0.0285437 2.9055 0)
(0.0660592 1.44997 0)
(0.0175698 1.79743 0)
(0.0487404 1.65545 0)
(-0.0292942 2.55387 1.76747e-21)
(-0.0177493 2.27856 0)
(-0.0340742 2.4141 0)
(0.0246348 1.92735 2.85133e-21)
(-0.0100459 2.19943 3.94416e-20)
(-0.00628169 2.1728 2.88865e-20)
(0.00761319 1.89689 0)
(0.477375 0.12007 5.66493e-19)
(0.375884 0.00456481 -5.56462e-19)
(0.26008 1.57448 0)
(0.26921 0.732442 -3.24059e-19)
(0.177611 1.6598 -1.08919e-18)
(0.22709 1.19944 1.09191e-18)
(0.902241 0.00651783 0)
(0.967504 0.0110363 0)
(0.974623 0.0107844 0)
(0.923442 0.00650562 0)
(-0.0129314 0.796418 0)
(-0.00757006 0.79605 0)
(-0.0122023 0.606035 0)
(0.252738 0.204809 6.83797e-19)
(0.210688 0.192369 -8.10074e-19)
(0.217704 0.150817 0)
(1.08209 0.0809983 3.13437e-20)
(1.06472 0.0360262 0)
(1.00262 0.037908 0)
(0.899126 -0.00762415 0)
(0.506359 0.0986236 0)
(0.547288 0.0818234 -2.56343e-18)
(0.404372 0.000153743 9.60394e-19)
(0.00906028 2.98105 7.77593e-19)
(-0.0329518 2.86575 4.59342e-20)
(0.00368356 3.05026 -1.90985e-20)
(0.0201113 3.04337 6.78464e-19)
(-0.0149861 2.99655 3.1703e-20)
(-0.0129743 2.94944 -1.27432e-22)
(-0.0172924 3.01195 -5.8459e-19)
(0.0148951 3.02376 4.23499e-19)
(0.00739858 3.03691 -6.72639e-19)
(0.93259 -0.0017663 0)
(0.938539 -0.00368565 0)
(0.844324 -0.00919645 0)
(0.956725 0.011716 0)
(0.943043 0.0129779 0)
(0.881764 0.00609399 0)
(0.918135 0.0163502 0)
(0.926553 0.0146531 0)
(0.838671 0.00382911 0)
(0.719608 1.41043 1.88548e-20)
(0.753327 1.51978 0)
(0.187056 0.324189 7.50225e-20)
(0.218081 0.65673 6.06269e-19)
(0.259041 0.717799 -3.52386e-19)
(0.265021 0.53298 7.01122e-19)
(0.335749 0.788209 1.64192e-18)
(0.133105 0.221115 3.84069e-19)
(0.407848 0.182971 7.96364e-19)
(0.387671 0.198505 2.07358e-19)
(0.337911 0.0788443 3.95891e-19)
(1.14504 0.452519 1.11534e-20)
(1.16097 0.248125 4.9748e-21)
(0.00689414 2.22904 2.9202e-19)
(0.0481451 1.93092 0)
(0.963997 0.0281845 0)
(0.938539 0.0130572 0)
(0.86268 -0.0186018 0)
(0.0113603 3.07458 0)
(0.0199024 2.94414 1.25173e-18)
(0.0164403 2.95645 0)
(0.00623009 2.85058 -1.24186e-18)
(0.00621072 3.09142 3.04834e-19)
(0.00705542 3.08213 0)
(0.786484 1.8227 -1.54588e-19)
(1.24802 2.50135 3.90828e-19)
(0.768714 1.96263 -1.22264e-18)
(0.0202294 2.98224 -6.766e-19)
(0.0356877 3.00203 0)
(-0.0338606 2.8789 0)
(-0.00992894 2.20177 -1.41329e-20)
(-0.0106262 2.21348 -7.92e-20)
(0.0299453 1.97289 -3.80595e-21)
(0.27517 1.38157 1.05534e-18)
(0.227114 0.519984 -7.23712e-19)
(0.0628458 1.98815 8.05851e-19)
(0.136225 1.87636 -9.53042e-19)
(0.180455 1.49363 9.18979e-20)
(0.00404806 3.119 -1.84095e-18)
(0.011154 3.11934 2.02274e-18)
(-0.00901622 2.98092 8.46042e-19)
(-0.00433402 2.97752 -8.0247e-19)
(-0.0212901 2.88086 -8.61684e-19)
(0.00847163 3.10006 -2.27115e-18)
(0.00204455 3.10478 2.2819e-18)
(0.273559 0.68054 0)
(0.237486 0.670684 -1.24952e-18)
(0.0955359 0.221844 5.53803e-19)
(0.350067 0.914041 1.14069e-18)
(0.188484 0.265829 -1.75911e-18)
(1.16115 0.167936 8.25299e-20)
(1.16332 0.302077 0)
(1.14841 0.116843 -2.98242e-20)
(-0.00282408 2.24462 -2.06699e-21)
(0.00051744 2.23642 0)
(0.0343763 1.96786 0)
(0.339407 1.29021 -3.80017e-19)
(0.368203 1.12598 -8.20486e-19)
(0.201981 0.363969 1.46238e-18)
(1.00587 -0.0108622 0)
(1.00766 -0.00765395 5.35826e-19)
(0.0417611 1.28911 0)
(0.00534122 1.23054 0)
(1.00222 0.0035064 1.80412e-21)
(1.00366 0.0094508 1.09328e-18)
(-0.0295737 2.54675 -2.2329e-21)
(-0.0294929 2.58392 0)
(0.0357502 3.17898 4.58453e-19)
(0.395794 3.49203 0)
(1.14713 0.650765 -8.14844e-20)
(1.01293 0.0130542 -2.14652e-21)
(1.02127 -0.0104101 0)
(1.00169 0.000104162 7.29452e-23)
(0.0996786 1.35603 0)
(0.147419 2.57742 0)
(0.0278005 1.29263 0)
(0.00143911 2.6324 6.86029e-20)
(-0.0216271 2.58791 4.12118e-20)
(1.0017 0.028398 2.47141e-21)
(1.06145 0.00334915 0)
(1.0943 0.022652 0)
(0.0106067 1.82213 0)
(-0.0273943 2.58516 0)
(0.0168155 1.27991 0)
(0.292487 1.46955 -1.3271e-19)
(1.01126 -0.009658 0)
(1.00939 -0.0149365 0)
(1.00236 0.000715142 6.84484e-19)
(1.00548 -0.00482694 -8.04743e-19)
(1.00119 -0.000989695 0)
(0.0251353 1.53618 0)
(0.0409555 1.38075 0)
(0.0494435 1.4781 0)
(0.0293773 1.26752 0)
(0.0169713 1.20627 0)
(0.0130974 1.18471 0)
(1.0345 -0.00645592 0)
(1.02057 0.015694 -9.1132e-22)
(0.79752 1.26531 2.21713e-19)
(1.00225 0.000263299 -6.82737e-19)
(1.00406 0.00524875 7.98177e-19)
(1.00118 0.00205955 0)
(1.01283 0.010264 6.79029e-19)
(1.00802 0.00828685 -8.22009e-19)
(1.00858 0.0146738 0)
(-0.0306292 2.61174 0)
(-0.0296697 2.59352 2.94058e-21)
(-0.030674 2.6047 -4.53683e-22)
(1.22466 0.253264 6.77848e-19)
(1.15564 0.0827008 0)
(0.0438779 3.0774 -9.95357e-19)
(0.0655664 2.85363 -7.22846e-20)
(0.142032 3.19316 1.51417e-18)
(0.13667 3.22205 -2.30848e-19)
(0.135364 3.23467 0)
(0.0197966 3.13777 2.58976e-19)
(0.0765277 3.16026 9.82634e-19)
(0.0689829 3.18654 -4.87542e-19)
(0.0229592 3.12922 0)
(0.646986 0.293416 0)
(0.569847 0.345142 0)
(1.11435 0.685589 2.05736e-19)
(1.1104 0.813608 -2.1322e-19)
(1.17569 0.569937 0)
(1.20635 0.506294 0)
(1.01615 0.013291 -1.26621e-18)
(1.01498 0.0142613 1.58946e-18)
(1.0252 -0.00993942 0)
(1.02325 -0.0119487 0)
(1.00645 0.00255313 0)
(1.01044 0.0036935 0)
(1.00462 0.00181269 0)
(1.00978 0.00615731 0)
(1.00783 0.00595395 0)
(1.00452 0.00465398 0)
(0.0879299 1.35232 0)
(0.0831331 1.32627 0)
(0.12052 1.38965 0)
(0.132973 1.40041 0)
(0.147119 2.60165 0)
(0.187305 2.66848 -4.57417e-19)
(0.102322 2.65947 0)
(0.0878516 2.6632 2.29896e-19)
(0.041013 2.68584 -2.06638e-19)
(0.0245664 1.31528 0)
(0.0206749 1.24435 0)
(0.0307561 1.32135 0)
(0.0264719 1.26186 0)
(0.00118837 1.98564 -3.11088e-20)
(-0.0225211 2.61552 2.52778e-20)
(-0.0108251 2.67551 6.02023e-20)
(-0.0182178 2.69058 0)
(-0.0258251 2.6216 -9.30423e-20)
(-0.0262379 2.6149 -4.50657e-20)
(0.0104687 1.98545 2.56999e-20)
(-0.0130506 2.41091 -3.39147e-20)
(-0.0161595 2.43 -6.82617e-20)
(1.01121 0.0364321 1.28931e-18)
(1.00749 0.0164119 -1.59363e-18)
(1.00288 0.0425459 -1.29042e-18)
(0.981693 0.0220481 1.64363e-18)
(1.06272 0.0071816 0)
(1.04828 -0.00881617 0)
(1.09153 0.0325596 0)
(1.07245 0.0115367 0)
(1.07023 -0.00107618 0)
(1.13678 0.0789451 0)
(1.1083 0.041893 0)
(1.11118 0.0299359 0)
(-0.0291101 2.44014 -4.59905e-21)
(-0.00743629 2.03442 0)
(-0.0161718 2.23613 0)
(-0.0283422 2.60658 9.63125e-21)
(-0.0243058 2.61849 -5.32286e-22)
(0.00183482 1.59391 3.50583e-20)
(0.0211309 1.55763 -3.53733e-20)
(0.0216625 1.39505 0)
(0.0338482 1.40934 0)
(0.0263531 1.40983 0)
(-0.00038518 1.29053 0)
(0.00453908 1.21019 0)
(0.379009 1.48443 2.06826e-19)
(0.417694 1.4893 1.23326e-19)
(0.596615 2.44705 -2.46552e-19)
(0.402578 2.54244 7.3002e-19)
(0.352389 2.06586 8.38814e-20)
(1.02096 -0.00821895 0)
(1.01545 -0.00980476 0)
(1.01489 -0.0155299 0)
(1.00746 -0.00120246 0)
(1.00492 -0.000967049 0)
(1.00776 -0.00476994 0)
(1.00924 -0.00372138 0)
(1.01416 -0.00449335 0)
(1.02128 0.0160318 1.2401e-18)
(1.01807 0.0157307 -1.58966e-18)
(1.02173 0.0179772 -1.2487e-18)
(1.01963 0.0166504 1.56336e-18)
(0.764516 1.31412 0)
(0.699899 1.36679 2.01303e-19)
(0.873504 1.21038 5.77569e-20)
(0.916271 1.16335 -7.68109e-20)
(1.15639 2.60878 3.43836e-19)
(0.806311 0.106923 6.27612e-19)
(1.15842 0.10238 0)
(1.20332 0.183886 -5.44423e-19)
(1.18674 0.148126 -2.30261e-20)
(1.00378 0.144817 0)
(0.136612 2.96125 5.87904e-19)
(0.113748 2.86701 -1.2592e-18)
(0.0243233 2.37206 8.49722e-19)
(0.091545 -0.0170779 -3.81261e-19)
(0.340705 3.42099 -1.89594e-19)
(0.194774 3.31339 0)
(0.237731 3.3556 2.46914e-19)
(0.246131 3.03446 -1.91984e-18)
(0.340734 3.19379 0)
(0.00758188 3.12064 5.00063e-20)
(0.0177313 3.12955 -5.85523e-19)
(0.0160083 3.12561 8.61808e-19)
(0.0360239 3.13954 0)
(0.0342161 3.15079 0)
(1.21565 2.60826 0)
(0.538083 0.837175 -5.56154e-19)
(1.03744 0.98812 2.74623e-20)
(0.974181 1.06391 0)
(0.824828 0.966425 -1.29714e-19)
(1.0611 0.8794 2.88057e-20)
(0.366571 0.396331 -9.81155e-19)
(0.691648 0.319523 -2.20053e-20)
(0.655723 0.235226 4.49908e-19)
(0.588678 0.375126 3.3264e-20)
(0.504339 0.344257 -1.33961e-18)
(0.662251 0.337139 0)
(0.703387 0.422103 7.6351e-19)
(0.711655 0.420449 0)
(0.623524 0.366805 0)
(0.594723 0.289832 0)
(0.799858 0.61568 4.55416e-19)
(1.22338 0.275822 -5.73272e-19)
(1.21843 0.412708 0)
(1.22951 0.353873 0)
(0.741628 0.187099 6.68012e-19)
(0.846849 0.535528 -4.16909e-19)
(0.745361 0.508113 7.38789e-19)
(0.949505 0.423222 -8.165e-19)
(1.01972 0.014693 8.52599e-19)
(1.01786 0.0142067 -8.57591e-19)
(1.01594 0.0155854 0)
(1.03592 -0.00599337 0)
(1.02958 -0.00862432 -8.04554e-19)
(1.02752 -0.012161 7.96666e-19)
(1.02505 0.00978514 0)
(1.02365 0.0134415 0)
(1.01142 0.00406483 0)
(1.01428 0.0089979 0)
(1.01512 0.00393038 0)
(1.01422 0.0027496 0)
(0.0585587 1.33655 0)
(0.0634157 1.29572 0)
(0.144008 1.36344 -3.33443e-20)
(0.268754 1.46642 6.62571e-20)
(0.16165 1.43769 1.36621e-19)
(0.192015 1.44537 -2.24338e-19)
(0.16511 1.38703 0)
(0.132556 1.59216 -1.14601e-19)
(0.116516 1.56378 0)
(0.351338 2.01895 -1.2193e-19)
(0.347196 2.35086 6.64089e-19)
(0.188045 1.44835 9.99244e-20)
(0.261478 1.38077 5.45129e-21)
(0.198884 1.36773 -4.41554e-21)
(0.273556 1.32268 -1.4245e-19)
(0.241195 1.5759 0)
(0.26231 1.61602 1.43303e-19)
(0.0348272 2.26886 -4.80193e-20)
(0.0430105 2.67571 0)
(0.0675339 2.40674 1.75776e-19)
(0.0618715 2.42828 0)
(0.0710952 2.67665 -2.54527e-19)
(0.0509208 2.70522 0)
(0.029886 1.40429 -1.47694e-20)
(0.037438 1.45635 0)
(0.0324805 1.37338 0)
(0.0267176 1.37467 1.66644e-20)
(-8.67653e-05 2.66081 -1.87483e-20)
(0.0289419 2.70499 2.38278e-19)
(0.0114033 2.72999 1.64782e-21)
(0.00170895 1.83432 2.93526e-20)
(-0.00519295 1.67776 1.28607e-20)
(0.0300294 1.29081 0)
(0.0110318 1.22411 0)
(0.0502426 1.5676 3.03203e-20)
(0.0309644 1.44019 2.65771e-20)
(0.0394913 1.50583 -3.25503e-20)
(0.0419484 1.59225 0)
(-0.0348661 2.28649 2.7697e-20)
(-0.0430842 2.55764 -1.50154e-20)
(-0.0188608 2.45614 -7.19598e-21)
(-0.0105307 1.85185 -3.55918e-20)
(-0.0296459 2.50761 -1.3001e-20)
(-0.0260679 2.45104 6.27901e-20)
(1.01971 0.020738 -8.47054e-19)
(1.01594 0.0261922 8.5103e-19)
(1.01513 0.0162879 0)
(1.01125 0.0680074 1.19618e-18)
(0.991234 0.0565593 -1.33939e-18)
(0.95191 0.0420182 1.49843e-18)
(1.01422 0.104491 -1.59599e-19)
(1.04214 -0.00603114 0)
(1.05024 -0.00191008 7.69213e-19)
(1.03852 -0.0100526 -7.7042e-19)
(1.06951 0.040464 -4.59294e-20)
(1.06324 0.0223478 3.94998e-19)
(1.06359 0.0535501 0)
(1.05125 0.0483131 -1.4189e-19)
(1.03304 0.0407361 0)
(1.02607 0.0368487 0)
(1.02785 0.0127717 0)
(1.02431 0.0156029 0)
(1.03978 0.0307912 2.92072e-19)
(1.03936 0.0260261 -6.44397e-19)
(1.05024 0.0323019 -3.09917e-19)
(1.04849 0.032082 -3.40877e-19)
(1.06963 0.0625406 6.68806e-19)
(1.0941 0.0500077 0)
(1.10198 0.0930151 0)
(-0.0373033 2.28482 -6.76467e-21)
(-0.0148391 2.03169 -6.1167e-21)
(-0.0233439 2.02719 0)
(-0.026061 2.45579 7.24992e-21)
(-0.019158 2.40482 1.04909e-20)
(-0.0383417 2.48219 -2.0307e-21)
(-0.0257656 2.62871 3.9543e-20)
(-0.0313276 2.57046 -3.17938e-21)
(-0.0277355 2.52308 1.18738e-20)
(-0.0222614 2.62331 -1.35675e-20)
(-0.0281402 2.62407 1.80725e-20)
(-0.00487672 1.49444 -4.18337e-22)
(0.00731727 1.62855 3.13996e-20)
(0.367331 1.42579 -7.99559e-20)
(0.365485 1.36874 7.54126e-20)
(0.646221 1.41406 -1.94596e-19)
(0.515209 1.47932 -1.19906e-19)
(0.568225 1.45041 0)
(0.592261 2.42279 2.19036e-19)
(0.659739 2.41531 3.47666e-19)
(0.410947 2.51638 8.39908e-20)
(0.404382 2.54376 -6.66166e-19)
(0.512375 2.48859 6.47285e-19)
(0.551789 2.46079 0)
(0.488958 2.51654 -5.81461e-19)
(0.249243 2.59215 1.22316e-18)
(0.354006 2.56509 -8.19437e-20)
(0.285074 2.65392 -1.67346e-18)
(0.943585 2.37902 7.56533e-19)
(0.835617 2.38133 0)
(1.01095 0.000397765 2.77935e-20)
(1.01522 -0.0055145 -2.25651e-20)
(1.01763 -0.00364852 -4.12302e-19)
(1.01489 -0.000973575 4.14115e-19)
(1.01231 0.00102177 0)
(0.634039 1.28194 0)
(0.652485 1.17937 0)
(0.756979 1.08804 0)
(0.645024 1.14343 0)
(1.18598 2.62328 5.85787e-20)
(1.07379 2.36755 0)
(0.837933 2.19025 4.16388e-21)
(0.825036 2.44847 0)
(0.921986 2.53971 -4.57597e-19)
(0.957235 2.49588 3.04601e-19)
(0.815656 0.160411 0)
(0.781793 0.132665 1.71351e-19)
(0.924829 0.139666 9.96719e-19)
(0.840112 0.139589 -3.73114e-19)
(0.815332 0.0801982 -1.14563e-18)
(1.07673 0.224975 -9.76706e-19)
(0.996331 0.28307 -1.53245e-20)
(0.924207 0.281604 9.27469e-19)
(1.00367 0.214556 7.76537e-19)
(0.953335 0.183285 -1.32774e-18)
(0.917611 0.185024 1.65972e-19)
(0.952008 0.244816 -3.56569e-19)
(0.930634 0.207858 0)
(0.992681 0.17947 6.55402e-19)
(1.04331 0.179128 0)
(1.04241 0.205124 0)
(1.10591 0.113851 3.12825e-19)
(1.06764 0.16732 -1.40182e-20)
(1.07124 0.226337 -1.70721e-19)
(1.10257 0.194424 0)
(1.02285 0.0439618 6.57544e-19)
(1.04108 0.0567455 8.21723e-19)
(1.03434 0.0425615 -6.52419e-19)
(1.04208 0.0631765 -5.50688e-19)
(1.01898 0.0708236 -8.41131e-19)
(0.98816 0.151593 0)
(0.998385 0.100704 0)
(0.968039 0.0644841 -5.33525e-19)
(0.918501 0.0871993 2.09513e-19)
(1.03737 0.100561 7.61528e-19)
(1.06752 0.11718 -9.02405e-19)
(1.06987 0.148335 8.051e-19)
(1.02914 0.138344 0)
(1.07343 0.106027 0)
(1.05468 0.087233 -3.67233e-19)
(1.04418 0.0931867 -6.23477e-19)
(0.578378 1.07586 1.54007e-19)
(0.612814 1.41291 -5.57874e-20)
(1.15671 2.74177 -2.47064e-19)
(1.22352 3.0824 5.51957e-21)
(1.2488 2.7228 -1.76887e-19)
(1.27904 2.7067 -1.02532e-20)
(1.20693 2.34608 -1.00681e-20)
(1.21067 2.98629 -1.09649e-19)
(1.22989 2.95143 2.6037e-19)
(1.21457 3.23589 -1.36926e-19)
(1.37554 2.96758 1.89383e-19)
(1.36615 2.88559 0)
(0.542837 0.845121 -5.22025e-20)
(0.137337 1.25549 5.93408e-19)
(0.532602 0.451947 6.33551e-19)
(0.37019 0.203453 6.99658e-19)
(0.52788 0.378324 7.56152e-19)
(0.545932 0.474614 -1.21477e-18)
(0.547112 0.476407 9.91648e-19)
(0.496377 0.400282 -3.82365e-19)
(0.419294 0.333127 8.67001e-19)
(0.745045 0.247083 -3.82317e-19)
(0.711215 0.279119 0)
(0.693833 0.202805 9.43361e-21)
(0.730172 0.511232 4.019e-19)
(0.70127 0.482555 -1.46501e-18)
(0.614847 0.469311 1.55399e-20)
(0.625483 0.458936 0)
(0.673975 0.731412 4.23047e-19)
(0.825728 0.772279 4.3829e-19)
(0.749913 0.853629 -5.11622e-19)
(0.867603 0.80574 -1.76132e-19)
(0.899743 0.850091 -4.54382e-20)
(0.907664 0.850596 4.65247e-20)
(0.841723 0.644469 -7.55891e-19)
(0.919514 0.702309 1.63637e-19)
(0.975149 0.716667 0)
(0.966143 0.692812 -2.25778e-19)
(1.02384 0.320269 2.3671e-19)
(1.139 0.289772 3.31994e-19)
(1.06397 0.259795 3.99491e-19)
(1.01137 0.35477 -4.74546e-19)
(1.05333 0.420033 0)
(1.10534 0.40397 0)
(0.913184 0.351525 6.156e-21)
(0.841582 0.283873 0)
(0.8739 0.277846 4.3555e-19)
(0.906891 0.287206 -4.61691e-21)
(0.942014 0.426146 2.27834e-18)
(0.898568 0.487314 5.89261e-19)
(0.90246 0.450321 -6.23109e-19)
(0.821069 0.43355 6.67569e-19)
(0.803793 0.429084 3.99349e-19)
(0.774532 0.414567 -3.92441e-19)
(1.02735 -0.00045926 6.87129e-19)
(1.02003 -0.000137243 0)
(1.01849 0.000795223 4.47577e-19)
(1.0215 -0.00193874 -1.01396e-18)
(1.02226 0.00423763 4.92726e-19)
(1.02043 0.0110791 -1.03203e-18)
(1.0214 0.0104764 0)
(1.02072 0.0107374 -2.14963e-19)
(1.016 0.00760685 5.39315e-19)
(1.01675 0.0103672 -2.69057e-19)
(1.01745 0.00970928 1.98185e-19)
(0.0324506 1.31157 0)
(0.03507 1.34532 0)
(0.0407153 1.31349 0)
(0.0425068 1.27362 0)
(0.0708192 1.37366 4.26266e-20)
(0.0769232 1.34682 -5.82994e-21)
(0.111335 1.50239 -3.63621e-20)
(0.0935389 1.35275 1.70038e-20)
(0.0349826 1.4447 -5.34553e-20)
(0.0388373 1.43729 4.16827e-20)
(0.0621592 1.3572 -7.49802e-21)
(0.0550164 1.35859 -1.63435e-20)
(0.0468071 1.33472 -2.68666e-21)
(0.0401434 1.35565 -5.62761e-21)
(0.109562 2.37664 -1.94333e-19)
(0.0975905 2.42295 0)
(0.173644 2.05139 1.25404e-19)
(0.112786 1.7113 5.83747e-20)
(0.231626 2.04561 -1.02924e-19)
(0.207235 2.43914 0)
(0.267076 2.3903 -6.49057e-19)
(0.305774 2.38816 4.60414e-19)
(0.233432 2.00534 -2.86045e-19)
(0.156111 2.16731 1.87126e-19)
(0.145962 2.28019 0)
(0.0203623 1.87463 -5.82769e-20)
(-0.00273562 2.4066 -1.14023e-19)
(0.00406885 2.15774 0)
(0.0135471 2.46522 -1.41521e-20)
(0.0275402 2.30911 4.08358e-20)
(0.0217369 1.39008 2.38667e-21)
(0.0166271 1.37523 -3.8485e-20)
(0.017339 1.37992 9.13713e-21)
(0.0232999 1.37777 1.43401e-20)
(0.0285482 1.40826 0)
(0.0125519 1.36244 0)
(0.00314043 1.27804 1.6927e-20)
(0.00554112 1.34953 -6.20036e-21)
(0.0127114 1.35033 0)
(0.00792666 1.2799 9.02727e-21)
(0.00663255 1.1994 -2.04237e-20)
(1.04008 0.0109774 0)
(1.04622 0.00728019 -7.21289e-20)
(1.03864 0.0205433 -5.19687e-19)
(1.04794 0.0195215 0)
(1.05148 0.0193437 0)
(1.03636 0.0109251 -6.63869e-21)
(1.03095 0.010825 8.33745e-19)
(1.03192 0.0158277 1.01134e-18)
(1.02592 0.0198712 0)
(1.0232 0.0202717 0)
(1.03525 0.0242174 5.18468e-19)
(1.02631 0.0256379 0)
(1.02458 0.0257188 0)
(-0.0293982 2.02925 0)
(0.00333887 1.64709 -7.90156e-21)
(-0.0065702 1.76748 -2.44673e-20)
(0.0014912 1.36161 0)
(-0.011209 1.55624 1.63475e-20)
(-0.00332207 1.44929 -1.17783e-20)
(0.00620796 1.37328 0)
(0.390111 1.66956 0)
(0.367384 1.29771 -1.38054e-19)
(0.303365 1.34212 0)
(0.422796 1.29535 9.0202e-20)
(0.467137 1.45458 0)
(0.44825 1.40046 -1.2433e-20)
(1.03525 2.68686 -1.61574e-20)
(0.965025 2.40977 -9.50879e-19)
(0.914878 2.19014 1.08643e-18)
(0.849097 2.37362 2.5131e-19)
(0.846695 2.49733 0)
(0.916722 2.49391 0)
(0.926954 2.37218 0)
(0.905533 2.35844 -9.76272e-19)
(0.688687 2.46551 -4.26822e-19)
(0.800794 2.45591 -1.04344e-19)
(0.811274 2.42988 7.95697e-20)
(0.694189 2.39006 0)
(0.798673 2.38561 0)
(0.7575 2.39803 -3.78689e-19)
(0.768792 2.487 0)
(0.612413 1.09891 0)
(0.483463 0.927958 -5.32438e-19)
(0.550594 0.962597 -3.38479e-20)
(0.519383 1.05503 0)
(0.52039 1.00512 7.99562e-19)
(0.773358 0.879524 -1.45743e-19)
(0.782399 1.01571 0)
(0.756332 0.974749 2.15281e-19)
(0.642614 1.03498 0)
(0.647322 0.94328 0)
(1.16443 2.76314 -2.5194e-19)
(1.1421 2.82678 -1.11844e-19)
(0.931732 2.34745 1.24619e-19)
(0.899508 2.3251 -9.11942e-20)
(1.1292 2.7358 0)
(1.08256 2.70588 1.09777e-19)
(1.08909 2.4873 -3.34497e-19)
(0.982836 2.23474 -3.04082e-20)
(0.495415 1.35419 0)
(0.508728 1.07432 -1.35821e-19)
(0.562039 1.16456 0)
(0.85999 0.220307 0)
(0.788295 0.171091 0)
(0.73311 0.138045 0)
(0.855823 0.224251 -6.85556e-19)
(0.762446 0.209999 4.01517e-19)
(0.933471 0.0740212 -4.32739e-19)
(0.948609 0.120066 0)
(0.928052 0.131443 1.85481e-19)
(0.868098 0.108125 7.44062e-19)
(0.84062 0.0658295 -4.65647e-19)
(1.16186 3.36124 -7.07687e-19)
(1.20953 3.28057 0)
(1.16032 3.38916 -1.46223e-18)
(0.64806 3.54992 1.24167e-18)
(0.872858 3.11719 5.49322e-20)
(0.515518 0.85212 6.26057e-19)
(0.432185 0.84625 0)
(0.339024 0.487694 -1.58717e-19)
(0.452935 0.67992 9.02095e-19)
(0.536087 0.456938 -2.18753e-19)
(0.509634 0.510871 2.49393e-19)
(0.662628 0.53023 5.42048e-19)
(0.693304 0.554284 0)
(0.645574 0.611081 0)
(0.60296 0.549738 0)
(0.981821 0.601452 1.14442e-19)
(0.901282 0.536534 -5.73278e-19)
(0.925544 0.570871 4.40842e-19)
(0.961725 0.505611 -4.44201e-19)
(1.06527 0.478834 0)
(1.07274 0.570031 -1.13404e-19)
(0.844937 0.385155 -9.11359e-19)
(0.848279 0.371904 -1.12753e-18)
(0.796094 0.379005 7.10435e-19)
(0.791747 0.349731 -7.25835e-19)
(0.842048 0.305997 -5.67201e-19)
(0.794169 0.304859 6.96634e-19)
(1.02667 0.00556847 -5.26319e-19)
(1.02643 0.00577582 1.07259e-18)
(1.02922 -0.000199542 6.66626e-19)
(1.0333 0.000692748 -8.03112e-19)
(1.03347 0.00833617 0)
(1.03009 0.00890065 -1.30491e-18)
(0.0645723 1.6407 3.19857e-20)
(0.0460952 1.56986 0)
(0.0868527 1.69344 2.04159e-19)
(0.0977309 1.67713 -1.81822e-19)
(0.0863572 1.52129 6.82296e-20)
(0.0866787 1.50251 0)
(0.00601794 1.68323 0)
(-0.0018291 1.48825 -9.11709e-21)
(-0.00301628 1.42583 8.1941e-21)
(-0.00712415 1.5459 2.52089e-21)
(-0.00262789 1.88925 -1.71428e-20)
(-0.0207924 1.94013 1.05226e-20)
(0.49466 1.37209 -3.25477e-19)
(0.488784 1.37512 3.56288e-19)
(0.444452 1.29188 -7.29018e-20)
(0.432365 1.29244 1.07423e-20)
(0.625455 1.29869 0)
(0.544136 1.38605 6.20482e-20)
(0.559809 1.394 -6.03866e-20)
(0.455239 1.27761 7.04063e-20)
(0.508716 1.23236 0)
(0.561247 1.19795 0)
(0.655085 2.42424 6.27071e-19)
(0.669791 2.46081 1.33019e-18)
(0.715426 2.47283 -9.16353e-19)
(0.614901 2.44817 -2.13557e-19)
(0.560687 2.54031 3.01272e-19)
(0.510821 2.51366 -8.01046e-19)
(0.975713 2.37926 -6.08419e-19)
(1.01178 2.39326 0)
(0.921318 2.16842 -7.03225e-19)
(1.05273 2.68493 0)
(1.05485 2.6716 0)
(0.613125 2.27588 -1.31189e-19)
(1.0425 3.16401 1.20117e-19)
(0.913635 3.034 -2.34509e-20)
(0.281595 0.913148 0)
(0.322744 0.774055 -3.30328e-19)
(0.481775 0.729986 -3.34579e-19)
(0.391732 2.02275 0)
(0.467609 2.78567 -3.82399e-20)
(0.424438 2.54964 0)
(0.689055 0.679251 -8.979e-19)
(0.770586 0.679827 1.22807e-18)
(0.791288 0.622562 -1.21669e-18)
(0.671979 0.642144 -1.16059e-19)
(0.72777 0.596085 -4.8173e-19)
(1.00466 2.76742 -9.13342e-20)
(1.04166 2.82452 -1.89003e-19)
(0.641512 2.15393 6.90372e-19)
(0.597463 1.71737 -4.90374e-19)
(0.700208 1.90949 -4.33287e-19)
(0.990229 2.45066 -1.16672e-19)
(0.994896 2.44511 3.23443e-19)
(0.661933 1.85001 2.9846e-20)
(0.452345 1.33614 1.5737e-19)
)
;

boundaryField
{
    wall-4
    {
        type            noSlip;
    }
    velocity-inlet-5
    {
        type            fixedValue;
        value           uniform (1 0 0);
    }
    velocity-inlet-6
    {
        type            fixedValue;
        value           uniform (0 3 0);
    }
    pressure-outlet-7
    {
        type            zeroGradient;
    }
    wall-8
    {
        type            noSlip;
    }
    frontAndBackPlanes
    {
        type            empty;
    }
}


// ************************************************************************* //
