/*--------------------------------*- C++ -*----------------------------------*\
  =========                 |
  \\      /  F ield         | OpenFOAM: The Open Source CFD Toolbox
   \\    /   O peration     | Website:  https://openfoam.org
    \\  /    A nd           | Version:  9
     \\/     M anipulation  |
\*---------------------------------------------------------------------------*/
FoamFile
{
    format      ascii;
    class       volScalarField;
    location    "12";
    object      p;
}
// * * * * * * * * * * * * * * * * * * * * * * * * * * * * * * * * * * * * * //

dimensions      [0 2 -2 0 0 0 0];

internalField   nonuniform List<scalar> 
918
(
0.230289
0.936063
0.0116475
0.229651
0.00136795
0.903229
-0.844736
0.419738
0.210111
-0.134212
0.0221606
0.201559
0.763569
0.531407
-1.4524
0.0159123
0.36934
-0.635882
0.208443
0.00809284
0.506507
0.216829
0.220042
0.210796
0.265466
0.526478
0.644116
0.00342045
-0.00349939
0.000443871
0.00417063
-0.000560448
0.00545531
0.786873
0.837959
0.8606
0.178157
0.043669
-0.691323
-0.771371
-0.757546
-0.876991
0.404361
0.410303
-0.490034
0.417194
0.431094
0.198808
0.209556
0.210564
0.211433
0.210708
0.212138
0.304564
-0.152449
-0.213409
-0.0788791
-0.0598487
0.0847488
0.0204516
0.0139967
0.0227314
0.0240519
0.140662
0.198503
0.194604
0.204865
0.215204
0.87561
0.847525
0.873654
0.787319
0.803854
0.741553
0.714131
0.551172
0.572232
0.517376
0.508471
-1.89059
-2.8625
-0.852116
-0.588763
0.00167185
0.0226493
0.0281758
0.348957
0.357542
0.36282
0.375897
0.798128
-0.592942
-0.817294
0.208069
0.206534
0.216638
0.217522
0.213859
0.212797
0.0151196
0.0209643
-0.000950869
0.00790448
0.00574092
0.480689
0.472907
0.211669
0.208591
0.222707
0.246875
0.233382
-0.0172519
0.280397
0.310083
0.323617
0.506706
0.504718
0.512336
0.617525
0.580215
0.68162
0.704956
0.00754466
0.00207471
0.0126584
0.00870509
0.0120611
0.176911
0.171998
0.19066
0.179938
0.184264
-0.0450451
-0.178474
0.133191
0.165706
-0.598994
-0.673288
-0.733681
-0.7799
-0.845986
0.1526
0.393724
0.397456
-0.508438
-0.414988
-0.575361
-0.340999
-0.417617
0.186356
0.195621
0.18966
0.205332
0.20064
0.201247
0.213667
0.210997
0.212442
0.334684
0.402256
0.258113
0.234164
-0.422337
-0.271009
-0.42085
-0.0313703
-0.0214245
0.0950604
0.108874
0.0742209
0.0713905
-0.00448685
0.0111903
-0.00193282
0.0269743
0.0289008
0.134669
0.124776
0.14954
0.156304
0.190026
0.189914
0.193041
0.192668
0.664661
0.686948
0.694729
0.668584
-3.86997
-6.67924
-0.254836
-0.10731
0.00228323
0.00303195
0.00188984
0.00321206
0.00370001
0.000400553
0.0442386
0.0398143
0.0319841
0.0362036
0.337875
0.342339
0.786157
0.865524
0.704259
0.719949
0.196168
0.199887
0.204088
0.199967
0.0281568
0.0228831
0.0286775
0.431623
0.453277
0.454185
-0.0524984
-0.140072
0.0310494
0.0580306
0.326876
0.310405
0.33212
0.387551
0.425685
0.712074
0.730377
0.728968
0.73743
0.781463
0.79787
0.763027
0.161042
0.170156
0.166117
0.195119
0.192273
0.192839
0.188153
0.191405
0.189367
-0.332949
-0.711766
0.243309
0.265675
0.222464
0.230568
0.246117
0.400833
0.371367
0.383215
0.389894
-0.274964
-0.345051
0.201213
0.182894
0.0842973
0.110999
0.0965564
0.635963
0.59659
0.646547
0.619871
0.581539
0.606973
-0.662536
-2.19132
-1.2871
0.262962
0.0654316
0.157811
0.0625207
0.0493963
0.0519824
0.812783
0.845751
0.455488
0.604106
0.566911
0.469123
0.501267
0.552926
0.477266
0.51212
0.549572
0.532086
0.107097
0.190479
0.102952
0.499273
0.606336
-0.163731
-0.209484
-0.27231
0.119403
0.154553
0.135528
0.780844
0.630715
0.748215
0.208093
0.208582
0.0119606
0.0185065
0.212311
0.212729
0.00714781
0.0099506
0.137805
-1.16017
-0.174061
0.200338
0.19145
0.208025
-0.115864
0.303807
0.0209916
0.0937359
0.0617382
0.197357
0.150456
0.114423
0.0075319
0.0202252
0.0157442
-0.476071
0.205406
0.203677
0.207498
0.208876
0.209651
0.0104242
0.0109723
0.00719539
0.0135857
0.0111951
0.0113468
0.178197
0.188466
-0.497269
0.207903
0.209877
0.209919
0.203381
0.208643
0.206627
0.0167596
0.0129268
0.0126614
-0.0654803
0.050244
0.401784
0.516533
0.34809
0.116769
-0.134965
0.293066
0.36495
0.257257
0.431444
0.374826
0.400126
-0.118685
-0.264441
-0.10138
-0.155608
0.198363
0.198117
0.190149
0.183979
0.203144
0.20163
0.205676
0.203788
0.206295
0.20702
-0.0669156
-0.0632341
-0.151068
-0.232311
0.330281
0.416872
0.234462
0.2489
0.147757
0.0244832
0.0252732
0.0215118
0.0149347
0.0585964
0.0649646
0.0805171
0.0768828
0.0509558
0.0482745
0.0539217
0.0591341
0.063513
0.192558
0.192682
0.196869
0.203956
0.156977
0.161092
0.13223
0.148334
0.139105
0.081787
0.114961
0.0943045
0.00913217
0.0106508
0.00893015
0.0249996
0.030756
0.0162135
0.0148801
0.0143498
0.0118679
0.0125868
0.0197022
0.0239666
-0.503368
-0.566747
0.882549
0.676925
-0.0465231
0.194885
0.20063
0.198361
0.203633
0.205608
0.205823
0.203809
0.201251
0.188943
0.190576
0.187117
0.187267
-0.444022
-0.579026
-0.400613
-0.45518
-0.14189
0.312588
0.0619617
0.000956343
-0.00256787
0.210239
0.594673
0.416373
0.470077
0.488664
-0.6725
-0.270639
-0.601941
0.00907298
-0.185703
0.397772
0.452993
0.478795
0.422131
0.368429
-0.401233
0.197736
-0.368984
-0.335133
-0.149839
-0.232963
0.42807
0.359533
0.365698
0.388058
0.411036
0.361715
0.343097
0.338236
0.379098
0.383869
0.178315
-0.0277603
-0.076894
-0.10964
0.339228
0.22009
0.272904
0.195018
0.192878
0.195887
0.194391
0.180586
0.186714
0.179797
0.1876
0.189036
0.1991
0.198712
0.1943
0.196497
-0.0357303
-0.0220098
-0.119274
-0.351211
-0.245771
-0.338429
-0.18275
0.090277
0.0960905
0.120215
0.237243
0.0122117
-0.322217
-0.217651
-0.381605
-0.00333593
-0.12685
0.106368
0.158253
0.170695
0.14293
0.211211
0.196804
0.0398261
0.0492213
0.0318727
0.0314558
0.100604
0.123688
0.115826
0.0497453
0.0506077
0.0273417
0.0287924
0.0725317
0.0435871
0.0559725
0.0661957
0.0236649
0.026041
0.0304845
0.0420253
0.0412685
0.0441
0.188477
0.190088
0.18946
0.199858
0.211928
0.225022
0.195524
0.174153
0.167222
0.170878
0.147598
0.154454
0.152434
0.161159
0.179955
0.185838
0.185396
0.18666
0.172499
0.174687
0.162323
0.16544
0.148814
0.133429
0.12111
0.0202135
0.0125155
0.0162495
0.0172874
0.0115285
0.0142866
0.0445383
0.0356171
0.0409297
0.0352057
0.0385102
0.0184072
0.0196057
-0.541411
-0.491415
-0.565366
-0.57788
-0.627658
0.802981
0.82431
0.66981
0.404865
0.423849
0.682702
0.789977
0.420316
0.487302
0.52744
0.0374078
0.513877
0.202176
0.20033
0.196782
0.197175
0.199629
-0.334958
-0.239105
-0.232261
-0.183984
0.000997302
0.107621
0.111962
-0.238746
-0.0758624
-0.0437423
0.305293
0.322313
0.267976
0.293795
0.292677
0.128357
0.194799
0.243856
0.209513
0.246992
0.266379
0.228767
0.257524
0.210766
0.17233
0.172799
0.119068
0.137173
0.11795
0.100542
0.189151
0.169064
0.178565
0.172245
0.190072
0.222044
0.21329
0.233884
0.251278
0.179308
0.144016
0.151889
0.1788
0.14117
0.1519
0.166618
-0.0186303
-0.105156
-0.0557444
-0.417693
-0.297108
-0.314222
-0.363722
-0.329166
-0.0382698
-0.770829
-0.714178
-1.35118
0.140129
0.623286
0.386209
0.358568
0.407954
0.382088
0.38133
0.421341
0.427991
0.329997
0.351337
0.351938
0.303174
0.330203
0.357662
0.35592
0.177709
0.0701548
0.0585039
0.0262469
-0.10063
-0.0721232
0.135772
0.0605049
-0.011116
-0.00147169
0.155808
0.0590239
0.118576
0.15226
0.0855495
0.0460114
0.235741
0.297734
0.294821
0.264477
0.186143
0.197236
0.222211
0.253136
0.280737
0.315851
0.188597
0.193005
0.194662
0.192166
0.188484
0.190894
0.190178
0.192421
0.193346
0.196123
0.194636
0.0136272
0.020677
-0.004833
0.00283689
-0.00114487
-0.0313
0.0392793
-0.0346704
0.0331759
0.0298903
-0.00114237
-0.0100495
0.000569995
0.0178274
0.150194
0.175709
0.160916
0.108534
0.155388
0.356138
0.317745
0.278744
0.17349
0.21883
0.301975
0.0831367
0.0944172
0.0794223
0.104568
0.0995075
0.0314525
0.0300728
0.0335059
0.0422595
0.0395854
0.0314868
0.0265799
0.0270006
0.0293787
0.0283041
0.0281136
0.174382
0.170558
0.172406
0.166143
0.164726
0.177361
0.180174
0.181316
0.185722
0.187139
0.180011
0.183201
0.185874
0.0299139
0.023851
0.0256223
0.0250534
0.0259795
0.0226079
0.0220911
-0.633495
-0.598513
-0.602066
-0.618901
-0.536318
-0.577832
0.0911211
-0.0614099
0.110032
0.365504
0.196501
0.13667
0.158894
0.252911
-0.210745
0.0523905
-0.158439
0.671607
0.486323
0.636578
0.175089
-0.0912859
0.0493495
0.107815
-0.0572246
-0.00731677
-0.000981193
-0.108972
-0.0816706
-0.0431652
0.0590553
0.00607898
0.0169327
-0.166183
0.0303582
0.0200853
-0.0136007
0.136249
0.21996
-0.0124139
-0.0799746
-0.174047
0.296924
0.315047
0.330021
0.306293
0.325702
0.254775
0.245052
0.264774
0.2742
0.267029
-1.09773
-0.820242
-1.74858
-1.06674
-0.65771
0.158873
0.131072
0.383861
0.291827
0.382715
0.365327
0.330129
0.295205
0.296392
0.334852
0.0545978
0.156839
0.130169
0.13864
0.0466951
-0.0136961
0.266278
0.262649
0.298064
0.322746
0.283906
0.324961
0.18473
0.185095
0.184834
0.181873
0.178099
0.179726
0.0909883
0.0692376
0.0999269
0.0822578
0.0569473
0.0578523
0.0359218
0.0316678
0.0285395
0.0294471
0.0334027
0.0378244
-0.264971
-0.398788
-0.621468
-0.636366
-0.374016
-0.472898
-0.45911
-0.519678
-0.365776
-0.316096
0.0292962
0.397444
0.118438
0.410549
0.162017
0.338218
0.188731
0.24736
0.270575
0.103231
0.136209
-0.193177
-0.631411
-0.559264
0.405358
0.411149
0.192556
-0.0267936
-0.245662
-0.0310038
0.213019
0.155243
0.196416
0.26123
0.25765
-0.338989
-0.259847
-0.058852
0.177106
-0.0889267
-0.101846
-0.0968924
0.0406591
-0.0257907
)
;

boundaryField
{
    wall-4
    {
        type            zeroGradient;
    }
    velocity-inlet-5
    {
        type            zeroGradient;
    }
    velocity-inlet-6
    {
        type            zeroGradient;
    }
    pressure-outlet-7
    {
        type            fixedValue;
        value           uniform 0;
    }
    wall-8
    {
        type            zeroGradient;
    }
    frontAndBackPlanes
    {
        type            empty;
    }
}


// ************************************************************************* //
