/*--------------------------------*- C++ -*----------------------------------*\
  =========                 |
  \\      /  F ield         | OpenFOAM: The Open Source CFD Toolbox
   \\    /   O peration     | Website:  https://openfoam.org
    \\  /    A nd           | Version:  9
     \\/     M anipulation  |
\*---------------------------------------------------------------------------*/
FoamFile
{
    format      ascii;
    class       surfaceScalarField;
    location    "12";
    object      phi;
}
// * * * * * * * * * * * * * * * * * * * * * * * * * * * * * * * * * * * * * //

dimensions      [0 3 -1 0 0 0 0];

internalField   nonuniform List<scalar> 
1300
(
3.75095
5.62643
-6.22655
3.75095
-6.10239
5.62643
-4.48095
4.48095
-1.48999
1.48999
1.8766
1.87435
-4.69596
4.69596
-4.8641
4.8641
-2.84905
2.84905
-5.24645
5.24645
-5.06781
5.06781
4.69279
-4.69279
-4.94089
4.94089
-1.91074
1.91074
-4.31909
4.31909
3.17752
-3.17752
-5.1403
5.1403
-0.533115
0.533115
-0.554962
4.30592
3.19599
3.19599
-2.57305
2.57305
-4.84739
4.84739
6.21825
-6.21825
9.45562
-9.45562
-3.22906
-3.38722
1.3571
-8.10954
-4.74528
-4.74528
-8.4404
8.4404
-2.81397
2.81246
2.9588
-2.9588
-1.69642
1.69642
-4.46208
-0.0188676
-4.46208
4.43073
0.0502246
4.43073
-1.62251
0.132527
-1.62251
4.09539
-4.09539
1.31449
0.175495
1.31449
3.05628
-3.05628
-1.87699
3.75359
1.87397
-1.87296
6.17888
-1.87799
3.75234
-4.97953
4.97953
-4.63829
-0.0576687
-4.63829
4.731
-0.0350385
4.731
-5.25368
5.25368
-4.80481
-0.0592955
-4.80481
4.94045
-0.0763506
4.94045
3.06262
-3.06262
-2.87723
0.0281784
-2.87723
2.80743
0.0416211
2.80743
0.35356
5.27287
-5.97999
8.79245
-5.27287
0.0264209
5.20842
0.0380258
5.20842
-5.106
0.0381882
-5.106
5.00783
0.0599855
5.00783
4.78267
-0.0898765
4.78267
-4.80862
0.115827
-4.80862
-3.33468
-3.33104
-5.03584
0.0949496
-5.03584
-1.94595
0.0352098
-1.94595
1.86639
0.0443512
1.86639
-3.55105
3.55105
-4.20463
-0.114458
-4.20463
3.12864
0.0488774
3.12864
1.86803
1.88292
5.61899
-5.61899
2.44147
-5.11817
-0.0221301
-5.11817
-5.1691
-4.28652
5.1691
-0.0288051
-0.843744
0.310629
-0.843744
3.15918
0.0368151
3.15918
2.71863
0.0888025
-2.71863
0.145581
3.44722
-3.44722
1.9355
0.637546
1.9355
-5.57213
5.57213
4.94677
0.0610615
-4.94677
0.099373
6.15799
0.0602631
6.15799
-6.19952
-0.0187371
-6.19952
3.38525
-6.77247
-3.38919
4.8435
0.0973858
-4.8435
0.0982173
2.97635
-0.0175558
2.97635
-2.91141
2.91141
-2.96764
0.00884012
-2.96764
-2.10901
0.412586
-2.10901
1.39193
0.30449
1.39193
-4.39215
-0.0699373
-4.39215
-4.32837
0.123739
4.32837
0.102357
0.715569
-0.715569
-1.74965
0.127136
-1.74965
-4.23695
-0.155201
4.23695
-0.141557
-4.00149
-0.0938996
-4.00149
-3.00534
0.0377043
3.00534
0.050939
3.11519
0.0439901
-3.11519
0.0589061
-1.87124
3.75416
-1.87971
3.75368
-4.78713
-0.192397
-4.78713
5.11261
-0.133087
5.11261
4.52012
-0.201026
-4.52012
-0.118179
4.76848
-0.0374765
4.76848
-5.21601
-0.0376741
-5.21601
5.26764
-0.0139637
5.26765
4.78116
-0.0126782
-4.78116
-0.0236486
5.01614
-0.0756907
5.01614
3.11235
-0.0497359
3.11235
-3.0289
-0.0337132
-3.0289
2.91059
-2.91059
2.90092
0.00967623
-2.90092
0.0236854
-11.1328
11.1141
-0.0350299
-11.0978
5.17339
5.17339
4.18907
0.593596
4.18907
-5.01588
0.207267
-5.01588
3.34462
-6.73381
3.35198
-6.68666
3.33397
-11.4435
3.34496
-6.676
5.17549
-5.17549
5.113
0.0624964
-5.113
0.0771613
-1.99107
0.0451126
-1.99107
-3.08285
-0.468196
-3.08285
4.00789
-0.456842
4.00789
-3.01628
3.01628
-3.07478
0.0584972
3.07478
0.0538568
5.07674
-0.0606
-5.07674
-0.0414231
1.08311
0.231384
-1.08311
0.239362
3.64239
-0.195177
3.64239
-3.27453
-0.172681
-3.27453
-1.97872
-0.01235
1.97872
-0.0432158
-5.81923
0.247102
-5.81923
-11.1908
0.0930211
-11.1528
-6.1065
-6.1065
2.3339
11.1264
-3.00015
-0.0287553
3.00015
-0.0237967
2.9502
0.0660859
-2.9502
0.038784
-2.90874
-0.00185697
2.90874
0.00267946
-2.50964
0.40063
-2.50964
-0.958731
0.958731
-1.17255
0.213817
1.17255
0.219385
1.07239
-0.356821
1.07239
1.81196
0.0544299
-1.81196
0.0623153
-3.90938
-0.0921071
-3.90938
5.17855
-0.0659354
5.17855
-3.17208
-0.102457
3.17208
-0.0597235
-0.0332595
11.1473
-5.14013
0.0341316
5.14013
-11.2076
11.2417
-3.20939
0.699755
3.20939
0.979676
5.29819
0.273936
-5.29819
0.282309
5.22827
0.0393779
-5.22827
0.052774
-2.63485
-0.448004
-2.63485
-4.45315
-0.333975
4.45315
-0.445263
-11.4763
-0.202316
11.6787
-11.4164
6.02155
0.136443
-6.02155
11.3782
-0.672588
-0.0429815
0.672588
0.286144
1.51741
-0.445018
1.51741
3.80863
-0.166234
-3.80863
-0.100757
-5.19542
-0.0205884
5.19542
-0.0168698
-2.00296
-0.631892
2.00296
-0.485551
-4.26795
4.30476
1.91093
-3.37382
-3.39865
-7.66033
1.85253
1.90163
4.294
-7.05427
-4.38924
-6.95605
7.27893
-6.99662
-9.32336
9.23349
7.43916
-7.53306
-5.77309
5.82695
6.4365
-6.38556
1.88059
1.873
9.61898
-9.67665
-11.4293
11.2369
10.1428
-10.2021
10.897
-10.9346
-12.4848
12.5241
-5.74659
5.77477
-6.60543
6.57172
-6.78536
6.72564
-3.30168
-3.38498
9.11248
-9.01753
11.7598
-11.7819
-7.98668
7.87222
3.38696
0.917805
3.43095
-1.88257
3.76316
-1.86977
3.7807
3.38143
-6.68311
3.35238
-6.75103
6.0679
5.69188
-6.0391
-1.62124
-5.86598
5.84842
-5.85889
5.86157
8.79558
-8.81445
-1.88461
3.75761
-1.86907
3.7707
-3.41823
-2.35486
3.36935
0.924647
5.58643
3.52605
-5.68382
-1.27224
-7.62953
7.4633
-7.90093
7.72825
-0.463533
5.82704
-5.36351
4.38386
-1.54767
7.37472
5.73126
5.93852
5.86988
-5.59595
1.12674
-6.49025
-6.39088
-2.70938
2.83652
2.64972
-2.47422
5.87176
1.5674
5.7302
-5.42296
-2.1101
-5.51506
3.80803
2.01892
3.86653
4.01506
2.42144
4.05276
3.03597
-3.03547
-0.000506706
-3.06263
6.0986
0.722144
-5.41749
-4.49285
6.53825
3.08073
6.50321
-6.0237
-3.65294
-6.14188
-6.93102
-4.49825
-7.26499
7.14026
4.09661
7.00717
-8.20114
8.18427
6.77373
3.36911
6.69738
-6.69889
-3.50324
-6.72254
10.5742
-2.65145
-7.92276
-7.01707
-5.4677
7.03103
3.86594
7.58562
4.93853
7.63839
3.59152
6.98269
-7.45746
1.98976
-3.83845
-1.90814
-3.81476
3.73571
2.03906
3.77733
-4.13213
-2.4733
-4.16088
-4.20017
-2.58518
4.24991
2.32181
-4.32266
-3.57827
4.42512
2.30052
3.0531
-7.44233
3.62291
-7.00788
-6.34996
-2.66758
-6.2728
4.12152
2.61479
-6.73631
-2.5616
10.9339
-5.24199
9.31263
-7.31281
-4.4691
-7.35424
-5.90858
-2.07809
-5.78484
-7.68868
7.24068
-7.0097
6.55285
14.3055
-5.3408
-8.9647
-3.96552
-2.42004
3.90661
-0.475663
-3.71552
3.71502
0.0476371
3.82833
4.74614
4.27048
-3.87248
-1.98641
-3.8337
3.86673
1.99484
3.86487
6.42996
2.36562
6.48018
-6.38912
-2.42533
-6.45905
8.94246
-8.52988
2.92433
-2.93668
5.15007
2.57818
-4.95489
-2.67464
5.99574
-3.03482
-2.96092
-12.2269
10.6339
1.593
-4.8522
-0.468343
0.0647716
-5.52782
-3.79554
5.41199
0.526531
11.1604
7.36491
-5.51413
5.76123
6.16453
6.2256
-0.165279
5.81481
-5.11505
5.1235
-2.24698
-2.87652
5.24662
-5.40182
-1.21243
-5.30799
4.09556
0.328379
1.89921
-1.58858
-2.13694
-0.57244
-2.07463
1.59403
1.05569
1.82541
1.01278
1.82374
-2.90623
0.517959
2.38827
-1.89345
-1.95626
-3.60131
-0.892262
4.49357
5.4395
2.0238
-5.33874
-0.176321
2.7888
-2.74445
-0.879498
-2.72181
1.92087
-2.80037
-3.39931
-1.8224
5.22171
-3.36741
-0.466291
3.30132
0.565206
-3.74096
-2.12502
3.73212
0.320646
-3.11031
6.20916
-3.09885
-5.09672
2.52933
3.56927
4.54825
-4.83237
2.45935
2.37302
-1.2631
5.74778
0.755429
5.71031
-8.26672
4.61377
6.05781
1.81441
-5.85678
-0.285102
-8.55182
10.501
-8.12662
-2.37435
6.20862
4.29235
6.08847
8.21702
-5.82094
11.9094
0.839419
-8.96604
7.7124
-5.89799
3.73686
-9.63485
-11.9539
2.98785
-7.50795
8.74753
-1.23958
-2.36219
-5.83895
9.87014
-1.10229
-8.76785
5.90488
-5.4411
-5.34044
10.7815
-8.09255
8.84368
-2.74165
-6.10203
-6.87209
-4.06256
6.89268
1.29159
-9.97748
11.9672
-2.99479
5.91179
0.785588
5.8361
4.06384
-6.01003
1.9462
4.02872
-6.77036
2.96391
-8.97394
-4.91018
9.58161
-4.67143
-7.57775
-6.78279
-0.794958
2.02951
9.93773
-6.96804
5.3547
1.61334
3.33732
0.527557
-3.34699
-0.467771
0.347043
4.43959
-4.78663
4.12437
4.21317
3.35536
1.08423
3.82144
2.02698
-3.79764
-0.363241
-4.01907
1.43389
-1.69727
-3.51677
4.95066
-3.94127
0.424496
-2.63645
-3.47449
6.11094
-4.54459
3.07739
3.13177
5.07223
-4.83471
1.36022
-2.39771
-2.437
2.58105
-4.27832
1.86867
3.08199
4.16919
0.590921
4.87567
4.70594
-7.49046
0.482577
8.23199
-6.95976
1.70808
5.93032
-7.06278
0.279983
-5.99281
1.1008
-6.34279
-5.63551
3.59891
-5.67701
-6.03594
5.60615
0.874031
-5.70851
-0.0763362
-5.32024
-2.36844
-5.95213
-2.15066
-4.85904
-7.9716
-1.91344
-6.05816
5.32724
-4.87989
-2.3851
5.32515
1.2277
-7.48188
7.43889
-7.60763
7.16262
0.0764838
3.63853
4.34696
1.92692
-2.37543
4.30235
-4.74622
7.11185
-8.76604
4.01982
4.12819
-6.55352
-4.63785
4.91668
4.02578
5.22117
9.47963
-10.2945
0.814864
-11.0172
13.031
-2.0138
-17.0667
6.04951
-7.58704
2.64271
0.281616
2.68782
0.665137
2.33695
-3.00209
-2.27154
-2.31476
-2.24165
-3.25159
5.49324
1.1789
-3.2575
2.0786
-3.42231
4.60121
-0.0307198
-3.22678
5.10029
-2.76334
5.3819
-3.45303
1.92888
3.2324
5.46843
-2.23603
4.16514
-1.58696
1.76109
-3.99712
-1.4905
-2.95899
4.99805
-3.15195
3.57644
-0.211415
3.78786
-3.99498
0.960159
-0.639615
3.57356
3.71914
4.11932
-3.03509
2.83872
-4.42568
-1.1584
-3.83476
-0.752767
-0.712553
-3.72222
4.43478
5.89432
-6.60687
-5.34631
9.50279
-4.15649
7.66075
-5.46201
-2.19874
-4.22648
-4.3034
3.82585
1.98896
9.6497
0.157546
-5.61955
-4.9575
-3.97783
3.13001
1.9935
-2.09454
3.68754
2.02977
-0.13056
0.640614
1.1848
1.8955
-1.25488
0.16442
1.73108
-1.42416
2.06305
0.725752
-2.11748
0.0428517
-1.40357
3.32444
0.984705
-2.04039
0.785511
1.07754
-3.32452
4.66972
-2.29394
-2.37578
5.74726
1.2095
-3.50344
4.0985
-3.77012
2.30876
-3.20102
-1.19469
-4.9648
-3.3974
-2.45376
4.53235
-3.03948
5.06328
1.13304
-4.88696
6.02
-3.4337
1.6113
-3.07497
3.80073
-1.16752
-1.90746
2.60785
2.61386
-2.79647
0.0746572
-0.188615
2.17926
-2.36787
-0.621113
-2.51456
-4.56549
4.88613
-2.15831
4.61765
2.14404
-1.92347
6.54113
1.84297
-3.76645
-3.25374
-3.72003
-1.39342
3.15483
-1.0001
-5.72245
-7.10213
5.73513
-0.0248178
-8.51187
10.178
-1.6661
-5.43114
0.817369
5.39125
-7.66096
0.890601
-4.69705
5.48092
6.23635
6.21153
-9.08863
0.320773
-4.99202
1.87525
-6.86726
6.1676
-4.55937
7.54721
-8.57775
6.19265
-7.35005
5.17286
-1.6944
5.61596
-3.66977
2.30679
-6.36935
-5.07776
7.00149
-3.63238
7.78708
-4.15437
11.9415
-7.14916
6.9882
4.95325
-1.43651
-5.91772
-6.84598
5.40947
0.142222
5.97832
4.90833
-2.88135
4.54508
2.20653
-4.60424
-2.07178
-6.45381
1.84957
-3.32205
-1.87289
3.72246
3.19934
3.7269
1.28546
-3.25913
6.71191
-7.50687
-2.04048
-3.59503
6.75508
-1.34561
4.0568
-7.65183
-2.28598
7.35647
-1.88854
-5.46793
-2.01568
-4.02026
1.52429
-5.54455
4.15272
-4.22906
2.22908
-9.81612
-5.25279
-4.96665
-2.40993
-5.1977
-7.93388
5.52395
-1.88437
5.55453
-9.14606
7.25752
-3.8849
9.40885
-5.19826
-0.753875
5.68381
1.47881
10.8877
0.01297
-4.65082
-1.76849
3.83831
-2.06982
1.36152
-3.70925
0.129056
2.40254
3.34472
-6.4981
-0.0554231
-4.70624
-3.82632
7.8521
5.67648
11.5708
1.2763
9.05948
-1.20738
10.3358
4.01379
4.23318
-3.89232
4.70719
0.542452
4.56227
-0.838499
2.76738
1.84933
1.88454
0.859917
2.26612
1.45302
3.22628
0.224195
-2.09056
4.7011
-8.67893
-0.918454
-8.08533
1.14815
5.80552
-4.65736
3.03112
-1.03762
0.961296
0.195247
-1.82246
1.62722
-2.68127
-1.95302
-0.221946
-1.48256
2.26807
1.84188
-2.04613
-0.635146
0.273947
-3.67135
2.92707
-2.85241
-0.238553
5.78145
-2.62077
0.252896
-1.00947
-2.26166
-2.8341
2.79125
6.22875
0.312374
3.1299
5.1985
3.07349
0.192142
5.03545
-6.27503
-3.9385
-5.95425
0.213345
5.6046
2.09129
7.84644
7.04453
5.69892
-1.95291
-9.45978
8.45603
-3.74885
6.44223
-0.974304
-4.57024
4.12126
2.99058
-4.99529
0.766239
-3.804
-7.55285
-1.16348
8.421
-9.72417
8.9703
6.60186
-0.543702
-4.29231
-0.674336
4.0785
0.15468
10.4905
-1.1871
-6.98468
8.17179
-4.61841
3.69996
0.818729
2.86881
2.44594
1.40832
-5.57636
-10.2337
-1.76744
-1.55709
-4.14321
0.350354
-2.19223
6.25104
-2.55108
4.0523
5.6207
6.582
-2.36359
-4.24328
6.52008
-2.46777
4.11423
)
;

boundaryField
{
    wall-4
    {
        type            calculated;
        value           uniform 0;
    }
    velocity-inlet-5
    {
        type            calculated;
        value           uniform -3.75095;
    }
    velocity-inlet-6
    {
        type            calculated;
        value           uniform -5.62643;
    }
    pressure-outlet-7
    {
        type            calculated;
        value           nonuniform List<scalar> 8(6.22655 6.10239 6.61628 6.75244 6.66572 6.77444 6.6966 6.67892);
    }
    wall-8
    {
        type            calculated;
        value           uniform 0;
    }
    frontAndBackPlanes
    {
        type            empty;
        value           nonuniform List<scalar> 0();
    }
}


// ************************************************************************* //
