/*--------------------------------*- C++ -*----------------------------------*\
  =========                 |
  \\      /  F ield         | OpenFOAM: The Open Source CFD Toolbox
   \\    /   O peration     | Website:  https://openfoam.org
    \\  /    A nd           | Version:  9
     \\/     M anipulation  |
\*---------------------------------------------------------------------------*/
FoamFile
{
    format      ascii;
    class       volVectorField;
    location    "12";
    object      U;
}
// * * * * * * * * * * * * * * * * * * * * * * * * * * * * * * * * * * * * * //

dimensions      [0 1 -1 0 0 0 0];

internalField   nonuniform List<vector> 
918
(
(0.985253 -0.000477663 0)
(0.00500434 2.96626 0)
(-0.00124114 1.65948 0)
(0.979752 0.00211336 0)
(0.000684602 1.62681 -8.43455e-22)
(-0.00703352 2.94878 -1.91959e-18)
(0.835561 1.18739 7.37514e-19)
(0.508246 0.245816 -9.16756e-21)
(0.999951 -0.000441211 0)
(0.0346292 1.37915 0)
(-0.00949481 1.42337 0)
(0.842353 -0.00443821 0)
(0.0111092 2.93035 0)
(0.00106227 2.79441 0)
(-0.0205132 3.17578 1.07872e-18)
(-0.0028892 1.53959 -1.79562e-20)
(0.605965 0.11006 5.67181e-19)
(0.208957 1.3647 5.31455e-19)
(0.966422 0.00623503 0)
(0.00246635 1.52545 0)
(0.177268 0.282298 -4.99052e-19)
(1.00133 -0.00517947 0)
(0.999985 -0.0101874 0)
(0.975373 -0.00666736 0)
(0.758886 -0.0257452 0)
(0.0189387 2.62728 0)
(-0.0153952 2.91023 6.67767e-19)
(-0.00872201 1.67993 0)
(-0.00852384 1.76418 0)
(-0.00715635 1.67712 0)
(0.00418613 1.80012 0)
(0.00214026 1.63861 6.67802e-22)
(-0.00121552 1.55272 0)
(-0.0206081 2.98759 -6.73382e-23)
(-0.0167043 3.0053 1.49208e-18)
(0.00210236 3.0002 0)
(0.882733 -0.003671 0)
(0.377476 0.898337 -9.87985e-21)
(0.83867 1.19388 -1.04007e-18)
(0.984725 1.04737 9.73693e-19)
(0.71765 1.27003 -1.75395e-19)
(0.681685 1.26811 9.90447e-19)
(0.544137 0.312224 8.94454e-21)
(0.53647 0.216312 0)
(1.19578 0.571648 0)
(0.4997 0.330136 4.1435e-20)
(0.465461 0.241284 -4.29935e-20)
(0.916023 -0.00752735 0)
(1.00032 6.35075e-05 0)
(0.99995 0.000300517 0)
(1.00458 -0.00797229 0)
(1.00045 -0.00050955 0)
(1.00014 0.000149896 0)
(0.0371864 1.58266 -5.83467e-19)
(0.00800851 1.496 0)
(0.0439462 1.36284 0)
(0.00418101 1.53004 0)
(0.0260915 1.37549 0)
(0.00324773 1.58867 0)
(-0.0152014 1.55406 0)
(-0.00419751 1.40951 0)
(-0.0159758 1.58268 0)
(-0.0116442 1.45032 0)
(0.914024 0.000510171 0)
(0.911605 0.00529511 0)
(0.853494 0.000175394 0)
(0.905983 0.00869617 0)
(0.830049 -0.00310928 0)
(0.0146976 3.0004 7.03597e-19)
(0.0115202 3.00793 0)
(0.00612754 3.00283 0)
(0.0135569 2.99735 7.85806e-24)
(0.00797903 2.95846 -1.04572e-18)
(0.0145394 2.98206 0)
(0.0107876 2.90356 0)
(0.0252005 2.93023 1.42872e-24)
(0.00416472 2.82507 0)
(0.0319285 2.91503 0)
(-0.00679839 2.74282 0)
(0.30798 3.57142 0)
(-0.132726 3.65415 0)
(0.137962 3.26573 -1.00393e-18)
(-0.00900041 2.99827 0)
(0.0033075 1.77707 0)
(-0.00341127 1.65158 1.77142e-20)
(-0.00221952 1.55136 -2.73776e-20)
(0.666328 0.163529 -1.94618e-19)
(0.625481 0.0711169 -1.88472e-19)
(0.634681 0.197954 -5.8471e-19)
(0.590581 0.133671 -3.91197e-19)
(0.270664 1.14534 0)
(0.179965 1.37757 -5.85295e-19)
(0.381704 1.3104 9.87169e-19)
(0.988511 0.0102007 0)
(0.943554 0.00944938 0)
(1.00034 0.000661243 0)
(1.00263 0.00953216 0)
(1.00227 0.0086074 -1.07278e-18)
(0.991837 0.0095181 8.18783e-19)
(-0.00388036 1.62942 0)
(-0.00160585 1.52544 0)
(-0.0113185 1.68926 0)
(-0.00725463 1.64747 0)
(0.00123574 1.53673 0)
(0.263618 0.292109 1.53066e-19)
(0.305448 0.270412 0)
(0.99285 -0.00851151 0)
(0.954737 -0.00570216 0)
(0.881174 0.0226912 0)
(0.845274 0.0295192 0)
(0.803027 -0.00293882 0)
(1.03027 -0.00208697 0)
(0.79751 0.0319599 0)
(0.685549 -0.0176087 7.65616e-19)
(-0.0347708 2.86672 3.51983e-19)
(0.0441521 2.90684 0)
(0.0582161 2.88207 0)
(-0.00602002 2.6947 0)
(-0.0127741 2.98534 6.15173e-19)
(-0.0184246 2.89593 0)
(-0.015346 2.98812 -1.9432e-18)
(-0.0134892 2.92519 6.70731e-19)
(-0.00480249 1.81102 0)
(-0.00239122 1.80608 0)
(-0.00126224 1.6535 -3.776e-22)
(0.00112657 1.63846 0)
(-0.00216392 1.53816 0)
(0.941404 0.00126573 0)
(0.884463 0.00222555 0)
(0.862959 -6.2734e-06 0)
(0.941431 -0.00298034 0)
(0.883611 -0.00265145 0)
(0.489882 1.08871 1.84338e-21)
(0.537354 1.14743 0)
(0.343545 0.837907 7.87654e-21)
(0.277437 0.711397 0)
(0.954612 1.08097 -2.82201e-19)
(1.07707 0.897089 5.81796e-19)
(0.383048 1.3499 0)
(0.55553 1.33444 0)
(0.515044 1.30509 0)
(0.0850704 0.00326141 -9.19977e-20)
(0.575783 0.288558 0)
(0.567098 0.198413 1.13245e-19)
(1.04577 0.943834 0)
(1.1156 0.789211 0)
(1.14183 0.737892 -5.04624e-19)
(1.17697 0.628821 0)
(1.23104 0.415987 6.18127e-20)
(0.948534 -0.00292266 0)
(0.955619 -0.00808656 0)
(0.897923 -0.00496131 0)
(0.985193 -0.00883911 0)
(0.974168 -0.00787848 0)
(0.939254 -0.00587935 0)
(1.00023 0.002322 0)
(1.00076 0.00138445 0)
(0.999937 0.000744833 0)
(0.021016 1.68521 3.16913e-19)
(0.0635481 1.55941 0)
(0.0100311 1.71259 5.12091e-19)
(0.0190441 1.59583 -4.35698e-19)
(0.0498079 1.40552 -4.38325e-19)
(-0.00999866 1.46186 0)
(0.0752581 1.36183 0)
(0.000322015 1.54457 0)
(0.0175966 1.38126 0)
(0.000963332 1.67621 -1.28683e-21)
(0.00375269 1.58668 0)
(-0.00105149 1.68792 -6.31914e-20)
(-0.00350591 1.59375 1.21019e-19)
(0.00154978 1.55284 0)
(-0.0065192 1.55006 0)
(0.0106635 1.39521 0)
(-0.0175885 1.60476 0)
(-0.0105306 1.47466 0)
(0.979467 0.0135008 0)
(0.931395 0.00450115 0)
(0.963426 0.00657173 0)
(0.905489 0.00177347 0)
(0.85989 -0.0053221 0)
(0.931353 0.00194025 0)
(0.924245 0.00819586 0)
(0.857284 0.00201243 0)
(0.00591083 3.06478 -6.22283e-21)
(0.0162537 3.05812 0)
(0.0147523 2.96912 0)
(0.00846487 2.87633 0)
(0.921393 3.98687 0)
(1.23449 3.30995 1.00736e-18)
(0.0721504 3.09061 0)
(-0.0244219 2.91481 0)
(-0.00549765 1.79656 0)
(-0.00437405 1.78159 0)
(-0.000934771 1.78528 0)
(0.00104028 1.78754 4.48752e-21)
(-0.00105505 1.77863 0)
(0.0046865 1.78065 0)
(-0.00305625 1.56163 4.19007e-21)
(-0.00326434 1.67203 3.65764e-20)
(-0.00350297 1.66353 2.79772e-20)
(-0.00206506 1.55427 0)
(0.692941 0.132383 2.8638e-19)
(0.660634 0.0507185 -2.77757e-19)
(0.237774 1.32173 0)
(0.301442 0.962407 -2.73423e-19)
(0.170258 1.43577 -7.92413e-19)
(0.204694 1.29935 7.91874e-19)
(0.896871 0.00977967 0)
(0.965655 0.0136931 0)
(0.975823 0.0136164 0)
(0.922234 0.011433 0)
(-0.0146653 1.61958 0)
(-0.00836152 1.62774 0)
(-0.00737775 1.50036 0)
(0.452565 0.347856 3.81279e-19)
(0.373549 0.326595 -4.67075e-19)
(0.388008 0.245692 0)
(1.14845 0.0844491 -3.26424e-21)
(1.13394 0.0387214 0)
(1.06344 0.0339422 0)
(0.979579 0.00193231 0)
(0.720475 0.0914996 0)
(0.744428 0.0527795 -1.2299e-18)
(0.677424 0.0155646 4.7088e-19)
(0.0101464 2.98284 4.40526e-19)
(-0.0319317 2.86883 4.89103e-20)
(0.00384709 3.05019 -1.34173e-20)
(0.0199662 3.04358 4.82625e-19)
(-0.0150336 2.99655 2.2271e-20)
(-0.0130071 2.94943 -9.01109e-23)
(-0.0172973 3.01199 -4.21307e-19)
(0.0147981 3.024 3.04416e-19)
(0.00727385 3.03674 -4.76536e-19)
(0.959343 0.00638865 0)
(0.952266 0.0055165 0)
(0.892379 0.00470596 0)
(0.952095 0.0125889 0)
(0.936895 0.00959241 0)
(0.873371 0.00821989 0)
(0.932813 -0.00261599 0)
(0.925986 -0.000119212 0)
(0.860548 -0.00738507 0)
(0.691772 1.38049 3.01167e-19)
(0.730887 1.49605 0)
(0.209532 0.378794 3.06455e-20)
(0.145414 0.54845 3.01504e-19)
(0.246878 0.666201 -1.51721e-19)
(0.213364 0.573343 2.96506e-19)
(0.35665 0.621868 6.07394e-19)
(0.113672 0.109709 2.57471e-19)
(0.619921 0.22589 4.24485e-19)
(0.599854 0.254367 1.03863e-19)
(0.57566 0.164138 2.17377e-19)
(1.2194 0.469142 2.93768e-19)
(1.23756 0.263408 3.08174e-19)
(-0.00154574 1.71611 2.02207e-19)
(0.00382547 1.59673 0)
(1.01877 0.0230106 0)
(0.993207 0.0129181 0)
(0.950713 -0.00295317 0)
(0.010774 3.07455 0)
(0.0201079 2.94403 8.32962e-19)
(0.0166339 2.95641 0)
(0.00608765 2.85081 -8.26183e-19)
(0.00595469 3.09132 1.97879e-19)
(0.00774169 3.08244 0)
(0.763655 1.80598 -2.28983e-19)
(1.23886 2.5023 6.2241e-19)
(0.747549 1.95211 -1.46236e-18)
(0.0217279 2.98609 -3.26157e-19)
(0.0387013 3.01187 0)
(-0.0311443 2.884 0)
(-0.00857482 1.67476 -8.14596e-21)
(-0.00533986 1.67658 -8.52058e-20)
(-0.00565805 1.57825 -5.654e-21)
(0.306268 1.22101 8.43835e-19)
(0.312074 0.777756 -5.61777e-19)
(0.0398916 1.63736 5.29116e-19)
(0.0882393 1.54491 -6.53242e-19)
(0.112747 1.45698 8.10876e-20)
(0.00246068 3.11864 -1.17513e-18)
(0.0178062 3.11767 1.25479e-18)
(-0.00842558 2.98141 5.35499e-19)
(-0.00241657 2.97831 -4.76351e-19)
(-0.021279 2.88301 -5.45385e-19)
(0.00909723 3.09924 -1.45302e-18)
(0.00267743 3.10624 1.4104e-18)
(0.226608 0.497406 0)
(0.0603688 0.494371 -3.58962e-19)
(0.122291 0.121243 1.51955e-19)
(0.389449 0.773686 7.3018e-19)
(0.222387 0.239075 -1.10634e-18)
(1.23079 0.171479 -5.48297e-20)
(1.23455 0.313849 0)
(1.2189 0.120587 1.2069e-19)
(-0.00611545 1.68828 -1.63519e-21)
(-0.00891697 1.6988 0)
(-0.000491696 1.586 0)
(0.335739 1.0648 -2.90611e-19)
(0.346756 0.960998 -5.80506e-19)
(0.243236 0.501759 1.0027e-18)
(1.00552 -0.0098892 0)
(1.00742 -0.00799872 1.96431e-19)
(-0.00368537 1.80291 0)
(-0.00917609 1.80891 0)
(1.00263 0.00368389 1.87181e-21)
(1.00218 0.00847653 4.02063e-19)
(0.00202127 1.78994 -5.78289e-21)
(0.00167265 1.79048 0)
(0.0437109 3.18985 1.27603e-19)
(0.399736 3.50959 0)
(1.10141 0.640165 6.34408e-20)
(1.01332 0.0132925 -2.68497e-21)
(1.01375 -0.0217326 0)
(1.0015 0.000439062 2.16011e-22)
(-0.0582786 1.6752 0)
(0.0226596 1.90165 0)
(-0.0185555 1.78521 0)
(0.00347613 1.81948 9.19717e-20)
(-0.00740902 1.80919 4.33648e-20)
(1.00347 0.0116274 2.27016e-21)
(1.04489 0.0150715 0)
(1.07435 0.0234307 0)
(-0.00779065 1.78379 0)
(-0.00748896 1.80051 0)
(-0.0107679 1.7962 0)
(0.0629349 1.36063 -4.33741e-19)
(1.01149 -0.00880052 0)
(1.01032 -0.0137397 0)
(1.003 0.000636782 2.50736e-19)
(1.0061 -0.00542909 -2.99207e-19)
(1.00108 -0.001324 0)
(-0.0103048 1.78656 0)
(-0.00496121 1.79749 0)
(-0.00501091 1.79271 0)
(-0.00783944 1.79822 0)
(-0.00603455 1.79522 0)
(-0.00768444 1.79794 0)
(1.0232 0.0114436 0)
(1.02319 0.00177845 -9.65866e-22)
(0.76975 1.23668 5.29082e-19)
(1.00202 0.000655787 -2.49316e-19)
(1.00378 0.00529838 3.01682e-19)
(1.00126 0.00196232 0)
(1.01046 0.0103992 2.44856e-19)
(1.00793 0.00978678 -3.01741e-19)
(1.00514 0.0149705 0)
(-0.0067497 1.80075 0)
(-0.00127373 1.79492 1.5676e-20)
(-0.00283835 1.79508 -1.0788e-20)
(1.1781 0.260678 -5.89935e-20)
(1.11375 0.0791216 0)
(0.0599437 3.07855 -5.51126e-19)
(0.071063 2.84934 -4.41267e-20)
(0.152812 3.19912 8.39134e-19)
(0.144543 3.22758 -1.14409e-20)
(0.145086 3.25234 0)
(0.0231056 3.13966 1.20181e-19)
(0.0847338 3.16349 5.38115e-19)
(0.0767851 3.19202 -2.32202e-19)
(0.027264 3.12848 0)
(0.708565 0.342862 0)
(0.612084 0.395077 0)
(1.08126 0.670071 -2.4622e-19)
(1.07076 0.811626 3.84437e-19)
(1.12846 0.557039 0)
(1.1626 0.50725 0)
(1.01547 0.0125246 -4.58499e-19)
(1.01231 0.0163216 5.69466e-19)
(1.01215 -0.0207948 0)
(1.0104 -0.0175011 0)
(1.00711 0.00117262 0)
(1.01147 0.00258662 0)
(1.00452 0.00317938 0)
(1.01161 0.00710423 0)
(1.00627 0.00561494 0)
(1.00547 0.00441188 0)
(-0.0441556 1.68531 0)
(-0.0276736 1.71638 0)
(-0.0838476 1.65372 0)
(-0.0645441 1.61039 0)
(0.0317247 1.90792 0)
(0.0918366 1.89238 -3.40238e-19)
(0.012403 1.899 0)
(0.00432142 1.8803 1.57653e-19)
(-0.0191536 1.84241 -1.59495e-19)
(-0.0212117 1.78408 0)
(-0.0236845 1.78355 0)
(-0.013839 1.7854 0)
(-0.00696669 1.77549 0)
(-0.0152521 1.8118 -4.6648e-20)
(-0.0059078 1.81118 5.84781e-20)
(0.00326817 1.82047 7.76023e-20)
(0.00201229 1.81633 0)
(-0.00997195 1.81147 -9.83162e-20)
(-0.00915189 1.80859 -5.63526e-20)
(-0.0101269 1.81041 3.72954e-20)
(-0.0122598 1.80683 -7.99912e-20)
(-0.00610891 1.81648 -9.79355e-20)
(1.01017 0.0164454 4.42944e-19)
(1.00889 0.00433335 -5.55882e-19)
(1.00444 0.0199554 -4.62266e-19)
(0.989848 0.015204 5.84831e-19)
(1.0383 0.0162511 0)
(1.04018 0.00977024 0)
(1.06019 0.0349099 0)
(1.0453 0.019201 0)
(1.05961 0.0124949 0)
(1.10118 0.06505 0)
(1.07753 0.0474042 0)
(1.09472 0.034076 0)
(-0.0028378 1.78738 -1.71736e-21)
(-0.0077089 1.77992 0)
(-0.00552137 1.78116 0)
(-0.00656395 1.80257 1.61648e-20)
(-0.00526595 1.80255 -7.84284e-22)
(-0.012926 1.78133 1.747e-20)
(-0.0107491 1.786 -1.74591e-20)
(-0.0105159 1.79386 0)
(-0.00841897 1.79482 0)
(-0.00968642 1.79624 0)
(-0.0124147 1.79491 0)
(-0.0129435 1.79709 0)
(0.21531 1.30062 9.07753e-19)
(0.343382 1.32045 3.37131e-19)
(0.43248 2.0991 -2.04911e-19)
(0.235931 1.93437 4.89835e-19)
(-0.0809889 2.3835 2.00771e-20)
(1.01524 -0.0203099 0)
(1.01584 -0.0136157 0)
(1.01267 -0.0234398 0)
(1.00901 -0.00152646 0)
(1.00546 -0.00239391 0)
(1.00648 -0.00436872 0)
(1.00974 -0.00427975 0)
(1.01136 -0.00924903 0)
(1.02439 0.00376601 4.37818e-19)
(1.01765 0.0100289 -5.52165e-19)
(1.02368 0.00119378 -4.2799e-19)
(1.02063 0.00208267 5.26989e-19)
(0.75618 1.24731 0)
(0.639963 1.32253 6.41964e-19)
(0.866068 1.16984 3.69823e-19)
(0.905069 1.12916 -4.93917e-19)
(1.11861 2.57791 -4.39972e-19)
(0.821448 0.109088 2.9291e-19)
(1.11505 0.090345 0)
(1.15753 0.173395 5.44157e-20)
(1.14733 0.150415 2.40237e-21)
(0.96421 0.134499 0)
(0.164646 2.97042 1.20453e-19)
(0.133407 2.87653 -6.95791e-19)
(0.0443233 2.34178 5.10059e-19)
(0.11943 0.150356 -2.09558e-19)
(0.342534 3.43996 -4.43426e-19)
(0.200677 3.33037 0)
(0.242402 3.37992 5.77485e-19)
(0.260526 3.049 -7.26205e-19)
(0.360694 3.21083 0)
(0.00700026 3.12069 2.79123e-20)
(0.0177825 3.12985 -3.56453e-19)
(0.015779 3.1256 5.24651e-19)
(0.0396971 3.14051 0)
(0.0384703 3.15259 0)
(1.17784 2.59915 0)
(0.509248 0.823043 -2.21109e-19)
(1.01075 0.982955 -2.05059e-19)
(0.964381 1.05612 0)
(0.824169 0.941121 5.9566e-20)
(1.03584 0.863684 3.30605e-20)
(0.407666 0.487969 -5.54043e-19)
(0.735504 0.334315 -2.39319e-20)
(0.737412 0.283432 2.24999e-19)
(0.609863 0.437714 1.79216e-20)
(0.55746 0.431026 -7.37918e-19)
(0.705616 0.370428 0)
(0.681429 0.433314 3.71817e-19)
(0.695255 0.433493 0)
(0.655385 0.411825 0)
(0.671242 0.359921 0)
(0.732787 0.604805 1.32344e-19)
(1.16386 0.267697 2.6151e-20)
(1.16327 0.398069 0)
(1.18615 0.368336 0)
(0.784455 0.21871 3.3355e-19)
(0.782593 0.535806 -1.85276e-19)
(0.686462 0.509271 3.02792e-19)
(0.87668 0.404221 -2.87576e-19)
(1.01768 0.0144488 2.97414e-19)
(1.0156 0.0173123 -3.09315e-19)
(1.01284 0.0214985 0)
(1.02014 0.0103946 0)
(1.0112 -0.00913082 -2.68559e-19)
(1.00847 -0.00124699 2.71987e-19)
(1.03063 0.00347748 0)
(1.02886 0.00166266 0)
(1.01322 0.00537048 0)
(1.01634 0.011808 0)
(1.02578 0.00200902 0)
(1.01946 0.00196413 0)
(-0.0243395 1.7349 0)
(-0.0213272 1.74109 0)
(-0.143341 1.67479 8.29279e-20)
(0.0105721 1.43795 1.83527e-19)
(-0.0736971 1.56255 3.63212e-19)
(-0.0256168 1.47433 -5.93434e-19)
(-0.181472 1.64733 0)
(-0.173805 1.90287 -5.54831e-20)
(-0.142047 1.89736 0)
(-0.118309 2.36995 -2.81585e-20)
(-0.0175682 2.28156 4.07297e-19)
(-0.220768 1.92448 5.00479e-20)
(-0.159067 1.51561 1.42439e-19)
(-0.199503 1.6197 -1.13595e-19)
(-0.209377 1.51406 3.98716e-19)
(-0.220053 2.01675 0)
(-0.212851 2.06011 -2.26622e-19)
(-0.0424131 1.82507 -4.38399e-20)
(-0.0201085 1.84993 0)
(-0.0323935 1.8349 1.79302e-19)
(-0.0409591 1.83073 0)
(-0.00580152 1.87331 -1.75566e-19)
(-0.00997531 1.86316 0)
(-0.0136195 1.79728 -3.53477e-20)
(-0.0121644 1.80219 0)
(-0.0180934 1.79274 0)
(-0.0165304 1.79551 4.16377e-20)
(-0.0113001 1.82535 -5.18336e-22)
(-0.0206044 1.83955 1.92872e-19)
(-0.00912114 1.83083 1.28668e-21)
(-0.0146911 1.79822 3.19943e-20)
(-0.0150682 1.79859 1.89982e-20)
(-0.0244454 1.78602 0)
(-0.0216894 1.78747 0)
(-0.0323447 1.80801 1.04268e-19)
(-0.0233124 1.79161 6.70611e-20)
(-0.022759 1.79845 -9.69296e-20)
(-0.0464911 1.81707 0)
(-0.0113505 1.79275 -5.69811e-20)
(-0.0100785 1.80226 2.71322e-20)
(-0.00967675 1.80175 -8.44818e-21)
(-0.0140244 1.7986 -3.96122e-20)
(-0.00917621 1.80562 -1.34612e-20)
(-0.0113549 1.80828 6.5106e-20)
(1.02006 0.00362976 -2.84376e-19)
(1.01393 0.0102185 2.89789e-19)
(1.01442 0.00350107 0)
(0.994838 0.0465316 4.12989e-19)
(0.988706 0.0324618 -4.92076e-19)
(0.962319 0.0278317 5.72128e-19)
(0.993177 0.0852644 -5.53815e-20)
(1.02578 0.0120032 0)
(1.03203 0.0102366 2.55006e-19)
(1.03165 0.00742169 -2.53767e-19)
(1.03271 0.0413869 -1.38052e-20)
(1.0306 0.026552 1.21348e-19)
(1.02066 0.0472201 0)
(1.01379 0.0419351 -4.53013e-20)
(1.01309 0.0228993 0)
(1.0163 0.0173282 0)
(1.02945 0.00620051 0)
(1.0239 0.00278596 0)
(1.01929 0.0228594 9.31889e-20)
(1.02374 0.0150066 -2.12426e-19)
(1.02059 0.032344 -9.57643e-20)
(1.01975 0.0329495 -1.10369e-19)
(1.01779 0.0457837 1.94124e-19)
(1.05384 0.044574 0)
(1.04226 0.0853087 0)
(-0.0121312 1.79247 -2.39858e-20)
(-0.0103469 1.7856 -1.99174e-21)
(-0.0112652 1.78552 0)
(-0.00817326 1.79597 2.53496e-20)
(-0.0062452 1.7927 3.5049e-21)
(-0.00531632 1.7946 -4.20846e-21)
(-0.00823633 1.80839 4.94299e-20)
(-0.00771772 1.80543 -2.98027e-21)
(-0.00826923 1.80459 1.42986e-20)
(-0.0056711 1.80595 -2.50703e-20)
(-0.0067566 1.80614 2.9412e-20)
(-0.013496 1.78375 6.09034e-22)
(-0.0142691 1.78235 2.44398e-20)
(0.123563 1.18581 -4.87886e-19)
(-0.0889294 1.57982 -6.79154e-19)
(0.634144 1.29818 -6.2599e-19)
(0.487782 1.26891 -3.18964e-19)
(0.514654 1.35458 0)
(0.484489 2.17207 1.90964e-19)
(0.680212 2.09043 2.87976e-19)
(0.258858 1.95187 1.06222e-19)
(0.200839 2.28085 -4.24302e-19)
(0.195122 2.34919 4.25709e-19)
(0.392378 2.07997 0)
(0.33643 1.95617 -4.77693e-19)
(0.0982152 1.91058 8.83902e-19)
(0.213008 1.92927 -7.05852e-20)
(0.174601 1.87023 -1.19045e-18)
(0.911063 2.43491 -2.18553e-20)
(0.834704 2.37784 0)
(1.00974 -0.0040181 9.93495e-21)
(1.01292 -0.0118876 -8.20956e-21)
(1.01402 -0.0135317 -1.44691e-19)
(1.02226 -0.0150566 1.47323e-19)
(1.02016 -0.00765853 0)
(0.700822 1.20269 0)
(0.70078 1.16601 0)
(0.765534 1.0596 0)
(0.674393 1.15883 0)
(1.14378 2.594 7.36913e-20)
(1.04216 2.31263 0)
(0.96048 2.15399 1.01733e-21)
(0.904769 2.58749 0)
(1.05629 2.607 8.21788e-20)
(1.07371 2.52321 -5.46527e-20)
(0.830745 0.154518 0)
(0.798908 0.167357 8.43425e-20)
(0.888156 0.122548 4.31888e-19)
(0.852767 0.104021 -1.72709e-19)
(0.856018 0.0652421 -5.18483e-19)
(1.01386 0.214019 -2.65796e-19)
(0.939802 0.249546 -1.69982e-20)
(0.901196 0.244599 3.80639e-19)
(0.963103 0.186751 2.92271e-19)
(0.914481 0.162511 -5.43222e-19)
(0.887905 0.168827 6.98037e-20)
(0.92506 0.219461 -1.36226e-19)
(0.89925 0.186634 0)
(0.969915 0.164962 2.61926e-19)
(0.999798 0.169833 0)
(0.993978 0.190249 0)
(1.04565 0.0967374 8.62915e-20)
(1.01537 0.15736 -1.20703e-20)
(1.00779 0.218221 -4.72979e-20)
(1.04665 0.191216 0)
(1.00798 0.0252308 2.21994e-19)
(1.00938 0.0406787 2.65495e-19)
(1.01185 0.0303108 -2.19733e-19)
(1.00674 0.0450459 -1.78343e-19)
(0.998006 0.0503211 -2.92621e-19)
(0.967079 0.133063 0)
(0.99082 0.0860862 0)
(0.964002 0.0450078 -2.06162e-19)
(0.924517 0.0531185 8.51832e-20)
(0.997544 0.0784925 2.53119e-19)
(1.00952 0.0942658 -2.62534e-19)
(1.0212 0.134895 2.39203e-19)
(1.00435 0.122157 0)
(1.02009 0.0798109 0)
(1.00978 0.066598 -1.08771e-19)
(1.00925 0.0697611 -2.0357e-19)
(0.552115 1.17886 -3.20641e-20)
(0.552307 1.53802 9.35379e-20)
(1.09337 2.7684 5.39666e-20)
(1.18741 3.10593 -6.92546e-20)
(1.21031 2.71074 4.82736e-19)
(1.24243 2.70306 -3.09111e-19)
(1.168 2.31418 -8.59496e-21)
(1.16954 2.99932 1.69607e-19)
(1.18973 2.95338 -1.6228e-19)
(1.18506 3.25905 -2.62909e-19)
(1.34916 2.97858 3.64446e-19)
(1.34475 2.8939 0)
(0.499558 0.831222 -1.30315e-20)
(0.176212 1.29552 3.68977e-19)
(0.512114 0.550959 3.6359e-19)
(0.343412 0.327605 4.05947e-19)
(0.557678 0.453892 4.1075e-19)
(0.540322 0.503651 -6.50376e-19)
(0.540169 0.52834 5.32456e-19)
(0.516549 0.474171 -2.1626e-19)
(0.489665 0.434122 4.96563e-19)
(0.783825 0.259528 -1.85315e-19)
(0.756133 0.288321 0)
(0.756523 0.255986 1.23002e-20)
(0.677205 0.514604 1.89891e-19)
(0.65679 0.483168 -7.03249e-19)
(0.598833 0.500108 2.06492e-20)
(0.619663 0.473352 0)
(0.620979 0.721631 1.47749e-19)
(0.774785 0.770939 5.94927e-20)
(0.709815 0.82475 -7.77167e-20)
(0.814527 0.803198 -1.91538e-20)
(0.875677 0.831198 1.45844e-20)
(0.882874 0.843913 -1.49167e-20)
(0.779904 0.622164 -2.26902e-19)
(0.857199 0.701484 1.78158e-20)
(0.928461 0.699614 0)
(0.915076 0.662944 -1.99879e-20)
(0.962328 0.287981 6.49776e-20)
(1.06559 0.264578 1.63418e-20)
(1.00126 0.242079 1.08601e-19)
(0.93594 0.326856 -1.46679e-19)
(0.980153 0.404545 0)
(1.04573 0.383723 0)
(0.862163 0.334717 5.13644e-21)
(0.848583 0.279291 0)
(0.847543 0.244631 2.02219e-19)
(0.885067 0.251855 -3.01485e-21)
(0.869007 0.408947 7.88448e-19)
(0.824621 0.472186 1.98974e-19)
(0.822828 0.436155 -2.51157e-19)
(0.760191 0.42964 2.6971e-19)
(0.747553 0.432255 1.83348e-19)
(0.734394 0.424761 -1.79617e-19)
(1.02419 0.00490824 2.38915e-19)
(1.03166 -0.00275035 0)
(1.03096 -0.00803189 1.58408e-19)
(1.02273 -0.00609959 -3.5483e-19)
(1.03621 0.00292208 1.68511e-19)
(1.03157 0.00661654 -3.65747e-19)
(1.0293 0.00555263 0)
(1.02331 0.00833187 -7.57827e-20)
(1.02826 0.00621541 1.90517e-19)
(1.02005 0.0126196 -9.58657e-20)
(1.02127 0.0131775 6.98785e-20)
(-0.0101883 1.77461 0)
(-0.0223945 1.78925 0)
(-0.017837 1.75646 0)
(-0.0086535 1.75979 0)
(-0.0789198 1.75409 -2.06869e-20)
(-0.0805524 1.71275 1.91749e-21)
(-0.126435 1.8655 -2.85273e-20)
(-0.158999 1.73965 -6.83252e-20)
(-0.0372597 1.79288 -5.08036e-20)
(-0.0491263 1.78918 3.62553e-20)
(-0.0595154 1.7587 -5.96774e-21)
(-0.0471874 1.77985 8.77882e-21)
(-0.0325845 1.78134 9.30913e-22)
(-0.0294024 1.78544 -4.79603e-21)
(-0.0337726 1.85127 -1.90555e-19)
(-0.0246527 1.88187 0)
(-0.0643033 1.87625 1.16368e-19)
(-0.0916484 1.86727 6.76505e-20)
(-0.105556 2.08297 -6.15986e-20)
(0.0414642 2.03704 0)
(0.0120242 2.08904 -4.42834e-19)
(0.0107996 2.20171 3.1101e-19)
(-0.0667195 1.99226 -2.15097e-19)
(-0.0648134 1.9348 1.12372e-19)
(-0.0166832 1.95445 0)
(-0.0285367 1.80869 -1.33382e-19)
(-0.0206649 1.81427 -1.79918e-19)
(-0.0206756 1.81323 0)
(-0.0265056 1.8239 -5.22739e-21)
(-0.0368523 1.82171 6.98431e-20)
(-0.0201181 1.79332 5.52418e-21)
(-0.0233551 1.7904 -9.04233e-20)
(-0.0247869 1.78969 2.09247e-20)
(-0.0204907 1.79175 3.74872e-20)
(-0.0141899 1.79852 0)
(-0.0238594 1.78747 0)
(-0.0167923 1.79381 2.94755e-20)
(-0.018261 1.78585 -9.36685e-21)
(-0.0238188 1.78685 0)
(-0.0220215 1.79014 2.34218e-20)
(-0.0169494 1.79413 -4.44869e-20)
(1.02471 0.0164943 0)
(1.02656 0.0149087 -2.26978e-20)
(1.02426 0.0148737 -1.7052e-19)
(1.02412 0.0180671 0)
(1.02443 0.0204102 0)
(1.02694 0.00875895 -4.56517e-21)
(1.02733 0.00930996 2.81013e-19)
(1.02379 0.00836391 3.43738e-19)
(1.02288 0.00579273 0)
(1.01911 0.00597335 0)
(1.02135 0.0140476 1.72501e-19)
(1.01862 0.0121936 0)
(1.01954 0.0112548 0)
(-0.0119211 1.79373 0)
(-0.014231 1.78188 2.01658e-21)
(-0.0146293 1.78548 1.36199e-20)
(-0.0162976 1.78666 0)
(-0.0147622 1.78334 1.8915e-20)
(-0.012814 1.78497 -8.38044e-21)
(-0.0131024 1.78441 0)
(0.448466 2.28752 0)
(-0.0813778 1.70834 1.26973e-18)
(0.0249655 2.23667 0)
(0.330382 1.15964 -1.57039e-18)
(0.433799 1.06853 0)
(0.340536 1.14224 6.76941e-19)
(1.08704 2.73239 1.1939e-22)
(0.938898 2.4644 2.76095e-20)
(0.801503 2.15789 3.15788e-19)
(0.885141 2.40334 1.24157e-19)
(0.966126 2.59901 0)
(0.99812 2.54543 0)
(0.877016 2.42631 0)
(0.91519 2.37143 -3.83721e-19)
(0.562995 2.68633 7.47277e-20)
(0.898348 2.63104 1.06156e-20)
(0.900516 2.59259 -8.70616e-21)
(0.593402 2.30718 0)
(0.768525 2.38838 0)
(0.751799 2.26391 -2.55187e-19)
(0.767819 2.65756 0)
(0.596211 1.11676 0)
(0.455082 0.904859 -1.69514e-20)
(0.518906 0.942044 -2.30443e-21)
(0.469034 1.0714 0)
(0.473863 1.028 2.60664e-20)
(0.742479 0.859218 1.36038e-20)
(0.784316 0.980434 0)
(0.755853 0.939238 -6.68829e-20)
(0.616961 1.02417 0)
(0.63196 0.923021 0)
(1.13404 2.73599 -2.82345e-21)
(1.09924 2.81723 3.21032e-20)
(0.902321 2.34501 -1.19801e-19)
(0.882834 2.31113 -2.86758e-21)
(1.10624 2.71208 0)
(1.08939 2.67009 2.00218e-21)
(1.05104 2.44591 -1.27731e-19)
(0.936057 2.1507 -3.11889e-20)
(0.741485 1.47071 0)
(0.667086 1.15904 2.83741e-20)
(0.681004 1.18596 0)
(0.840403 0.201903 0)
(0.811673 0.179546 0)
(0.776285 0.186889 0)
(0.841923 0.206309 -3.18325e-19)
(0.798341 0.212909 1.94348e-19)
(0.925289 0.0509154 -1.69111e-19)
(0.932689 0.0962887 0)
(0.907036 0.0985296 8.10379e-20)
(0.884072 0.0654862 3.30791e-19)
(0.886107 0.0586282 -2.03825e-19)
(1.14413 3.38464 -9.71964e-19)
(1.18614 3.30565 0)
(1.15152 3.40927 -1.91709e-18)
(0.644687 3.56922 1.64543e-18)
(0.871195 3.13621 4.19233e-19)
(0.493604 0.837708 1.89701e-19)
(0.396298 0.842111 0)
(0.35397 0.56127 -7.95138e-20)
(0.412507 0.674871 3.58056e-19)
(0.509407 0.544032 -1.12993e-19)
(0.495315 0.55974 1.24939e-19)
(0.607469 0.535724 2.67179e-19)
(0.625278 0.55132 0)
(0.587126 0.617175 0)
(0.543467 0.557782 0)
(0.915539 0.576731 -4.47747e-20)
(0.830809 0.516793 -1.92283e-19)
(0.864562 0.558274 9.35114e-20)
(0.892965 0.495045 -1.41356e-19)
(1.00828 0.466387 0)
(1.00499 0.546646 -8.72491e-21)
(0.797256 0.374602 -4.02712e-19)
(0.807371 0.355101 -4.70014e-19)
(0.783697 0.387057 3.14815e-19)
(0.791529 0.346104 -3.579e-19)
(0.836576 0.290156 -2.50938e-19)
(0.81458 0.29209 3.15732e-19)
(1.03563 0.00436452 -1.71304e-19)
(1.03534 0.00555946 3.55005e-19)
(1.02695 0.00941239 2.26313e-19)
(1.02923 0.0127789 -2.69132e-19)
(1.02468 0.0168479 0)
(1.02848 0.0118047 -4.42571e-19)
(-0.0453398 1.81781 2.74681e-20)
(-0.0543648 1.81974 0)
(-0.061384 1.82555 1.96242e-19)
(-0.0678056 1.85736 -1.741e-19)
(-0.106473 1.85097 5.10774e-20)
(-0.0865483 1.83851 0)
(-0.0153232 1.79495 0)
(-0.019462 1.78901 -1.0036e-20)
(-0.0178129 1.78475 8.93883e-21)
(-0.0160274 1.7841 2.2713e-21)
(-0.0137558 1.79214 -1.83548e-20)
(-0.0137557 1.79446 1.15503e-20)
(0.815435 1.47226 6.682e-19)
(0.778261 1.61125 -7.06856e-19)
(0.506625 1.24533 7.81971e-19)
(0.665902 1.60524 -5.41856e-20)
(0.729615 1.15653 0)
(0.584239 1.09056 6.10246e-19)
(0.605015 1.17234 -5.87597e-19)
(0.556184 1.01646 -7.66124e-19)
(0.770209 1.10928 0)
(0.741321 1.18473 0)
(0.43882 2.65003 -1.14933e-19)
(0.558986 2.56024 6.14189e-19)
(0.648955 2.60909 -4.14298e-19)
(0.44466 2.57488 -1.64543e-19)
(0.206173 2.65599 1.45541e-19)
(0.232293 2.53431 -4.56472e-19)
(0.939978 2.33204 -1.81572e-19)
(0.97615 2.33384 0)
(0.843984 2.07418 -3.56991e-19)
(1.07001 2.65939 0)
(1.05509 2.65355 0)
(0.619359 2.32887 2.71654e-19)
(1.01209 3.19127 4.7847e-19)
(0.885906 3.06147 -4.61287e-19)
(0.331035 0.971195 0)
(0.353184 0.834858 -1.31304e-19)
(0.473618 0.76357 -5.32481e-20)
(0.410693 2.10341 0)
(0.492306 2.81695 -2.91757e-19)
(0.437124 2.58325 0)
(0.643023 0.664048 -3.06295e-19)
(0.698059 0.680602 3.97803e-19)
(0.735821 0.626436 -3.89322e-19)
(0.604546 0.636527 -4.60923e-20)
(0.657235 0.593841 -1.90491e-19)
(0.963698 2.80173 -3.6347e-19)
(0.998176 2.87347 2.7097e-19)
(0.622958 2.22371 1.47899e-20)
(0.583399 1.78374 -4.89582e-20)
(0.656797 1.99348 8.80504e-20)
(0.954852 2.50158 -7.49458e-20)
(0.961712 2.5197 -1.15891e-19)
(0.661883 1.941 -4.04937e-21)
(0.400845 1.42411 -6.57626e-20)
)
;

boundaryField
{
    wall-4
    {
        type            noSlip;
    }
    velocity-inlet-5
    {
        type            fixedValue;
        value           uniform (1 0 0);
    }
    velocity-inlet-6
    {
        type            fixedValue;
        value           uniform (0 3 0);
    }
    pressure-outlet-7
    {
        type            zeroGradient;
    }
    wall-8
    {
        type            noSlip;
    }
    frontAndBackPlanes
    {
        type            empty;
    }
}


// ************************************************************************* //
