/*--------------------------------*- C++ -*----------------------------------*\
  =========                 |
  \\      /  F ield         | OpenFOAM: The Open Source CFD Toolbox
   \\    /   O peration     | Website:  https://openfoam.org
    \\  /    A nd           | Version:  9
     \\/     M anipulation  |
\*---------------------------------------------------------------------------*/
FoamFile
{
    format      ascii;
    class       volScalarField;
    location    "51";
    object      p;
}
// * * * * * * * * * * * * * * * * * * * * * * * * * * * * * * * * * * * * * //

dimensions      [0 2 -2 0 0 0 0];

internalField   nonuniform List<scalar> 
918
(
0.560337
1.19707
0.00166581
0.559732
-0.00770798
1.16411
-0.499821
0.69544
0.54051
-0.0979539
-0.0307751
0.53809
1.02462
0.79059
-1.12038
-0.00246188
0.65748
-0.378808
0.539582
-0.0431798
0.723649
0.547072
0.550101
0.540683
0.607315
0.767708
0.90551
0.0208417
0.00891863
0.00419487
-0.0124144
-0.0332821
-0.0286634
1.04776
1.09884
1.12153
0.508519
0.336977
-0.366511
-0.435769
-0.428623
-0.543626
0.690457
0.689116
-0.193887
0.6982
0.702523
0.527613
0.539877
0.540783
0.541832
0.5408
0.542189
0.412669
-0.101189
-0.133819
-0.0777409
-0.0691183
0.0661741
-0.0327625
-0.0351349
-0.028637
-0.028871
0.458276
0.533058
0.530079
0.543369
0.552815
1.13662
1.10854
1.13469
1.04832
1.06485
1.00261
0.975282
0.811298
0.833063
0.775901
0.764461
-1.55496
-2.51133
-0.527832
-0.275724
-0.0150779
0.00111871
0.00729188
0.652807
0.652987
0.658402
0.664042
1.08626
-0.377823
-0.475618
0.539718
0.538521
0.546872
0.547569
0.543586
0.542677
-0.0341297
-0.0313573
-0.0410902
-0.0413997
-0.0394406
0.712736
0.711635
0.541218
0.538229
0.559611
0.580681
0.572897
0.284536
0.611289
0.62521
0.596495
0.760666
0.753642
0.762854
0.878957
0.842643
0.942781
0.965869
0.0171671
-0.000235602
-0.00931024
-0.016861
-0.0137253
0.504393
0.49701
0.523899
0.511914
0.514392
0.252912
0.118467
0.42265
0.447952
-0.283302
-0.345675
-0.424727
-0.453371
-0.564918
0.61388
0.682361
0.679553
-0.207941
-0.134812
-0.265946
-0.0614123
-0.122739
0.51794
0.524905
0.519928
0.535416
0.529898
0.531854
0.544131
0.541208
0.542765
0.475111
0.598919
0.339094
0.30444
-0.239819
-0.151287
-0.240786
-0.0571135
-0.0527769
0.0799602
0.105253
0.0533131
0.041424
-0.0457016
-0.0384373
-0.0417739
-0.0275255
-0.0278446
0.451148
0.440119
0.470862
0.478334
0.522331
0.52362
0.527321
0.525606
0.926064
0.948308
0.955976
0.929847
-3.50622
-6.29799
0.0509894
0.188199
-0.00515735
-0.0100982
0.0046774
-0.00796699
-0.00203232
-0.00351472
0.00536544
0.00350634
0.00712001
0.00966977
0.645557
0.645925
1.00624
1.00986
0.984744
0.936516
0.527875
0.529965
0.535489
0.531359
-0.0268809
-0.0286861
-0.0264942
0.704504
0.709424
0.707811
0.246689
0.158278
0.334893
0.363545
0.638605
0.627525
0.637315
0.656337
0.693015
0.973268
0.991546
0.98976
0.99825
1.04234
1.05879
1.02408
0.484078
0.493932
0.488949
0.527055
0.524797
0.525717
0.521389
0.522783
0.520665
-0.0328286
-0.414753
0.497208
0.515312
0.497625
0.502276
0.693298
0.770601
0.665229
0.673649
0.671128
0.00687396
-0.0512
0.260497
0.227166
0.391454
0.427435
0.406619
0.897181
0.857793
0.907846
0.88108
0.842608
0.867934
-0.366422
-1.87239
-0.988085
0.539339
0.352733
0.440092
0.0234496
0.00630604
0.0114089
1.00326
1.07854
0.65477
0.826954
0.831648
0.731173
0.760914
0.815904
0.742526
0.776386
0.810629
0.791444
0.570708
0.510466
0.524275
0.839714
0.895513
0.129503
0.0702993
0.0261088
0.123823
0.180395
0.154893
1.03989
0.950228
1.0212
0.537983
0.538693
4.91846e-05
-0.0113549
0.542893
0.542942
-0.0121176
0.00119017
0.423658
-0.829023
0.11194
0.531434
0.521477
0.538525
-0.0814298
0.365343
-0.0330429
0.0613007
0.0061564
0.53542
0.469203
0.428903
0.00547474
-0.0113051
-0.0371937
-0.209888
0.535654
0.533961
0.537993
0.538952
0.539622
-0.0118835
-0.00765507
-0.00567894
-0.0353612
-0.0310274
-0.0414018
0.502709
0.521167
-0.163598
0.538132
0.540259
0.540081
0.53331
0.538953
0.537196
-0.00329614
-0.0112308
-0.0117942
0.228594
0.357124
0.665498
0.754281
0.636622
0.410904
0.174474
0.567284
0.63139
0.536195
0.690885
0.678655
0.693607
0.177207
0.0272852
0.186242
0.127818
0.529293
0.527983
0.519735
0.516746
0.533387
0.531492
0.536058
0.533057
0.536008
0.5374
-0.0392247
-0.0627649
-0.0767926
-0.143554
0.320332
0.582058
0.262361
0.292959
0.153451
-0.0260583
-0.0263573
-0.0319814
-0.0385902
0.0156708
-0.00874281
0.0565491
0.0572424
0.0300117
0.00307084
0.00770659
-0.0035019
-0.000160808
0.52848
0.526874
0.533286
0.542513
0.478732
0.482489
0.447812
0.468275
0.453687
0.39322
0.428179
0.403441
-0.00180469
0.00925522
-0.000135737
-0.00716894
-0.00259445
-0.0219281
-0.0198935
-0.015743
-0.0123356
-0.0193608
-0.0314379
-0.0293634
-0.168617
-0.284004
0.992665
0.919152
0.135447
0.524827
0.531262
0.528038
0.532906
0.536032
0.536853
0.534579
0.531135
0.521572
0.523163
0.519889
0.520663
-0.0956274
-0.236068
-0.0647843
-0.136703
0.147489
0.629969
0.36904
0.305992
0.300901
0.527828
0.930321
0.717492
0.694061
0.708458
-0.337167
0.0556308
-0.271982
0.346299
0.170309
0.663432
0.713238
0.735567
0.682981
0.635656
-0.10165
0.559594
-0.0613721
-0.0114868
0.188327
0.0688884
0.691898
0.663084
0.666485
0.68348
0.700442
0.669166
0.652744
0.647371
0.679797
0.683296
0.497259
0.259858
0.212011
0.173294
0.648011
0.533467
0.587359
0.502873
0.524409
0.527069
0.525687
0.507496
0.515016
0.510592
0.516928
0.520338
0.529101
0.52953
0.524857
0.527007
-0.0435635
-0.0467651
-0.0211884
-0.130937
-0.121848
-0.183435
-0.0568977
0.0811398
0.04311
0.240495
0.346206
0.0579177
-0.0538212
-0.026107
0.0130259
0.184487
0.21042
0.0845345
0.173167
0.161481
0.144911
0.246504
0.251247
-0.0126647
-0.0169201
-0.0200786
-0.0218388
0.0324177
0.102184
0.112037
0.0104243
0.00464523
-0.025098
-0.0245661
-0.0106241
-0.014832
-0.0111727
0.0229394
-0.0404147
-0.00826619
0.0072776
0.0131073
0.00987504
0.004935
0.520796
0.523103
0.522733
0.530039
0.548444
0.564581
0.520963
0.500716
0.491601
0.494592
0.467812
0.478018
0.473695
0.487348
0.508399
0.517708
0.51508
0.517832
0.500544
0.502213
0.488772
0.492469
0.467601
0.448806
0.43701
-0.0315178
0.00561761
-0.000775145
-0.0296258
-0.00122818
-0.0134882
0.00324926
0.021961
0.00599158
0.00317435
-0.00666726
-0.0141268
-0.0132723
-0.0702084
0.0149357
-0.178409
-0.216195
-0.285997
0.894245
1.01794
0.816268
0.589633
0.607177
0.850028
0.935532
0.551877
0.741416
0.765461
0.588943
0.854422
0.529645
0.529253
0.526856
0.526332
0.527552
-0.0030587
0.100601
0.102187
0.162844
0.279466
0.392212
0.319173
0.193936
0.325156
0.328323
0.622366
0.635069
0.59062
0.614485
0.614927
0.431774
0.507592
0.559941
0.516989
0.568839
0.589719
0.545617
0.577833
0.52808
0.48269
0.478851
0.429413
0.449181
0.425828
0.40847
0.519725
0.496986
0.507547
0.497839
0.517326
0.541664
0.538281
0.570471
0.581441
0.501371
0.457595
0.466862
0.497256
0.458043
0.47299
0.48917
0.234032
0.1351
0.217897
-0.0704913
0.00465178
-0.00942241
-0.0571887
-0.00817877
0.276974
-0.417199
-0.392925
-1.02277
0.503661
0.96217
0.639991
0.613124
0.697326
0.679242
0.684191
0.701258
0.70544
0.638261
0.654384
0.656454
0.619232
0.642605
0.662635
0.659793
0.529528
0.393969
0.390373
0.341512
0.211807
0.249975
0.450162
0.372606
0.297485
0.298569
0.465206
0.35248
0.42148
0.457386
0.388519
0.342395
0.546196
0.611332
0.603165
0.577392
0.493532
0.507179
0.531274
0.566451
0.59238
0.623547
0.516472
0.522336
0.52358
0.521073
0.518329
0.521332
0.521529
0.524064
0.524773
0.52774
0.526767
-0.0335891
-0.0214729
-0.0345233
-0.0426174
-0.0109614
-0.0148359
0.0286819
0.0150886
-0.000444695
0.00562928
-0.0206968
-0.0249735
-0.0200559
-0.0108819
0.106974
0.119598
0.103293
0.0637784
0.253858
0.384403
0.457489
0.333506
0.226349
0.249956
0.271009
-0.00120346
0.0266508
0.0137558
0.0521761
0.0433789
-0.0187218
-0.0232526
-0.0208403
-0.0137937
-0.00472285
-0.0212989
-0.0234847
-0.015444
-0.0194553
-0.0195046
-0.0228393
0.502942
0.496475
0.498159
0.492048
0.490774
0.50497
0.509185
0.511149
0.516567
0.518803
0.50901
0.514681
0.518426
0.00381443
-0.020506
-0.0238994
-0.0113234
-0.0157039
-0.0147564
-0.0167781
0.124676
0.0530996
0.0576432
0.0116336
-0.118238
-0.0607305
0.492743
0.492687
0.485109
0.722234
0.57184
0.492374
0.589739
0.694914
0.276173
0.474613
0.308393
0.890689
0.785757
0.932188
0.544505
0.246161
0.40601
0.453646
0.264013
0.337061
0.331436
0.219031
0.250671
0.286116
0.387135
0.267543
0.243512
0.00103882
0.190407
0.304076
0.285667
0.41211
0.474088
0.266275
0.18761
0.141631
0.609147
0.628004
0.643381
0.616014
0.636764
0.580137
0.568933
0.587252
0.596995
0.591837
-0.75038
-0.456965
-1.4028
-0.721276
-0.268239
0.534461
0.501692
0.770757
0.652798
0.702305
0.687108
0.645344
0.613165
0.632707
0.659328
0.354648
0.465973
0.441038
0.446119
0.347511
0.27888
0.578878
0.573476
0.607928
0.631515
0.601262
0.632201
0.514276
0.513959
0.513502
0.50979
0.508048
0.510357
0.0674733
0.0365979
0.0719048
0.05253
0.0297907
0.0183294
0.00775738
-0.00194712
-0.00849937
-0.00956875
0.00434364
0.00787915
0.170943
0.110282
0.0305511
0.0603021
0.000505551
-0.0681409
-0.0857511
0.0160178
0.110995
0.101652
0.406646
0.657749
0.477681
0.645011
0.486448
0.542273
0.474271
0.466064
0.492476
0.382638
0.46236
0.242246
-0.264892
-0.173448
0.790764
0.804881
0.586474
0.406613
0.175001
0.3575
0.550445
0.483187
0.520158
0.589238
0.578271
0.0233587
0.0850842
0.360569
0.58792
0.240528
0.231491
0.225667
0.405521
0.326204
)
;

boundaryField
{
    wall-4
    {
        type            zeroGradient;
    }
    velocity-inlet-5
    {
        type            zeroGradient;
    }
    velocity-inlet-6
    {
        type            zeroGradient;
    }
    pressure-outlet-7
    {
        type            fixedValue;
        value           uniform 0;
    }
    wall-8
    {
        type            zeroGradient;
    }
    frontAndBackPlanes
    {
        type            empty;
    }
}


// ************************************************************************* //
