/*--------------------------------*- C++ -*----------------------------------*\
  =========                 |
  \\      /  F ield         | OpenFOAM: The Open Source CFD Toolbox
   \\    /   O peration     | Website:  https://openfoam.org
    \\  /    A nd           | Version:  9
     \\/     M anipulation  |
\*---------------------------------------------------------------------------*/
FoamFile
{
    format      ascii;
    class       surfaceScalarField;
    location    "51";
    object      phi;
}
// * * * * * * * * * * * * * * * * * * * * * * * * * * * * * * * * * * * * * //

dimensions      [0 3 -1 0 0 0 0];

internalField   nonuniform List<scalar> 
1300
(
3.75095
5.62643
-3.28128
3.75095
-7.75135
5.62643
-4.34231
4.34231
-0.637767
0.637767
1.8764
1.87456
-2.8032
2.8032
-2.27568
2.27568
-2.54223
2.54223
-5.24649
5.24649
-5.06918
5.06918
4.65977
-4.65977
-6.30144
6.30144
-1.01121
1.01121
-3.70543
3.70543
3.16968
-3.16968
-2.1622
2.1622
-0.0997823
0.0997823
-0.553493
4.30445
3.19746
3.19746
-2.00165
2.00165
-4.86753
4.86753
6.21812
-6.21812
5.27408
-5.27408
-1.9928
-2.41547
1.80355
-11.5707
-5.9478
-5.9478
-8.44038
8.44038
-2.81395
2.81248
2.94523
-2.94523
-1.78079
1.78079
-4.29844
-0.0438697
-4.29844
4.31959
0.0227123
4.31959
-0.710838
0.0730706
-0.710838
3.94368
-3.94368
0.530447
0.10732
0.530447
3.06515
-3.06515
-1.8771
3.7535
1.87385
-1.87188
6.17633
-1.87907
3.75363
-6.00202
6.00202
-3.02227
0.21907
-3.02227
2.61897
0.184232
2.61897
-6.82224
6.82224
-2.31031
0.0346321
-2.31031
2.24415
0.0315368
2.24415
2.87644
-2.87644
-2.64988
0.107647
-2.64988
2.42556
0.116675
2.42556
0.35352
5.27291
-5.97995
8.79243
-5.27291
0.0264196
5.20838
0.0381131
5.20838
-5.10605
0.0368743
-5.10605
5.01177
0.0574023
5.01177
4.74788
-0.0881025
4.74788
-4.7765
0.11673
-4.7765
-3.4048
-4.03274
-6.44778
0.146341
-6.44778
-1.0758
0.0645886
-1.0758
0.930665
0.0805417
0.930665
-3.66642
3.66642
-4.0973
0.391863
-4.0973
3.12409
0.0455916
3.12409
1.8685
1.88245
5.61945
-5.61945
2.44977
-2.15852
-0.00367212
-2.15852
-2.19923
-3.07484
2.19923
-0.037039
-0.329268
0.229486
-0.329268
3.15937
0.038088
3.15937
2.26172
0.163833
-2.26172
0.260071
3.25858
-3.25858
1.34034
0.661315
1.34034
-5.56424
5.56424
4.95554
0.0562383
-4.95554
0.0880035
6.15686
0.06126
6.15686
-6.19955
-0.0185746
-6.19955
2.56229
-4.97776
-2.58268
6.12456
0.176876
-6.12456
0.17676
2.91652
0.028713
2.91652
-2.92007
2.92007
-2.98408
0.038853
-2.98408
-2.17985
0.399064
-2.17985
1.48181
0.298975
1.48181
-4.19856
-0.099879
-4.19856
-4.22081
0.123512
4.22081
0.0987861
1.12084
-1.12084
-0.805969
0.0951309
-0.805969
-4.06501
-0.133549
4.06501
-0.121326
-3.8362
-0.107482
-3.8362
-3.02414
0.0400599
3.02414
0.0410115
3.11277
0.0466002
-3.11277
0.0476177
-1.87083
3.75328
-1.88013
3.75398
-5.62183
-0.380193
-5.62183
6.31046
-0.308433
6.31046
3.38108
0.324348
-3.38108
0.358817
2.47672
0.142241
2.47672
-6.78607
-0.0361641
-6.78607
6.80658
0.0156578
6.80658
2.3746
0.10212
-2.3746
0.0642895
2.21179
0.0323509
2.21179
2.89478
-0.0183414
2.89478
-2.8719
-0.00454342
-2.8719
2.79726
-2.79726
2.72765
0.0696037
-2.72765
0.0777771
-11.1331
11.1145
-0.0352926
-11.0978
5.17308
5.17308
4.17705
0.570824
4.17705
-4.99319
0.216684
-4.99319
2.70129
-5.28397
3.02838
-6.43318
4.66515
-16.2358
4.32801
-8.36076
6.67797
-6.67797
6.5714
0.10657
-6.5714
0.123628
-1.17618
0.100387
-1.17618
-3.0613
-0.605114
-3.0613
4.31261
-0.646191
4.31261
-3.02847
3.02847
-3.07766
0.0491903
3.07766
0.0464259
2.19061
0.0211798
-2.19061
0.0320909
0.429735
0.100713
-0.429734
0.100466
3.46377
-0.205192
3.46377
-3.06551
-0.193072
-3.06551
-1.26351
0.087328
1.26351
0.0768259
-5.81452
0.250282
-5.81452
-11.1907
0.0929275
-11.1526
-6.10662
-6.10662
2.33376
11.1262
-2.89102
0.0191224
2.89102
0.025495
2.97544
0.0530304
-2.97544
0.0553669
-2.86131
0.0640565
2.86131
0.058758
-2.5551
0.37525
-2.5551
-1.07629
1.07629
-1.2457
0.169409
1.2457
0.23611
1.38648
-0.265649
1.38648
0.868385
0.0622807
-0.868385
0.0624158
-3.74299
-0.0932093
-3.74299
6.54161
-0.23115
6.54161
-2.95434
-0.111171
2.95434
-0.0595552
-0.0333006
11.1478
-5.13978
0.033734
5.13978
-11.2091
11.2428
-3.22655
0.671447
3.22655
0.950506
5.28522
0.279019
-5.28522
0.29203
6.75898
0.0476037
-6.75898
0.0810027
-2.56918
-0.492125
-2.56918
-5.03959
-0.582242
5.03959
-0.72698
-11.4751
-0.204338
11.6794
-11.4177
6.01886
0.138003
-6.01886
11.3808
-1.02808
-0.0927604
1.02808
0.0482173
1.71087
-0.32438
1.71087
3.65038
-0.186604
-3.65038
-0.0926133
-6.69245
-0.0936286
6.69245
-0.150838
-2.12599
-0.443192
2.12599
-0.415123
-4.26707
4.30515
1.90926
-2.42632
-2.55144
-5.50116
1.8519
1.90138
4.30167
-10.1797
-6.05615
-10.0029
7.2628
-6.97077
-9.25403
9.16593
7.8137
-7.92118
-5.78509
5.83151
6.48256
-6.44154
1.87874
1.87476
7.94654
-7.72747
-15.6444
15.2642
7.49197
-7.45734
15.7791
-15.8153
-17.8547
17.9023
-5.70045
5.80809
-6.73408
6.72954
-6.96393
6.90438
-2.87004
-3.56314
13.1331
-12.9867
8.54164
-8.54531
-8.56761
8.95947
3.38253
0.922621
3.42913
-1.88222
3.76096
-1.87141
3.78067
2.67712
-5.54716
2.60685
-5.15828
4.30929
4.23235
-4.27225
-1.22891
-5.92282
5.95154
-5.81701
5.87576
9.05969
-9.10356
-1.88513
3.75989
-1.86885
3.77023
-3.42505
-2.36004
3.37946
0.922214
8.09394
5.03914
-8.27082
-1.73209
-7.99673
7.81013
-8.20786
8.01479
-0.436163
5.81837
-5.3822
4.43137
-1.56028
7.37864
5.70252
5.91921
5.86578
-5.58676
1.10498
-6.48719
-6.39919
-2.38231
2.47744
2.28899
-2.18167
6.08229
1.73141
5.96097
-5.71556
-2.20562
-5.80877
3.82087
2.01064
3.87006
4.07778
2.40477
4.11784
3.03063
-3.03581
0.00517738
-3.05649
6.08712
0.724076
-5.41652
-4.49431
4.9593
2.98724
5.14353
-5.50667
-2.2208
-5.14786
-9.55835
-6.08609
-10.1406
10.1017
5.16253
9.79328
-11.9728
11.822
4.78816
2.70381
4.8197
-4.91791
-2.53943
-4.85362
11.6275
-2.60339
-9.02413
-10.3231
-7.53155
10.3075
5.47163
10.967
6.93524
11.048
4.41952
7.208
-9.89115
2.3596
-3.86204
-1.8384
-3.78427
3.67005
2.13804
3.78672
-4.21553
-2.51855
-4.19641
-4.29211
-2.67182
4.31045
2.41909
-4.41014
-3.79772
4.52131
2.38306
4.02028
-10.0764
4.34047
-7.90361
-9.20289
-3.78384
-9.07927
3.47365
2.62511
-6.09876
-2.07351
8.4607
-4.22835
7.23179
-5.1792
-3.36611
-5.1471
-6.8219
-1.74571
-6.69839
-8.89774
8.40562
-9.19515
8.54896
12.5863
-5.68003
-6.90627
-3.96831
-2.47323
3.9207
-0.491563
-3.7107
3.71588
0.0502557
3.83092
4.75354
4.26198
-3.88552
-1.93149
-3.83015
3.82789
2.04788
3.89194
6.78758
2.27211
6.81029
-6.55445
-2.54911
-6.65433
9.0579
-8.65883
2.87368
-2.78635
5.37187
2.64292
-5.16668
-2.83006
6.2094
-3.20929
-3.00011
-12.1997
10.5389
1.66085
-4.82111
-0.389736
-0.289954
-5.49241
-3.76162
5.37568
0.543529
11.0824
7.3208
-5.51159
5.76187
6.16784
6.22408
-0.175106
5.8204
-5.14895
5.28329
-2.5374
-2.74589
5.42342
-5.55697
-1.23091
-5.46926
4.23835
0.403997
1.6007
-1.37121
-1.85341
-0.5289
-1.79099
1.36777
0.921218
1.46848
0.925588
1.55185
-2.93775
0.556745
2.38101
-2.01216
-1.62492
-3.74096
-1.12031
4.86127
5.69619
2.11394
-5.60358
-0.205193
2.60298
-2.52244
-0.745511
-2.99545
2.21311
-2.95862
-3.66298
-1.99891
5.66189
-3.37019
-0.459958
3.31716
0.552898
-3.82657
-2.09625
3.78772
0.330121
-3.12671
6.19053
-3.06382
-5.0582
2.52805
3.55907
4.53869
-4.78961
2.44707
2.34254
-1.23054
4.23853
0.904999
4.38077
-6.85113
4.63033
5.77412
3.18534
-6.09847
0.950617
-5.90051
8.5133
-7.33135
-1.18195
4.12451
4.38879
7.10476
5.48154
-5.69564
12.8004
-1.17241
-6.15893
7.07292
-3.88758
4.81735
-8.70493
-10.2989
4.13996
-9.17585
10.9446
-1.76873
-3.62385
-8.34899
12.7997
-1.21314
-11.5866
8.58014
-4.21828
-4.29855
8.51683
-6.82167
6.83798
-1.98005
-4.85793
-10.1145
-5.70079
10.2081
1.61389
-9.86423
12.2238
-2.65623
4.10316
0.716543
4.13551
3.27041
-5.43685
2.16644
3.55126
-5.5313
2.08157
-7.51842
-6.71715
12.0479
-5.33073
-10.501
-9.51008
-0.990909
2.53526
9.68857
-9.47051
7.43473
2.03577
3.3048
0.587145
-3.3744
-0.409863
0.233977
4.53714
-4.77112
4.0207
4.18453
3.3117
1.22544
3.84358
2.10796
-3.86907
-0.327332
-4.15971
1.48789
-1.74062
-3.68707
5.17495
-4.06554
0.378476
-2.74342
-3.50173
6.24516
-4.58183
3.03724
3.15329
5.08511
-4.91177
1.41003
-2.39492
-2.51684
2.65551
-4.39613
1.98458
3.19037
4.36764
0.569922
5.84768
6.2002
-8.47279
0.569181
11.2393
-9.50725
2.4609
8.58714
-9.89564
0.385551
-8.69371
1.00442
-5.23278
-5.09434
5.14695
-6.89266
-3.55798
6.17264
0.637656
-6.27142
-0.42696
-6.04658
-2.85116
-6.48977
-3.05068
-6.14447
-8.74633
-1.65604
-7.09029
6.74958
-6.69341
-3.44718
7.42039
1.12857
-7.41961
7.32685
-7.49991
7.17553
0.0951439
3.62074
4.35712
1.88389
-2.3902
4.27409
-5.10976
7.38187
-8.69577
3.58601
4.17007
-6.71918
-4.5257
5.03298
4.02492
5.33196
8.91365
-10.3926
1.47898
-10.6963
12.033
-1.33672
-16.4693
5.77295
-7.5556
2.50934
0.364344
2.60973
0.570615
2.4988
-3.06942
-2.21574
-2.13891
-2.41171
-3.46199
5.8737
1.12451
-3.4971
2.3726
-3.56413
4.68863
-0.165023
-3.33208
5.29147
-2.79267
5.65582
-3.72915
1.92667
3.41673
5.74379
-2.32706
4.389
-1.74608
1.90305
-4.23011
-1.55894
-2.96293
5.10097
-3.28223
3.6607
-0.329856
3.99056
-4.08112
0.871837
-0.769425
3.41511
3.67518
4.30064
-3.0752
2.92958
-4.67566
-1.30052
-4.10574
-0.915365
-0.274241
-3.74542
4.01966
6.01227
-6.28651
-5.24272
9.54496
-4.30224
7.70591
-5.38974
-2.31617
-4.2628
-4.39603
3.88755
1.93285
9.63876
0.211039
-5.60078
-4.93791
-3.9874
3.1431
2.14019
-1.83219
3.49304
2.12214
-0.521446
0.478357
0.990126
1.80181
-1.32346
0.280617
1.5212
-1.09059
1.8437
0.759286
-1.90598
0.114984
-1.30807
3.52118
1.07294
-1.99416
0.670697
0.991019
-3.52842
4.98741
-2.64156
-2.34585
5.97843
1.13591
-3.77747
4.33335
-3.92935
2.36047
-3.48078
-1.41701
-5.34636
-3.61495
-2.53657
4.90917
-3.33712
5.45106
1.24619
-5.24587
6.49206
-3.68626
1.68735
-3.08091
3.8402
-1.00237
-2.07854
2.87199
2.78991
-3.01484
0.0193834
-0.142848
2.38152
-2.52437
-0.577099
-2.58926
-4.5728
4.90292
-2.10607
4.55314
2.16802
-1.91598
6.46912
1.80985
-3.72582
-3.24835
-3.70831
-1.38328
3.15541
-0.593681
-4.25994
-5.45161
4.15782
0.222952
-6.96024
7.7734
-0.813152
-3.973
-0.657326
4.78183
-6.01471
0.483412
-3.93315
3.84025
4.74525
4.9682
-11.3806
-0.205987
-6.21805
1.13567
-7.35371
5.52446
-3.56523
7.70519
-10.3637
6.91656
-9.23517
6.52324
-0.830471
6.24568
-4.07923
2.77846
-8.47924
-6.86535
5.45457
-2.75076
6.17111
-3.10983
9.28095
-5.76607
5.2391
4.04185
-0.992485
-4.15462
-5.24117
4.24868
-0.0020679
4.13344
4.97793
-2.86997
4.6506
2.26408
-4.65901
-2.13205
-6.49528
1.83628
-3.342
-1.91877
3.75504
3.16635
3.75349
1.2382
-3.34363
7.15922
-8.15013
-1.82849
-3.26585
5.22873
-0.980045
3.37016
-6.63601
-1.86261
4.83785
-0.790173
-4.04767
0.842189
-4.40017
1.68187
-6.08204
5.21079
-5.63775
2.22078
-9.77638
-5.19883
-5.15062
-2.25886
-5.24105
-7.5931
5.33424
-1.82015
5.5067
-8.54276
7.75259
-3.49026
8.8245
-5.43893
-1.05084
5.85405
1.32148
10.146
0.204574
-4.73028
-1.91043
3.90706
-1.99663
1.23267
-3.54084
0.366216
2.475
3.50344
-6.71334
-0.00583417
-4.73611
-3.92323
7.94815
5.62173
11.634
1.24138
9.13277
-1.18462
10.3741
4.14734
4.38345
-3.02738
4.50636
0.992279
4.57829
-0.901293
2.82796
1.70843
1.77302
0.749421
2.30753
1.36765
3.17937
0.109947
-2.02897
4.62701
-8.61441
-0.973772
-8.04359
1.12234
5.71569
-4.59335
3.02874
-0.888556
1.03211
-0.0192507
-1.41349
1.43274
-2.76514
-1.93494
-0.413739
-1.66229
2.33299
1.85889
-1.91925
-0.845886
0.35695
-3.9719
3.12383
-3.10444
-0.314539
6.17752
-2.80087
0.276498
-1.11352
-2.31277
-2.84167
2.72668
6.17636
0.292758
3.11255
5.19567
3.09942
0.22945
3.90567
-5.6744
-3.61275
-5.88039
-0.355932
4.4259
1.74262
7.94594
5.78447
4.80443
-1.83158
-9.98172
6.56737
-2.06101
5.23066
-1.18298
-4.89905
5.02548
2.35639
-5.66314
0.0253881
-4.87367
-6.93468
-0.517191
8.26978
-9.62879
8.57794
5.72678
1.36351
-4.414
-0.736616
4.24459
0.138854
10.513
-1.12673
-6.76468
7.89141
-4.58895
3.61518
0.785036
2.70801
2.21778
1.32922
-5.43545
-10.0288
-2.00066
-1.52776
-4.34651
0.514761
-2.37365
6.23591
-2.62073
3.91974
5.27068
6.3028
-2.14127
-4.14524
6.44351
-2.52377
3.77903
)
;

boundaryField
{
    wall-4
    {
        type            calculated;
        value           uniform 0;
    }
    velocity-inlet-5
    {
        type            calculated;
        value           uniform -3.75095;
    }
    velocity-inlet-6
    {
        type            calculated;
        value           uniform -5.62643;
    }
    pressure-outlet-7
    {
        type            calculated;
        value           nonuniform List<scalar> 8(3.28128 7.75135 4.40826 9.76711 7.43755 5.14496 5.72967 8.99316);
    }
    wall-8
    {
        type            calculated;
        value           uniform 0;
    }
    frontAndBackPlanes
    {
        type            empty;
        value           nonuniform List<scalar> 0();
    }
}


// ************************************************************************* //
