/*--------------------------------*- C++ -*----------------------------------*\
  =========                 |
  \\      /  F ield         | OpenFOAM: The Open Source CFD Toolbox
   \\    /   O peration     | Website:  https://openfoam.org
    \\  /    A nd           | Version:  9
     \\/     M anipulation  |
\*---------------------------------------------------------------------------*/
FoamFile
{
    format      ascii;
    class       volVectorField;
    location    "51";
    object      U;
}
// * * * * * * * * * * * * * * * * * * * * * * * * * * * * * * * * * * * * * //

dimensions      [0 1 -1 0 0 0 0];

internalField   nonuniform List<vector> 
918
(
(0.985162 -0.000504309 0)
(0.00501459 2.96625 0)
(0.00824737 0.874797 0)
(0.979703 0.00214735 0)
(-0.01337 2.06612 2.95025e-20)
(-0.00704664 2.9488 -2.49254e-18)
(0.811055 1.15072 4.39984e-19)
(0.204341 0.102361 -1.54631e-20)
(0.999908 -0.0002812 0)
(0.0612205 0.774796 0)
(0.0110734 0.578852 0)
(0.734836 -0.0179082 0)
(0.0110997 2.9304 0)
(0.00246155 2.79509 0)
(-0.0177047 3.15201 7.75589e-19)
(-0.0178306 1.91368 6.42995e-22)
(0.286832 0.0354879 1.02745e-18)
(0.186124 1.15107 3.13744e-19)
(0.962747 0.00501956 0)
(0.000685912 0.512299 0)
(0.0207443 0.136043 -7.27642e-19)
(1.00198 -0.00497821 0)
(1.00022 -0.00978888 0)
(0.975731 -0.00643949 0)
(0.585405 -0.0300433 0)
(0.0153607 2.64104 0)
(-0.0149295 2.91003 9.18691e-19)
(0.0106986 0.932264 0)
(-0.00988072 1.17505 0)
(0.0110323 0.912156 0)
(-0.0144307 2.60428 0)
(-0.00215066 2.11557 -2.3562e-20)
(-0.00904685 1.89741 0)
(-0.020609 2.9876 -8.96642e-23)
(-0.0166872 3.00529 1.93714e-18)
(0.00209823 3.00018 0)
(0.871046 -0.00958555 0)
(0.404631 0.936871 1.82262e-19)
(0.79423 1.166 -4.98825e-19)
(0.94584 1.01031 5.40846e-19)
(0.664793 1.257 -1.01728e-19)
(0.666288 1.23429 5.86967e-19)
(0.24024 0.168149 1.50856e-20)
(0.217439 0.0763309 0)
(1.14658 0.55646 0)
(0.209368 0.159532 6.87807e-20)
(0.176662 0.100578 -7.13711e-20)
(0.919839 -0.00744698 0)
(1.00027 0.000156465 0)
(0.99991 0.000335582 0)
(1.00363 -0.00776634 0)
(1.00096 -0.000920625 0)
(1.00017 3.33839e-05 0)
(0.0749449 1.8192 -7.89286e-19)
(0.0283983 0.973679 0)
(0.0947221 0.845095 0)
(0.0133784 0.927977 0)
(0.0357618 0.706405 0)
(0.00853515 2.00389 0)
(-0.000972147 0.824988 0)
(0.0114236 0.591025 0)
(0.000145818 0.815683 0)
(0.00786192 0.568048 0)
(0.840216 -0.0158536 0)
(0.843548 0.0304388 0)
(0.767574 -0.00678936 0)
(0.81094 0.0405087 0)
(0.705029 -0.0197833 0)
(0.0146848 3.00041 9.24259e-19)
(0.0114895 3.00803 0)
(0.00611071 3.00276 0)
(0.0135312 2.99735 1.04899e-23)
(0.00797102 2.95848 -1.37368e-18)
(0.0144971 2.98207 0)
(0.0108686 2.90356 0)
(0.024353 2.93092 2.10985e-24)
(0.00467425 2.82501 0)
(0.0302399 2.91647 0)
(-0.00485128 2.74507 0)
(0.306735 3.54686 0)
(-0.13172 3.62789 0)
(0.138683 3.24231 -7.21764e-19)
(-0.0131813 2.97933 0)
(-0.0157988 1.9835 0)
(-0.00637657 2.16657 -6.34188e-22)
(-0.0108315 1.91997 -6.58274e-21)
(0.384394 0.144463 -3.56226e-19)
(0.3069 0.0215208 -3.45162e-19)
(0.351904 0.15387 -1.06894e-18)
(0.261039 0.0415096 -7.00024e-19)
(0.226483 0.972386 0)
(0.267557 1.29649 -3.65726e-19)
(0.360112 1.22621 6.09139e-19)
(0.987455 0.008559 0)
(0.941898 0.0058327 0)
(1.0003 0.000578936 0)
(1.00286 0.00930698 0)
(1.00302 0.00846515 -2.7608e-18)
(0.991911 0.00969818 2.08486e-18)
(-0.00287562 0.805154 0)
(0.0025303 0.526738 0)
(-0.0350683 0.998835 0)
(-0.0225837 0.839048 0)
(0.00324474 0.506056 0)
(0.0390998 0.140734 2.24748e-19)
(0.107239 0.11398 0)
(0.993546 -0.00837719 0)
(0.954441 -0.00652456 0)
(0.755619 0.0470285 0)
(0.690685 0.0558572 0)
(0.664259 -0.0309605 0)
(0.966649 -0.00792767 0)
(0.603224 0.0730686 0)
(0.444331 -0.0113879 1.54487e-18)
(-0.0373603 2.86181 6.83434e-19)
(0.0413059 2.90959 0)
(0.0536562 2.88598 0)
(-0.00452147 2.70023 0)
(-0.0131523 2.98528 8.70207e-19)
(-0.0178431 2.89512 0)
(-0.01535 2.98808 -2.69744e-18)
(-0.0133211 2.9252 9.23222e-19)
(-0.013572 1.34371 0)
(0.0067543 1.37182 0)
(-0.00678464 2.13458 3.15031e-22)
(-0.00612929 2.09853 0)
(-0.0203856 1.90328 0)
(0.938314 -0.00751343 0)
(0.856987 -0.00989228 0)
(0.863333 0.00598532 0)
(0.949408 -0.00790476 0)
(0.883865 -0.00815785 0)
(0.516416 1.1301 -2.30124e-19)
(0.565545 1.18109 0)
(0.369061 0.881921 3.39884e-20)
(0.311358 0.740825 0)
(0.906256 1.04923 -1.48701e-19)
(1.02271 0.859483 2.99164e-19)
(0.351827 1.34803 0)
(0.519437 1.31372 0)
(0.542906 1.25779 0)
(0.118957 0.184946 -3.02995e-19)
(0.269516 0.16042 0)
(0.239649 0.0767628 1.97437e-19)
(0.994205 0.914272 0)
(1.06748 0.769775 0)
(1.09237 0.711398 -2.33578e-19)
(1.12604 0.615715 0)
(1.17684 0.401459 5.62399e-20)
(0.957644 -0.00876218 0)
(0.962451 -0.0100749 0)
(0.901637 -0.00796926 0)
(0.984187 -0.00916261 0)
(0.974679 -0.00936135 0)
(0.9371 -0.00636662 0)
(1.00019 0.00233659 0)
(1.0009 0.00140977 0)
(0.99991 0.00085295 0)
(0.0350962 2.07088 4.36707e-19)
(0.119625 1.76214 0)
(0.0171472 2.18517 6.75377e-19)
(0.0480108 1.87293 -5.66625e-19)
(0.101234 1.15945 -2.56858e-19)
(0.044205 1.04763 0)
(0.141281 0.998697 0)
(0.0083078 0.885815 0)
(0.0160259 0.65595 0)
(-0.00108094 2.23642 -1.0017e-21)
(0.0173059 2.008 0)
(-0.00161246 2.23776 -4.12629e-20)
(0.0106365 2.01302 6.93478e-20)
(0.00362746 0.858039 0)
(0.00139277 0.84036 0)
(0.00908856 0.616188 0)
(-0.000599056 0.81219 0)
(0.00885272 0.550321 0)
(0.937124 0.00951504 0)
(0.848321 -0.0149536 0)
(0.926653 0.000181653 0)
(0.841516 -0.0129671 0)
(0.812071 -0.00034348 0)
(0.900207 0.0210131 0)
(0.875353 0.0255948 0)
(0.788827 -0.00308662 0)
(0.00568713 3.06483 -8.62986e-21)
(0.0167294 3.0578 0)
(0.0147089 2.96903 0)
(0.00865548 2.87618 0)
(0.923196 3.96135 0)
(1.23723 3.29464 9.29221e-19)
(0.0695637 3.07145 0)
(-0.0287605 2.90363 0)
(-0.00148482 1.3931 0)
(-0.0173977 1.69092 0)
(-0.00655157 1.52706 0)
(-0.0255453 2.56206 -8.87429e-21)
(-0.00729264 2.24708 0)
(-0.0149465 2.39764 0)
(0.00270072 1.94111 1.22727e-21)
(-0.00283863 2.23681 3.95171e-21)
(-0.0047748 2.20071 6.58485e-21)
(-0.00508849 1.92837 0)
(0.427183 0.127518 5.41708e-19)
(0.35268 0.0120762 -5.31709e-19)
(0.259744 1.58272 0)
(0.274458 0.745984 -3.16034e-19)
(0.177045 1.66897 -1.05547e-18)
(0.226521 1.2116 1.05789e-18)
(0.902123 0.00641998 0)
(0.967451 0.0110904 0)
(0.974579 0.0107908 0)
(0.92337 0.00643307 0)
(-0.00333522 0.813104 0)
(0.00498934 0.808008 0)
(0.0016076 0.53595 0)
(0.179157 0.150232 6.35097e-19)
(0.148871 0.136937 -7.49756e-19)
(0.145425 0.104536 0)
(1.09272 0.0845896 2.78032e-20)
(1.07492 0.0385099 0)
(1.00888 0.0391767 0)
(0.904079 -0.00629002 0)
(0.472116 0.107617 0)
(0.525111 0.0878303 -2.46951e-18)
(0.395207 0.00720275 9.24176e-19)
(0.00882326 2.98095 7.31571e-19)
(-0.0326577 2.86565 4.70505e-20)
(0.00361911 3.05021 -1.82607e-20)
(0.0202191 3.04339 6.49733e-19)
(-0.0150213 2.99658 3.03091e-20)
(-0.012944 2.94948 -1.21968e-22)
(-0.0172498 3.01194 -5.60709e-19)
(0.0148444 3.02384 4.05551e-19)
(0.00735677 3.03676 -6.4256e-19)
(0.933369 -0.00142224 0)
(0.939054 -0.00338495 0)
(0.845267 -0.00943865 0)
(0.95662 0.0118392 0)
(0.942835 0.0131263 0)
(0.881671 0.00595838 0)
(0.917401 0.0169439 0)
(0.926164 0.0148798 0)
(0.838569 0.00286339 0)
(0.719015 1.40763 3.91853e-20)
(0.752294 1.5164 0)
(0.185567 0.322257 7.15602e-20)
(0.224544 0.666359 5.77367e-19)
(0.262283 0.72223 -3.36434e-19)
(0.265644 0.530265 6.68814e-19)
(0.341624 0.803788 1.59333e-18)
(0.137905 0.227469 3.74956e-19)
(0.322182 0.161081 7.42326e-19)
(0.296465 0.162608 1.93666e-19)
(0.248293 0.0592518 3.68048e-19)
(1.16605 0.459135 5.05574e-20)
(1.18312 0.253717 4.57915e-20)
(0.00917278 2.23251 2.62587e-19)
(0.0420827 1.93941 0)
(0.967944 0.0288312 0)
(0.941406 0.0135835 0)
(0.866674 -0.0182643 0)
(0.0111807 3.07421 0)
(0.0196136 2.94404 1.19066e-18)
(0.0164365 2.95626 0)
(0.00641535 2.85063 -1.181e-18)
(0.00633102 3.09104 2.89016e-19)
(0.00726281 3.08275 0)
(0.785224 1.81837 -1.59448e-19)
(1.24513 2.49486 4.06017e-19)
(0.767261 1.9578 -1.23415e-18)
(0.0198178 2.98052 -6.32221e-19)
(0.0355931 3.00006 0)
(-0.0341996 2.8772 0)
(-0.00317364 2.21777 -1.28709e-20)
(-0.00255033 2.2399 -1.28327e-20)
(0.00493854 1.97498 -7.39484e-21)
(0.277101 1.39066 1.02787e-18)
(0.233747 0.536565 -7.05025e-19)
(0.0634271 1.9957 7.71756e-19)
(0.135613 1.88284 -9.18513e-19)
(0.180281 1.50399 9.35891e-20)
(0.00261132 3.11833 -1.80514e-18)
(0.0169121 3.11789 1.93377e-18)
(-0.00913813 2.98097 8.00831e-19)
(-0.00336932 2.97733 -7.57951e-19)
(-0.021197 2.88132 -8.15624e-19)
(0.00863302 3.09925 -2.14923e-18)
(0.00213909 3.10667 2.09663e-18)
(0.278984 0.692513 0)
(0.245448 0.682096 -1.19538e-18)
(0.0965132 0.225748 5.3055e-19)
(0.354551 0.929634 1.11238e-18)
(0.193023 0.272373 -1.71508e-18)
(1.17697 0.17269 6.6905e-20)
(1.18372 0.307939 0)
(1.1653 0.121048 -1.15868e-20)
(0.00107393 2.24867 -1.64359e-21)
(0.00420027 2.24149 0)
(0.0260859 1.97466 0)
(0.340126 1.29961 -3.69592e-19)
(0.372105 1.14088 -8.0114e-19)
(0.207279 0.372088 1.42734e-18)
(1.00588 -0.0108448 0)
(1.00767 -0.0076433 5.0941e-19)
(-0.011408 1.323 0)
(-0.026927 1.31648 0)
(1.00222 0.00350534 1.80618e-21)
(1.00366 0.00945743 1.0399e-18)
(-0.0165171 2.54529 1.12444e-20)
(-0.0215582 2.58804 0)
(0.0351943 3.17761 4.20443e-19)
(0.392858 3.48721 0)
(1.16765 0.656925 -6.2916e-20)
(1.01289 0.013106 -2.14375e-21)
(1.02129 -0.0103393 0)
(1.0017 0.00011925 7.44762e-23)
(0.102985 1.36014 0)
(0.144025 2.5756 0)
(0.0257724 1.30655 0)
(-0.000997478 2.62436 3.98723e-20)
(-0.0215325 2.57997 1.48145e-20)
(1.00012 0.0293443 2.51419e-21)
(1.06242 0.00415968 0)
(1.09621 0.0240964 0)
(-0.0202335 1.73265 0)
(-0.0160357 2.5839 0)
(0.00188249 1.30723 0)
(0.300083 1.47381 -1.65686e-19)
(1.01128 -0.00963647 0)
(1.0094 -0.0149188 0)
(1.00237 0.000736165 6.50892e-19)
(1.00547 -0.00481482 -7.6512e-19)
(1.00118 -0.00098586 0)
(-0.00510891 1.45845 0)
(0.000189528 1.37044 0)
(0.00163909 1.41627 0)
(-0.00198023 1.29538 0)
(-0.0087403 1.27911 0)
(0.00128384 1.26184 0)
(1.03481 -0.00621399 0)
(1.0201 0.0156368 -8.70121e-22)
(0.816679 1.26458 2.53226e-19)
(1.00224 0.000302701 -6.48756e-19)
(1.00407 0.00524913 7.59125e-19)
(1.00117 0.0020658 0)
(1.01277 0.0103251 6.45332e-19)
(1.008 0.00829973 -7.81856e-19)
(1.00857 0.0146894 0)
(-0.0211552 2.61329 0)
(-0.0230258 2.59448 -1.29934e-20)
(-0.0207449 2.60778 9.19754e-21)
(1.23277 0.263831 5.98916e-19)
(1.15911 0.0851999 0)
(0.0416982 3.07751 -9.33872e-19)
(0.0649595 2.85527 -6.79418e-20)
(0.140129 3.19222 1.42977e-18)
(0.135455 3.22058 -2.0518e-19)
(0.134017 3.23205 0)
(0.0197968 3.13731 2.413e-19)
(0.0754626 3.16023 9.21083e-19)
(0.0682739 3.18555 -4.54734e-19)
(0.0221218 3.12998 0)
(0.611172 0.277478 0)
(0.536887 0.316105 0)
(1.13794 0.692927 1.47754e-19)
(1.13321 0.813449 -1.36914e-19)
(1.19459 0.579745 0)
(1.22268 0.514393 0)
(1.0161 0.0133351 -1.20297e-18)
(1.01499 0.0142649 1.51001e-18)
(1.02529 -0.00987407 0)
(1.02335 -0.011903 0)
(1.00643 0.00259301 0)
(1.01042 0.00371016 0)
(1.00458 0.00185087 0)
(1.0098 0.00620555 0)
(1.00783 0.00595452 0)
(1.00451 0.00468504 0)
(0.0917796 1.35753 0)
(0.085655 1.32656 0)
(0.123021 1.39419 0)
(0.138084 1.40316 0)
(0.144937 2.6005 0)
(0.185345 2.66931 -4.3058e-19)
(0.100335 2.65633 0)
(0.0846304 2.65851 2.05021e-19)
(0.0374741 2.67971 -1.6356e-19)
(0.0159735 1.31565 0)
(0.018129 1.24471 0)
(0.0195125 1.32607 0)
(0.0332473 1.26937 0)
(0.000954904 1.9824 -8.69423e-21)
(-0.0203706 2.60803 -5.31301e-21)
(-0.00954874 2.66574 2.86698e-20)
(-0.0186775 2.68388 0)
(-0.0224701 2.61365 -3.27832e-20)
(-0.0223617 2.60845 -3.95686e-21)
(0.00978327 1.98102 9.00963e-21)
(-0.00786992 2.39576 7.1284e-21)
(-0.0142714 2.41817 -3.25163e-20)
(1.01033 0.037296 1.22803e-18)
(1.00562 0.0161204 -1.517e-18)
(1.00145 0.0446772 -1.22923e-18)
(0.97777 0.0222608 1.56873e-18)
(1.06365 0.00796391 0)
(1.04892 -0.00849755 0)
(1.0933 0.034155 0)
(1.07358 0.0123821 0)
(1.07137 7.95045e-05 0)
(1.13902 0.0816623 0)
(1.11037 0.0436249 0)
(1.11363 0.0316261 0)
(-0.0200609 2.43422 2.59049e-22)
(-0.00623603 2.00677 0)
(-0.00921394 2.21473 0)
(-0.0177888 2.60448 -4.56782e-21)
(-0.0155901 2.6138 -5.64285e-23)
(0.00770678 1.56686 -2.39898e-20)
(0.00110122 1.49673 2.44293e-20)
(-0.00874373 1.38707 0)
(-0.0111574 1.39394 0)
(-0.0138325 1.3887 0)
(0.000796488 1.30836 0)
(0.0119046 1.23565 0)
(0.379654 1.4902 2.6868e-19)
(0.42095 1.49187 1.43109e-19)
(0.598208 2.45048 -2.40582e-19)
(0.40045 2.54625 7.09517e-19)
(0.351481 2.06298 7.19718e-20)
(1.02101 -0.00816508 0)
(1.01548 -0.00977421 0)
(1.0149 -0.0155101 0)
(1.00742 -0.00112873 0)
(1.00493 -0.000930047 0)
(1.00777 -0.00472418 0)
(1.00925 -0.00366913 0)
(1.01419 -0.00443338 0)
(1.02084 0.0161946 1.17807e-18)
(1.01785 0.0156273 -1.50818e-18)
(1.02121 0.0181761 -1.18701e-18)
(1.01899 0.0168165 1.4837e-18)
(0.778713 1.31565 0)
(0.715095 1.36573 2.3899e-19)
(0.891414 1.21584 9.09535e-20)
(0.937824 1.16095 -1.2104e-19)
(1.15717 2.60425 2.84463e-19)
(0.784645 0.117754 6.0215e-19)
(1.16142 0.106863 0)
(1.2089 0.191519 -4.81484e-19)
(1.19539 0.153293 -2.04318e-20)
(1.00537 0.153809 0)
(0.131959 2.95909 5.4665e-19)
(0.108869 2.865 -1.18572e-18)
(0.0182955 2.37539 7.95488e-19)
(0.0906859 -0.0881082 -3.49676e-19)
(0.337749 3.41687 -2.10521e-19)
(0.192497 3.31043 0)
(0.235831 3.35163 2.74171e-19)
(0.241798 3.03216 -1.81467e-18)
(0.336143 3.19105 0)
(0.00566159 3.12114 4.68976e-20)
(0.0157282 3.12982 -5.52959e-19)
(0.0139899 3.12588 8.13838e-19)
(0.0348462 3.14009 0)
(0.0333466 3.15029 0)
(1.21383 2.60254 0)
(0.543759 0.817041 -5.3283e-19)
(1.06024 0.985659 -7.5755e-22)
(0.995103 1.07038 0)
(0.848065 0.969169 -1.1328e-19)
(1.08461 0.887721 2.8315e-20)
(0.345704 0.361835 -9.00401e-19)
(0.669971 0.31383 -1.93886e-20)
(0.609861 0.218474 4.21284e-19)
(0.56189 0.351013 3.10454e-20)
(0.465035 0.30789 -1.24853e-18)
(0.6355 0.321797 0)
(0.700422 0.418075 7.15874e-19)
(0.708703 0.420801 0)
(0.596381 0.34425 0)
(0.544325 0.25843 0)
(0.810846 0.616764 4.22132e-19)
(1.23291 0.285703 -5.05767e-19)
(1.23224 0.423842 0)
(1.2414 0.364497 0)
(0.720148 0.190141 6.26401e-19)
(0.858537 0.543789 -3.87952e-19)
(0.757074 0.514299 6.88295e-19)
(0.953745 0.435986 -7.56335e-19)
(1.01946 0.0148377 8.08803e-19)
(1.01771 0.0142844 -8.13889e-19)
(1.01592 0.0154624 0)
(1.03627 -0.00575748 0)
(1.02976 -0.00847269 -7.62486e-19)
(1.02779 -0.0120413 7.54932e-19)
(1.02494 0.0101895 0)
(1.0235 0.0138788 0)
(1.01141 0.00410559 0)
(1.01424 0.00907942 0)
(1.01513 0.00406336 0)
(1.01424 0.00282967 0)
(0.0628491 1.34213 0)
(0.0665231 1.29701 0)
(0.143181 1.37091 2.73316e-21)
(0.272614 1.47052 8.62625e-20)
(0.165704 1.44142 1.8003e-19)
(0.197828 1.4481 -2.94421e-19)
(0.164984 1.3959 0)
(0.132001 1.59643 -7.73088e-20)
(0.11556 1.57104 0)
(0.349183 2.01493 -1.04636e-19)
(0.344562 2.34779 6.21739e-19)
(0.189054 1.45517 6.74032e-20)
(0.2614 1.38614 2.14965e-20)
(0.197366 1.37525 -1.74077e-20)
(0.273199 1.32992 -1.05213e-19)
(0.240792 1.57938 0)
(0.263805 1.61842 1.14051e-19)
(0.0295853 2.26568 -3.32388e-20)
(0.0423795 2.66966 0)
(0.0649756 2.40264 1.42552e-19)
(0.0612031 2.42321 0)
(0.068579 2.67209 -2.27126e-19)
(0.0481743 2.69958 0)
(0.0260235 1.42034 1.76814e-20)
(0.0325983 1.47174 0)
(0.0283362 1.38914 0)
(0.0230959 1.39267 -1.99502e-20)
(-0.000645423 2.65231 -1.70613e-20)
(0.028439 2.69813 1.8537e-19)
(0.00938901 2.72215 1.31053e-21)
(0.00195648 1.83079 8.88294e-21)
(-0.00409652 1.68316 2.44903e-21)
(0.0148037 1.29823 0)
(0.0184619 1.22173 0)
(0.0454835 1.57955 -1.15641e-20)
(0.0285224 1.45439 -1.69843e-20)
(0.035353 1.51874 2.1443e-20)
(0.0382769 1.60359 0)
(-0.0260311 2.26678 6.69742e-20)
(-0.0265432 2.54949 -2.7367e-20)
(-0.0141182 2.44467 3.34256e-22)
(-0.00294033 1.84725 -1.07662e-20)
(-0.0238173 2.49776 -3.21147e-21)
(-0.0199651 2.44107 2.15742e-20)
(1.01908 0.0210543 -8.0468e-19)
(1.01504 0.0268993 8.09029e-19)
(1.01408 0.0163231 0)
(1.01224 0.0714338 1.13578e-18)
(0.989363 0.0600946 -1.27932e-18)
(0.946405 0.0450301 1.43232e-18)
(1.01384 0.109964 -1.51326e-19)
(1.04261 -0.00578183 0)
(1.05086 -0.00151176 7.27482e-19)
(1.03891 -0.00989993 -7.28905e-19)
(1.07092 0.0418119 -4.33052e-20)
(1.0643 0.0234334 3.73307e-19)
(1.06325 0.0559168 0)
(1.05323 0.0492091 -1.34232e-19)
(1.03247 0.0423041 0)
(1.02561 0.0385887 0)
(1.02782 0.0131895 0)
(1.02403 0.0159229 0)
(1.03976 0.0319691 2.76401e-19)
(1.03881 0.0267979 -6.10885e-19)
(1.05093 0.0337357 -2.92987e-19)
(1.04817 0.0337448 -3.22722e-19)
(1.07085 0.0638995 6.29968e-19)
(1.09592 0.05174 0)
(1.10437 0.0950798 0)
(-0.020609 2.2721 4.15744e-20)
(-0.0173443 2.01327 -3.54e-22)
(-0.0139791 2.01961 0)
(-0.0235112 2.44526 -4.138e-20)
(-0.0175057 2.40184 1.16813e-22)
(-0.0283596 2.47494 3.79808e-21)
(-0.0193081 2.62142 2.9029e-21)
(-0.0203034 2.56292 -1.00883e-21)
(-0.0194339 2.51356 1.60593e-21)
(-0.0138589 2.6161 2.42181e-21)
(-0.0192071 2.61767 -1.42264e-21)
(-0.00155297 1.48564 -3.12808e-22)
(0.00867975 1.61568 -1.89447e-20)
(0.364673 1.43909 -1.13109e-19)
(0.366248 1.37602 3.72028e-20)
(0.655191 1.41616 -2.31391e-19)
(0.521586 1.48415 -1.40743e-19)
(0.579915 1.44936 0)
(0.593895 2.42734 2.07728e-19)
(0.661643 2.4213 3.38649e-19)
(0.411416 2.51763 8.66944e-20)
(0.402895 2.54285 -6.17295e-19)
(0.511222 2.48543 6.15424e-19)
(0.553659 2.46427 0)
(0.489325 2.52105 -5.62365e-19)
(0.248274 2.59368 1.15938e-18)
(0.354622 2.56649 -7.88217e-20)
(0.284268 2.6553 -1.60177e-18)
(0.946992 2.37966 7.30092e-19)
(0.838024 2.3849 0)
(1.01105 0.000466375 2.64102e-20)
(1.0153 -0.00543729 -2.14276e-20)
(1.01763 -0.00356399 -3.91387e-19)
(1.015 -0.000914148 3.93468e-19)
(1.01242 0.00116994 0)
(0.643511 1.28707 0)
(0.668325 1.18422 0)
(0.780536 1.0967 0)
(0.660994 1.14641 0)
(1.1867 2.61812 5.9539e-20)
(1.07549 2.36529 0)
(0.837819 2.17417 3.84677e-21)
(0.825914 2.44021 0)
(0.923253 2.5322 -4.23302e-19)
(0.958826 2.48798 2.81634e-19)
(0.807585 0.176124 0)
(0.762317 0.150612 1.63455e-19)
(0.915969 0.148087 9.52049e-19)
(0.830722 0.149759 -3.56451e-19)
(0.791466 0.0851587 -1.09946e-18)
(1.07967 0.236346 -9.06017e-19)
(0.996572 0.294934 -1.61848e-20)
(0.929268 0.297679 8.71684e-19)
(1.0077 0.226937 7.28628e-19)
(0.950581 0.193091 -1.26212e-18)
(0.914986 0.19655 1.57742e-19)
(0.95454 0.259358 -3.3548e-19)
(0.929826 0.221497 0)
(0.992948 0.188836 6.22442e-19)
(1.04705 0.18997 0)
(1.04362 0.217055 0)
(1.10559 0.118695 2.92973e-19)
(1.07109 0.177228 -1.45945e-20)
(1.07401 0.23729 -1.59374e-19)
(1.10137 0.203657 0)
(1.02292 0.0463925 6.23616e-19)
(1.0398 0.0592444 7.77552e-19)
(1.03375 0.0446854 -6.18548e-19)
(1.0425 0.0660479 -5.21141e-19)
(1.01901 0.073719 -7.98677e-19)
(0.987919 0.160681 0)
(0.998037 0.106069 0)
(0.964889 0.0679932 -5.10147e-19)
(0.910053 0.0918421 2.0028e-19)
(1.03929 0.105394 7.20265e-19)
(1.06894 0.121819 -8.44875e-19)
(1.07495 0.154982 7.54292e-19)
(1.02901 0.145371 0)
(1.07447 0.110136 0)
(1.05458 0.0907332 -3.45669e-19)
(1.04376 0.0957876 -5.89229e-19)
(0.58269 1.06915 1.41e-19)
(0.609384 1.39524 -4.25082e-20)
(1.15664 2.73365 -2.28013e-19)
(1.22256 3.07562 1.69596e-21)
(1.24872 2.71691 -1.28115e-19)
(1.27778 2.70051 -3.10645e-20)
(1.20585 2.34141 -1.07242e-20)
(1.21011 2.9796 -9.3281e-20)
(1.22999 2.94494 2.34586e-19)
(1.21308 3.22888 -1.43582e-19)
(1.3733 2.96045 1.98477e-19)
(1.36288 2.87872 0)
(0.554252 0.82458 -5.02973e-20)
(0.124053 1.23945 5.75079e-19)
(0.543306 0.402504 5.83958e-19)
(0.382605 0.150208 6.41222e-19)
(0.500858 0.345727 7.0562e-19)
(0.542392 0.450202 -1.13694e-18)
(0.545037 0.449538 9.29516e-19)
(0.482247 0.358325 -3.54386e-19)
(0.383436 0.289829 8.04177e-19)
(0.72889 0.260347 -3.60367e-19)
(0.690306 0.282446 0)
(0.65667 0.202019 8.00458e-21)
(0.735867 0.506245 3.76595e-19)
(0.708313 0.474848 -1.37239e-18)
(0.614241 0.452853 1.34863e-20)
(0.619491 0.442441 0)
(0.683569 0.719016 4.01745e-19)
(0.845588 0.774114 4.04585e-19)
(0.769939 0.856 -4.73157e-19)
(0.892516 0.811442 -1.59464e-19)
(0.923738 0.855592 -3.90396e-20)
(0.930968 0.855461 3.99769e-20)
(0.855876 0.651695 -6.99486e-19)
(0.938583 0.70684 1.48126e-19)
(0.997873 0.722656 0)
(0.988611 0.699559 -2.01391e-19)
(1.02588 0.33507 2.17767e-19)
(1.1438 0.300561 2.96666e-19)
(1.06674 0.27384 3.70615e-19)
(1.01245 0.367463 -4.39654e-19)
(1.06138 0.433404 0)
(1.11876 0.416496 0)
(0.920452 0.369656 4.09901e-21)
(0.842143 0.30085 0)
(0.882647 0.298448 4.10778e-19)
(0.910819 0.304821 -6.19959e-21)
(0.94761 0.438833 2.1075e-18)
(0.90621 0.496112 5.43996e-19)
(0.910307 0.461686 -5.78946e-19)
(0.830902 0.446264 6.20259e-19)
(0.813617 0.439495 3.72527e-19)
(0.782354 0.421233 -3.66257e-19)
(1.02733 -0.000341654 6.51995e-19)
(1.02 -2.82175e-05 0)
(1.01852 0.000900506 4.25074e-19)
(1.02168 -0.00167514 -9.62888e-19)
(1.02231 0.00436189 4.67751e-19)
(1.02036 0.0113286 -9.79622e-19)
(1.02129 0.0107099 0)
(1.02057 0.0109489 -2.04146e-19)
(1.01596 0.00774476 5.12151e-19)
(1.01667 0.0105155 -2.55533e-19)
(1.01737 0.00986495 1.882e-19)
(0.028595 1.31885 0)
(0.033912 1.36194 0)
(0.0432368 1.31949 0)
(0.0477688 1.27614 0)
(0.0708037 1.38454 -3.13134e-20)
(0.0779226 1.3543 1.65572e-20)
(0.111833 1.52222 -1.70925e-20)
(0.0940471 1.36758 -2.27585e-21)
(0.0333891 1.45898 -2.86936e-21)
(0.0374669 1.45176 2.3974e-21)
(0.0625334 1.36901 -8.15586e-21)
(0.0546846 1.37052 3.05207e-20)
(0.048704 1.34628 4.37267e-21)
(0.0388988 1.36964 1.04024e-21)
(0.106544 2.37307 -1.57403e-19)
(0.0952648 2.41994 0)
(0.170221 2.04773 1.099e-19)
(0.110224 1.70922 4.21053e-20)
(0.231553 2.04312 -9.07649e-20)
(0.203047 2.43581 0)
(0.264295 2.38615 -6.06444e-19)
(0.303671 2.38391 4.29395e-19)
(0.229989 2.00365 -2.52058e-19)
(0.153929 2.16374 1.70088e-19)
(0.142402 2.27377 0)
(0.0161428 1.8781 -1.11093e-20)
(-0.00207938 2.39615 -5.75537e-20)
(0.00376915 2.15073 0)
(0.00972831 2.45854 -1.34333e-20)
(0.0261324 2.30326 1.7124e-20)
(0.0154252 1.40176 -3.8071e-21)
(0.0143426 1.38724 6.67239e-20)
(0.014377 1.39205 -2.35961e-20)
(0.0202179 1.39278 -1.68334e-20)
(0.0251558 1.42408 0)
(0.0107312 1.3738 0)
(0.00325273 1.29053 -2.47904e-20)
(0.0126953 1.36518 6.75821e-21)
(0.0133785 1.36565 0)
(0.00878376 1.28359 -1.75567e-20)
(0.0154077 1.21189 3.69087e-20)
(1.04056 0.011633 0)
(1.04665 0.00790427 -6.82573e-20)
(1.03854 0.0216865 -4.92381e-19)
(1.04823 0.0205044 0)
(1.05207 0.0203381 0)
(1.03625 0.0117996 -6.71972e-21)
(1.03096 0.0116444 7.91199e-19)
(1.03171 0.0165282 9.59062e-19)
(1.02562 0.0204117 0)
(1.02264 0.0207991 0)
(1.03507 0.0253705 4.91046e-19)
(1.02588 0.0266419 0)
(1.02398 0.0266916 0)
(-0.0159028 2.01776 0)
(0.00506216 1.64616 -3.67517e-21)
(-0.00187218 1.75311 -2.37489e-20)
(0.00499558 1.37693 0)
(-0.00379971 1.54627 -8.42984e-21)
(-0.00382776 1.45507 6.27567e-21)
(0.000292878 1.38984 0)
(0.392555 1.66222 0)
(0.370275 1.30522 -7.19487e-20)
(0.303781 1.34511 0)
(0.42444 1.30662 9.5414e-21)
(0.46985 1.46276 0)
(0.451298 1.40963 2.29587e-20)
(1.03679 2.6817 -1.54639e-20)
(0.967931 2.4088 -9.17769e-19)
(0.920344 2.19468 1.03744e-18)
(0.851815 2.37682 2.42747e-19)
(0.848406 2.49266 0)
(0.918388 2.48838 0)
(0.9303 2.3734 0)
(0.909097 2.36203 -9.46207e-19)
(0.689274 2.45868 -3.95373e-19)
(0.801626 2.44825 -9.78763e-20)
(0.812372 2.42215 7.44507e-20)
(0.696068 2.39473 0)
(0.800858 2.39001 0)
(0.759272 2.40314 -3.69097e-19)
(0.769034 2.48309 0)
(0.627689 1.09661 0)
(0.484177 0.912989 -5.07923e-19)
(0.562004 0.950335 -3.22265e-20)
(0.523717 1.04712 0)
(0.523936 0.992844 7.62037e-19)
(0.791971 0.879626 -1.32765e-19)
(0.803292 1.01627 0)
(0.777825 0.981227 1.90837e-19)
(0.66188 1.03309 0)
(0.664126 0.93689 0)
(1.16529 2.75626 -2.31969e-19)
(1.14289 2.81952 -9.83523e-20)
(0.931826 2.33662 1.02527e-19)
(0.899634 2.31624 -8.39676e-20)
(1.13069 2.72971 0)
(1.08432 2.69948 1.01048e-19)
(1.09078 2.48367 -3.17236e-19)
(0.98563 2.23549 -3.06844e-20)
(0.498544 1.34545 0)
(0.5132 1.07253 -1.24336e-19)
(0.576145 1.1714 0)
(0.857321 0.240358 0)
(0.77624 0.191395 0)
(0.707481 0.154679 0)
(0.850173 0.240773 -6.46562e-19)
(0.74798 0.230279 3.75806e-19)
(0.926876 0.078359 -4.13448e-19)
(0.940451 0.125022 0)
(0.92152 0.137573 1.77761e-19)
(0.858102 0.112653 7.13203e-19)
(0.824528 0.070493 -4.4619e-19)
(1.15908 3.35405 -7.20435e-19)
(1.20756 3.27341 0)
(1.15691 3.38266 -1.48852e-18)
(0.644704 3.54378 1.26385e-18)
(0.868096 3.11201 7.1902e-20)
(0.52057 0.823684 6.06587e-19)
(0.429743 0.821319 0)
(0.322104 0.438222 -1.51351e-19)
(0.459614 0.661321 8.64682e-19)
(0.545627 0.405304 -2.03526e-19)
(0.512182 0.479142 2.35977e-19)
(0.666672 0.516175 5.07893e-19)
(0.701124 0.548331 0)
(0.652316 0.588242 0)
(0.611889 0.53375 0)
(0.999479 0.60951 9.44998e-20)
(0.911905 0.545661 -5.29224e-19)
(0.938067 0.578688 4.00576e-19)
(0.970097 0.517164 -4.09235e-19)
(1.07866 0.489525 0)
(1.08697 0.579945 -1.00922e-19)
(0.853371 0.39925 -8.50409e-19)
(0.855824 0.387721 -1.05101e-18)
(0.794573 0.386603 6.63224e-19)
(0.798238 0.359414 -6.77276e-19)
(0.845724 0.320793 -5.3119e-19)
(0.79481 0.319697 6.51264e-19)
(1.02666 0.00585289 -4.97832e-19)
(1.02638 0.0060719 1.01297e-18)
(1.02933 4.36573e-05 6.3196e-19)
(1.03353 0.000956611 -7.61138e-19)
(1.03364 0.0089165 0)
(1.03004 0.00958823 -1.23886e-18)
(0.0617685 1.64304 2.26019e-20)
(0.0448572 1.57941 0)
(0.0851473 1.69364 1.35575e-19)
(0.095586 1.67579 -1.19349e-19)
(0.0879353 1.53425 3.20499e-20)
(0.086283 1.5229 0)
(0.010539 1.67865 0)
(-0.00316699 1.48414 1.66513e-21)
(-0.0015562 1.43005 -1.49734e-21)
(-0.00439276 1.5423 5.80394e-21)
(0.00281038 1.87812 1.56304e-21)
(-0.00874029 1.93272 2.59963e-21)
(0.499842 1.36856 -2.76547e-19)
(0.493222 1.37163 3.03686e-19)
(0.451597 1.30172 -3.24474e-20)
(0.438614 1.29362 7.89709e-21)
(0.635488 1.30415 0)
(0.549766 1.39361 1.00863e-19)
(0.565677 1.39938 -9.82274e-20)
(0.463814 1.28897 3.1551e-20)
(0.520382 1.24262 0)
(0.572608 1.20791 0)
(0.656259 2.41819 5.80889e-19)
(0.671006 2.45876 1.26716e-18)
(0.715777 2.46937 -8.72824e-19)
(0.612307 2.44393 -2.02656e-19)
(0.561269 2.53487 2.84454e-19)
(0.509931 2.50883 -7.58649e-19)
(0.978456 2.3792 -5.8048e-19)
(1.01381 2.3917 0)
(0.926088 2.17255 -6.69863e-19)
(1.05488 2.67882 0)
(1.05717 2.66558 0)
(0.605811 2.26549 -1.20603e-19)
(1.0402 3.15801 1.33416e-19)
(0.91117 3.02835 -3.73461e-20)
(0.273727 0.879329 0)
(0.305662 0.730476 -3.1879e-19)
(0.471483 0.688011 -3.21334e-19)
(0.383624 2.01118 0)
(0.464478 2.78211 -5.00519e-20)
(0.419257 2.54538 0)
(0.702887 0.669536 -8.50343e-19)
(0.784102 0.678436 1.14922e-18)
(0.805884 0.622231 -1.13629e-18)
(0.681875 0.632658 -1.09584e-19)
(0.736832 0.58937 -4.51478e-19)
(1.00313 2.75928 -1.01458e-19)
(1.04235 2.81775 -1.64434e-19)
(0.636068 2.13443 6.80719e-19)
(0.591132 1.70365 -4.85355e-19)
(0.697654 1.8985 -4.06819e-19)
(0.989231 2.44277 -1.13847e-19)
(0.995349 2.4352 2.97328e-19)
(0.655938 1.83411 2.81923e-20)
(0.447468 1.32431 1.45496e-19)
)
;

boundaryField
{
    wall-4
    {
        type            noSlip;
    }
    velocity-inlet-5
    {
        type            fixedValue;
        value           uniform (1 0 0);
    }
    velocity-inlet-6
    {
        type            fixedValue;
        value           uniform (0 3 0);
    }
    pressure-outlet-7
    {
        type            zeroGradient;
    }
    wall-8
    {
        type            noSlip;
    }
    frontAndBackPlanes
    {
        type            empty;
    }
}


// ************************************************************************* //
