/*--------------------------------*- C++ -*----------------------------------*\
  =========                 |
  \\      /  F ield         | OpenFOAM: The Open Source CFD Toolbox
   \\    /   O peration     | Website:  https://openfoam.org
    \\  /    A nd           | Version:  9
     \\/     M anipulation  |
\*---------------------------------------------------------------------------*/
FoamFile
{
    format      ascii;
    class       volScalarField;
    location    "44";
    object      p;
}
// * * * * * * * * * * * * * * * * * * * * * * * * * * * * * * * * * * * * * //

dimensions      [0 2 -2 0 0 0 0];

internalField   nonuniform List<scalar> 
918
(
0.568615
1.21764
0.00550359
0.567987
-0.00874646
1.18466
-0.487414
0.719568
0.54877
-0.0833877
-0.0153795
0.545001
1.04532
0.810304
-1.11128
-0.00419905
0.671457
-0.366001
0.547823
-0.0240018
0.75463
0.555348
0.558379
0.548964
0.613927
0.78889
0.926074
0.0207014
0.00421504
0.0023098
-0.0134939
-0.0348132
-0.0260278
1.06831
1.11939
1.14207
0.516933
0.344696
-0.353069
-0.420017
-0.412756
-0.531248
0.713334
0.712746
-0.173891
0.722441
0.728889
0.535922
0.548134
0.549041
0.550107
0.549065
0.550458
0.426253
-0.0863597
-0.118464
-0.0629178
-0.0551405
0.0775511
-0.0176886
-0.0186702
-0.0142548
-0.0165849
0.467256
0.540497
0.537598
0.550244
0.559348
1.15719
1.12912
1.15525
1.0689
1.0854
1.02332
0.995875
0.831808
0.853476
0.794533
0.782357
-1.54824
-2.5091
-0.516354
-0.263104
-0.0170855
0.00117084
0.0161768
0.664368
0.66352
0.673338
0.682946
1.09682
-0.364411
-0.472807
0.547955
0.546755
0.555128
0.555824
0.551838
0.550931
-0.0233419
-0.0223374
-0.0211412
-0.0241382
-0.0249681
0.743665
0.741308
0.549501
0.546517
0.566043
0.587032
0.578726
0.295534
0.617338
0.630637
0.614294
0.779149
0.773696
0.782452
0.899687
0.862423
0.963281
0.986634
0.0165207
0.00248911
-0.00713694
-0.0148999
-0.0126078
0.512841
0.505513
0.532071
0.520308
0.522762
0.260474
0.125558
0.430326
0.455419
-0.267418
-0.327518
-0.417243
-0.441345
-0.55532
0.616078
0.703788
0.701726
-0.190867
-0.116833
-0.246142
-0.0435351
-0.104187
0.526286
0.533224
0.528265
0.543708
0.538199
0.540152
0.552389
0.549468
0.551024
0.488771
0.612357
0.352464
0.317991
-0.225213
-0.136785
-0.227877
-0.0417629
-0.0358671
0.0921215
0.117896
0.0644057
0.0538509
-0.0299284
-0.0212709
-0.0255628
-0.0160585
-0.0190062
0.460162
0.449269
0.479704
0.487071
0.53032
0.531524
0.534962
0.533382
0.946751
0.969147
0.976573
0.950347
-3.50879
-6.30936
0.0653723
0.20366
-0.00356635
-0.0108667
0.00595
-0.00882571
-0.00243051
-0.0035411
0.0133516
0.0114716
0.0177875
0.0196914
0.653718
0.653715
1.01633
1.01821
0.996369
0.947152
0.536074
0.538182
0.543715
0.539579
-0.0195023
-0.021938
-0.0224469
0.7304
0.73747
0.735474
0.258074
0.170573
0.345289
0.373551
0.645576
0.633999
0.643811
0.675723
0.710917
0.994072
1.01223
1.01054
1.01883
1.06289
1.07931
1.04459
0.49273
0.502469
0.497557
0.535246
0.532968
0.533893
0.529466
0.530921
0.528753
-0.0262391
-0.40951
0.504654
0.523093
0.504436
0.510015
0.69568
0.773079
0.684642
0.69412
0.691979
0.0231674
-0.0344201
0.274077
0.240429
0.401083
0.436774
0.416112
0.917903
0.878287
0.928315
0.901855
0.863166
0.889363
-0.361094
-1.87217
-0.984962
0.556762
0.369364
0.45734
0.0351068
0.0162978
0.022936
1.01107
1.08772
0.668171
0.837699
0.844234
0.749097
0.780099
0.835446
0.759205
0.795172
0.831585
0.813342
0.572997
0.516926
0.528003
0.843103
0.89982
0.142768
0.0851125
0.0408268
0.137102
0.193507
0.16802
1.04965
0.955734
1.02775
0.546268
0.546971
0.00679619
0.000663722
0.551151
0.551198
-0.0123483
-0.00056341
0.440247
-0.820662
0.12683
0.53965
0.529802
0.546781
-0.0656648
0.380653
-0.0165118
0.0738548
0.0156338
0.542867
0.477956
0.43809
0.0101407
-0.011604
-0.0197834
-0.194893
0.54394
0.542249
0.546251
0.54722
0.547885
-0.00644881
-0.000812937
-0.00259521
-0.021452
-0.0188799
-0.0233546
0.51116
0.529137
-0.150424
0.546394
0.548519
0.548343
0.541544
0.547199
0.545432
-0.00181474
-0.00962265
-0.0105694
0.241551
0.367342
0.684737
0.776209
0.654033
0.427235
0.189324
0.585388
0.650256
0.553893
0.710167
0.698818
0.716027
0.192325
0.0426006
0.200304
0.141848
0.537512
0.536202
0.528062
0.525093
0.541649
0.539762
0.544312
0.541311
0.544256
0.54565
-0.0240287
-0.0484484
-0.061781
-0.128361
0.336987
0.597221
0.277175
0.307389
0.168289
-0.0107357
-0.0109221
-0.0150272
-0.0208951
0.0276912
0.00060821
0.0680185
0.0686449
0.0372385
0.0110899
0.0191957
0.00624695
0.0105102
0.536109
0.534473
0.540813
0.549616
0.487353
0.491107
0.456701
0.477059
0.46251
0.403025
0.437315
0.412833
0.00141031
0.0140799
0.00327664
-0.00549954
-0.000445833
-0.0159171
-0.0122232
-0.0137018
-0.00565162
-0.0116318
-0.0165124
-0.0231241
-0.154502
-0.2685
1.00238
0.934105
0.143623
0.533131
0.539554
0.536334
0.541161
0.544286
0.545125
0.542865
0.539431
0.529619
0.531289
0.527862
0.528568
-0.0861617
-0.223014
-0.0516844
-0.12243
0.154477
0.636433
0.379126
0.317607
0.311924
0.53678
0.944965
0.736037
0.719403
0.73846
-0.326228
0.0692947
-0.25995
0.35994
0.182054
0.683554
0.733182
0.754769
0.702395
0.654685
-0.095983
0.56788
-0.0468573
0.00217613
0.200038
0.0841358
0.719946
0.682211
0.686272
0.705257
0.723493
0.688483
0.671244
0.665919
0.700731
0.704388
0.511947
0.272685
0.225586
0.187249
0.664765
0.549657
0.605095
0.516813
0.532565
0.535279
0.533879
0.515898
0.523367
0.518981
0.525127
0.528464
0.537364
0.537752
0.533124
0.535283
-0.028893
-0.0318367
-0.00703667
-0.11676
-0.107379
-0.167054
-0.04397
0.0958775
0.0591164
0.252703
0.35883
0.0713828
-0.0428902
-0.013813
0.0220095
0.197413
0.222803
0.10049
0.188032
0.17714
0.16081
0.261945
0.26704
0.000270433
-0.00354548
-0.00390016
-0.00639639
0.0446831
0.117142
0.126962
0.0191709
0.0145946
-0.0115935
-0.013548
0.00394312
-4.56981e-05
0.00276501
0.0390224
-0.0379649
-0.00542254
0.00969617
0.0212346
0.0164184
0.0114653
0.528651
0.53085
0.530504
0.538165
0.55594
0.571922
0.529238
0.509172
0.500126
0.503108
0.47667
0.486819
0.482724
0.496142
0.516583
0.525693
0.523297
0.525962
0.508787
0.510411
0.49741
0.501026
0.476554
0.457727
0.446226
-0.0286867
0.00873668
0.00149258
-0.0261447
0.00360213
-0.009169
0.00788539
0.02451
0.0108435
0.00653911
-0.00295308
-0.0108146
-0.00744836
-0.0590404
0.0242531
-0.167854
-0.202601
-0.271596
0.906016
1.02695
0.828642
0.603787
0.618242
0.859013
0.945778
0.566095
0.752341
0.776233
0.590689
0.858365
0.537932
0.537546
0.535145
0.534623
0.535846
0.00383087
0.106008
0.112796
0.169703
0.285913
0.399258
0.321589
0.197784
0.330504
0.334375
0.630113
0.643706
0.598021
0.620886
0.621515
0.4426
0.518958
0.572327
0.528093
0.577724
0.598827
0.556508
0.587742
0.53746
0.493035
0.48962
0.438683
0.460108
0.436934
0.418702
0.527773
0.50548
0.515828
0.506057
0.525575
0.549605
0.546413
0.578528
0.589609
0.510131
0.467011
0.476931
0.506518
0.467219
0.481742
0.497558
0.237045
0.136755
0.221946
-0.0671076
0.010995
-0.00374363
-0.0509589
-0.00410792
0.28131
-0.414178
-0.388785
-1.02039
0.50857
0.975058
0.671735
0.644908
0.720396
0.700645
0.70544
0.726286
0.731083
0.655268
0.672415
0.675875
0.637616
0.660883
0.683134
0.680207
0.538118
0.40645
0.401014
0.354898
0.226516
0.262834
0.46506
0.386807
0.311782
0.313506
0.47732
0.364046
0.43248
0.470368
0.401741
0.355862
0.561033
0.625772
0.615679
0.590412
0.508609
0.523182
0.547403
0.583154
0.609652
0.641395
0.524799
0.530605
0.531858
0.529391
0.526593
0.529563
0.529708
0.53224
0.533012
0.53595
0.534964
-0.0161828
-0.0043727
-0.0183431
-0.0249722
0.00464622
0.000251629
0.0446877
0.0305691
0.0152913
0.0217632
-0.00465743
-0.00906862
-0.0038069
0.00551608
0.121951
0.13502
0.119075
0.0795377
0.266497
0.39728
0.467858
0.346152
0.239304
0.263299
0.28578
0.0131678
0.0396499
0.0267114
0.0667708
0.0587477
-0.0078898
-0.0121429
-0.0101021
-0.00371497
0.00707649
-0.0123902
-0.018732
-0.00856082
-0.0135485
-0.015786
-0.0202097
0.511374
0.504917
0.506417
0.500449
0.499203
0.513218
0.517457
0.519339
0.524688
0.526785
0.517196
0.522727
0.526381
0.00636469
-0.0168699
-0.0216076
-0.00500659
-0.0103813
-0.00974504
-0.00798545
0.132365
0.0621162
0.0665558
0.0212279
-0.106928
-0.0496057
0.496688
0.495064
0.490369
0.726874
0.577207
0.496247
0.592206
0.697589
0.282847
0.481578
0.314561
0.898175
0.791347
0.937908
0.552378
0.250842
0.40903
0.458875
0.266215
0.338958
0.34084
0.227825
0.260041
0.293597
0.395334
0.272651
0.247683
0.00493032
0.192908
0.309448
0.290329
0.418875
0.481258
0.269171
0.190007
0.144897
0.620961
0.638722
0.655187
0.628288
0.650956
0.587916
0.576185
0.59428
0.603986
0.599804
-0.747743
-0.454835
-1.39948
-0.715038
-0.263444
0.539656
0.503804
0.780249
0.663403
0.722702
0.707061
0.663879
0.630634
0.646678
0.67641
0.36944
0.481582
0.456082
0.461099
0.361613
0.293301
0.595514
0.589504
0.624983
0.648576
0.616682
0.648591
0.522544
0.522209
0.521792
0.51813
0.516435
0.518696
0.0831168
0.0519566
0.0869593
0.0679038
0.0452906
0.0337515
0.0158807
0.00685046
-0.0023075
-0.00338967
0.00845571
0.0142943
0.174734
0.115376
0.0382479
0.0670834
0.00791429
-0.0585413
-0.0767741
0.0242958
0.117542
0.107989
0.414439
0.666455
0.486958
0.655705
0.495052
0.550961
0.480759
0.473658
0.500418
0.387753
0.467068
0.243151
-0.263501
-0.171388
0.796592
0.812851
0.59578
0.413041
0.182351
0.368036
0.561737
0.495524
0.533778
0.60334
0.593796
0.0248818
0.0887728
0.357363
0.584703
0.24326
0.23535
0.22951
0.406755
0.328732
)
;

boundaryField
{
    wall-4
    {
        type            zeroGradient;
    }
    velocity-inlet-5
    {
        type            zeroGradient;
    }
    velocity-inlet-6
    {
        type            zeroGradient;
    }
    pressure-outlet-7
    {
        type            fixedValue;
        value           uniform 0;
    }
    wall-8
    {
        type            zeroGradient;
    }
    frontAndBackPlanes
    {
        type            empty;
    }
}


// ************************************************************************* //
