/*--------------------------------*- C++ -*----------------------------------*\
  =========                 |
  \\      /  F ield         | OpenFOAM: The Open Source CFD Toolbox
   \\    /   O peration     | Website:  https://openfoam.org
    \\  /    A nd           | Version:  9
     \\/     M anipulation  |
\*---------------------------------------------------------------------------*/
FoamFile
{
    format      ascii;
    class       surfaceScalarField;
    location    "44";
    object      phi;
}
// * * * * * * * * * * * * * * * * * * * * * * * * * * * * * * * * * * * * * //

dimensions      [0 3 -1 0 0 0 0];

internalField   nonuniform List<scalar> 
1300
(
3.75095
5.62643
-3.16853
3.75095
-7.66826
5.62643
-4.3721
4.3721
-0.768567
0.768567
1.87641
1.87455
-2.85859
2.85859
-2.33893
2.33893
-2.54788
2.54788
-5.24639
5.24639
-5.06883
5.06883
4.66387
-4.66387
-6.25593
6.25593
-1.10797
1.10797
-3.76483
3.76483
3.16973
-3.16973
-2.22936
2.22936
-0.175357
0.175357
-0.553502
4.30446
3.19745
3.19745
-2.01639
2.01639
-4.86515
4.86515
6.21798
-6.21798
5.15188
-5.15188
-1.98335
-2.33965
1.78972
-11.581
-5.87855
-5.87855
-8.44038
8.44038
-2.81395
2.81248
2.94465
-2.94465
-1.78304
1.78304
-4.30569
-0.0664132
-4.30569
4.36793
0.00417184
4.36793
-0.853453
0.0848858
-0.853453
3.89222
-3.89222
0.650638
0.117929
0.650638
3.06505
-3.06505
-1.8771
3.75351
1.87385
-1.87187
6.17633
-1.87908
3.75363
-5.98924
5.98924
-3.0805
0.22191
-3.0805
2.6753
0.18329
2.6753
-6.8214
6.8214
-2.38946
0.0505281
-2.38946
2.27997
0.0589632
2.27997
2.87321
-2.87321
-2.65298
0.105101
-2.65298
2.43347
0.114415
2.43347
0.353532
5.2729
-5.97996
8.79244
-5.2729
0.0265046
5.20833
0.0380665
5.20833
-5.10602
0.0371952
-5.10602
5.01255
0.0562724
5.01255
4.75424
-0.0903666
4.75424
-4.77914
0.11527
-4.77914
-3.4229
-4.08092
-6.41367
0.157737
-6.41367
-1.13602
0.0280499
-1.13602
1.05527
0.0526985
1.05527
-3.64874
3.64874
-4.15717
0.392342
-4.15717
3.12414
0.0455892
3.12414
1.8685
1.88245
5.61945
-5.61945
2.44972
-2.19889
-0.0304674
-2.19889
-2.24682
-2.90505
2.24682
-0.0174674
-0.411675
0.236318
-0.411675
3.15934
0.038111
3.15934
2.27346
0.16001
-2.27346
0.257066
3.24753
-3.24753
1.35325
0.663136
1.35325
-5.5661
5.5661
4.95474
0.0578145
-4.95474
0.0895946
6.15667
0.0613052
6.15667
-6.19956
-0.018418
-6.19956
2.65424
-4.99389
-2.54573
6.06515
0.190778
-6.06515
0.186605
2.91556
0.0290933
2.91556
-2.92025
2.92025
-2.98378
0.0391243
-2.98378
-2.18364
0.400601
-2.18364
1.48199
0.301052
1.48199
-4.17579
-0.129899
-4.17579
-4.28513
0.127964
4.28513
0.0827956
1.10508
-1.10508
-0.954915
0.101462
-0.954915
-4.02031
-0.155484
4.02031
-0.128087
-3.79185
-0.100363
-3.79185
-3.02395
0.0401788
3.02395
0.0410966
3.11271
0.0466327
-3.11271
0.0476564
-1.87083
3.75328
-1.88013
3.75398
-5.60693
-0.382317
-5.60693
6.30049
-0.311241
6.30049
3.43877
0.32606
-3.43877
0.35827
2.5453
0.129991
2.5453
-6.78399
-0.0374093
-6.78399
6.80698
0.0144204
6.80698
2.45107
0.0942381
-2.45107
0.0616065
2.23254
0.0474307
2.23254
2.8904
-0.0171864
2.8904
-2.8697
-0.00351178
-2.8697
2.79799
-2.79799
2.72935
0.0686323
-2.72935
0.0763719
-11.1329
11.1145
-0.035043
-11.0978
5.17328
5.17328
4.18439
0.569847
4.18439
-4.99534
0.216196
-4.99534
2.76753
-5.31326
3.06741
-6.49031
4.69513
-16.2761
4.32843
-8.40935
6.665
-6.665
6.54986
0.115143
-6.54986
0.136193
-1.20878
0.0727598
-1.20878
-3.04366
-0.605088
-3.04366
4.29696
-0.648213
4.29696
-3.02864
3.02864
-3.07775
0.0491184
3.07775
0.0463871
2.18578
0.0467567
-2.18578
-0.013108
0.531095
0.119543
-0.531095
0.11942
3.44762
-0.200085
3.44762
-3.05686
-0.190677
-3.05686
-1.28222
0.073437
1.28222
0.0710375
-5.81402
0.247928
-5.81402
-11.1908
0.0930094
-11.1528
-6.10655
-6.10655
2.33383
11.1263
-2.88954
0.0198428
2.88954
0.0260151
2.97562
0.0530113
-2.97562
0.0553777
-2.86151
0.063528
2.86151
0.0587334
-2.55994
0.3763
-2.55994
-1.07174
1.07174
-1.24444
0.172708
1.24444
0.237545
1.36803
-0.262951
1.36803
1.01315
0.0421174
-1.01315
0.0582397
-3.71051
-0.0813456
-3.71051
6.5352
-0.234717
6.5352
-2.94831
-0.108546
2.94831
-0.0579107
-0.0333526
11.1478
-5.13993
0.0339088
5.13993
-11.2091
11.243
-3.23256
0.672624
3.23256
0.951827
5.28752
0.278573
-5.28752
0.292185
6.75479
0.0521875
-6.75479
0.0897904
-2.55168
-0.491971
-2.55168
-5.0238
-0.583127
5.0238
-0.726844
-11.4742
-0.204971
11.6791
-11.4179
6.01899
0.13768
-6.01899
11.3807
-1.01705
-0.0880203
1.01705
0.0546803
1.69249
-0.324467
1.69249
3.62729
-0.179678
-3.62729
-0.0832146
-6.68964
-0.0943482
6.68964
-0.154441
-2.10811
-0.44357
2.10811
-0.415621
-4.26703
4.30514
1.9093
-2.48417
-2.50972
-5.38922
1.85191
1.90137
4.30164
-10.2109
-6.06524
-10.0243
7.26462
-6.97243
-9.26324
9.17288
7.75343
-7.8538
-5.78515
5.83154
6.48242
-6.44132
1.87878
1.87473
7.94355
-7.72164
-15.6353
15.2529
7.47627
-7.42575
15.7916
-15.829
-17.8938
17.9459
-5.70666
5.81177
-6.73036
6.72685
-6.95632
6.89841
-2.879
-3.61132
13.1877
-13.03
8.41892
-8.44939
-8.55192
8.94426
3.38249
0.922646
3.42912
-1.88226
3.76104
-1.87137
3.78067
2.67773
-5.55673
2.63553
-5.14525
4.20752
4.2114
-4.19006
-1.19916
-5.92167
5.95076
-5.81857
5.8773
8.99836
-9.06477
-1.88513
3.75986
-1.86885
3.77021
-3.42507
-2.36008
3.37948
0.922157
8.1104
5.0773
-8.30117
-1.7231
-7.97074
7.79106
-8.19376
8.00308
-0.437749
5.81837
-5.38062
4.4274
-1.55985
7.37821
5.70477
5.92097
5.86647
-5.5879
1.10596
-6.48658
-6.39699
-2.43311
2.53457
2.37871
-2.26078
6.02892
1.72452
5.90083
-5.69012
-2.16368
-5.77147
3.82096
2.01058
3.87008
4.07755
2.40486
4.11773
3.03069
-3.03571
0.00502178
-3.05644
6.08713
0.72415
-5.41652
-4.49436
4.96131
2.98224
5.1446
-5.50663
-2.215
-5.14836
-9.54685
-6.0884
-10.13
10.0961
5.15679
9.78491
-11.9707
11.8163
4.76614
2.71013
4.82511
-4.90966
-2.51609
-4.84805
11.6231
-2.61458
-9.00851
-10.3393
-7.5545
10.3248
5.46672
10.9956
6.95038
11.0854
4.43435
7.18874
-9.90107
2.34658
-3.86372
-1.84294
-3.78735
3.67769
2.13408
3.7921
-4.21447
-2.51589
-4.19463
-4.28962
-2.6667
4.30681
2.42004
-4.40553
-3.78823
4.51408
2.38433
4.06099
-10.1262
4.34836
-7.95967
-9.24288
-3.78708
-9.10669
3.4774
2.62983
-6.10723
-2.07933
8.42375
-4.21235
7.22458
-5.13692
-3.31247
-5.15003
-6.81681
-1.73511
-6.68884
-8.8888
8.39683
-9.1871
8.53888
12.6016
-5.67357
-6.92801
-3.96825
-2.47307
3.9206
-0.491473
-3.71091
3.71593
0.0501315
3.8308
4.75345
4.26198
-3.88612
-1.93245
-3.83074
3.82953
2.04777
3.89306
6.77498
2.22338
6.77915
-6.48882
-2.57595
-6.61872
9.07078
-8.67018
2.89738
-2.82395
5.35289
2.65019
-5.1528
-2.81794
6.202
-3.19011
-3.01189
-12.2031
10.5482
1.65491
-4.82487
-0.397471
-0.222114
-5.49538
-3.76786
5.38011
0.540856
11.089
7.32117
-5.5133
5.76123
6.16584
6.22365
-0.173332
5.83005
-5.15743
5.32806
-2.5147
-2.81336
5.35938
-5.51487
-1.25934
-5.42394
4.1646
0.385966
1.65766
-1.42134
-1.88985
-0.543264
-1.83161
1.43104
0.947668
1.55058
0.925326
1.60925
-2.942
0.566645
2.37535
-2.01667
-1.69413
-3.70884
-1.1285
4.83734
5.67088
2.12018
-5.58766
-0.183802
2.60986
-2.55716
-0.72014
-2.9887
2.19995
-2.92009
-3.6734
-1.95139
5.62479
-3.37039
-0.460346
3.31738
0.552697
-3.82632
-2.09535
3.78719
0.330542
-3.12618
6.19046
-3.06428
-5.05863
2.52827
3.55886
4.53884
-4.78977
2.44684
2.34293
-1.23091
4.24406
0.900537
4.37405
-6.82994
4.61494
5.76807
3.17619
-6.09413
0.945762
-5.88418
8.49877
-7.31197
-1.1868
4.11041
4.38836
7.11155
5.49002
-5.70402
12.8156
-1.16119
-6.15078
7.04536
-3.86917
4.79366
-8.66283
-10.2837
4.1329
-9.15928
10.9394
-1.78012
-3.6274
-8.34333
12.7867
-1.20686
-11.5798
8.57805
-4.1824
-4.27969
8.46209
-6.79698
6.79578
-1.96307
-4.83271
-10.1177
-5.71128
10.212
1.60426
-9.85645
12.203
-2.66772
4.09251
0.7326
4.13994
3.25125
-5.42739
2.17614
3.54573
-5.5088
2.06811
-7.49551
-6.75728
12.1019
-5.34459
-10.5444
-9.55351
-0.990851
2.54415
9.65888
-9.49453
7.4597
2.03484
3.30687
0.586194
-3.3755
-0.411852
0.239781
4.53679
-4.77657
4.03188
4.19189
3.32412
1.21266
3.84243
2.10833
-3.86845
-0.326183
-4.15628
1.48959
-1.73624
-3.6806
5.17019
-4.06598
0.38538
-2.74006
-3.50564
6.24569
-4.583
3.03812
3.15235
5.08589
-4.91244
1.4068
-2.39745
-2.51499
2.65918
-4.39542
1.97912
3.19107
4.36345
0.575224
5.89289
6.20899
-8.52272
0.563045
11.2863
-9.56318
2.47191
8.61345
-9.9316
0.378096
-8.72859
1.00369
-5.21604
-5.10354
5.12089
-6.85599
-3.54195
6.16806
0.611092
-6.25086
-0.437987
-6.03912
-2.84967
-6.4827
-3.04986
-6.13724
-8.75388
-1.6545
-7.09938
6.74232
-6.68511
-3.44487
7.41195
1.12693
-7.41963
7.33161
-7.49735
7.17288
0.0950642
3.62086
4.35704
1.88397
-2.38995
4.27392
-5.11611
7.33949
-8.65258
3.53646
4.10753
-6.68348
-4.54505
5.03776
4.03301
5.33882
8.92997
-10.4276
1.49767
-10.7303
12.0572
-1.32693
-16.5092
5.77884
-7.57919
2.55416
0.343223
2.62692
0.589349
2.4932
-3.08254
-2.2346
-2.16356
-2.39435
-3.46064
5.85498
1.13288
-3.4704
2.33752
-3.55172
4.6846
-0.142926
-3.32747
5.30065
-2.80746
5.64388
-3.69464
1.94923
3.39455
5.72182
-2.32727
4.39073
-1.74054
1.88784
-4.21511
-1.5728
-2.9647
5.09878
-3.28099
3.66637
-0.322215
3.98859
-4.08116
0.891046
-0.757036
3.43486
3.69192
4.29403
-3.08137
2.93297
-4.67351
-1.28214
-4.09829
-0.907216
-0.28741
-3.75938
4.04679
6.02957
-6.31698
-5.2523
9.56014
-4.30784
7.71613
-5.39736
-2.31877
-4.26984
-4.40034
3.89354
1.93651
9.65264
0.211375
-5.60873
-4.94605
-3.99422
3.18625
2.14181
-1.87741
3.53232
2.09953
-0.441867
0.510802
1.03978
1.83305
-1.32225
0.262142
1.57091
-1.1592
1.87884
0.73102
-1.92096
0.0893501
-1.30733
3.50727
1.06803
-2.0157
0.693443
1.01401
-3.52871
4.94785
-2.60652
-2.34133
5.96186
1.14274
-3.74927
4.2812
-3.89523
2.34108
-3.46958
-1.40818
-5.30341
-3.5789
-2.54256
4.88008
-3.31242
5.4326
1.20668
-5.2488
6.45548
-3.64908
1.69769
-3.08255
3.81358
-1.03551
-2.04704
2.86753
2.75727
-2.98812
-0.000582953
-0.120594
2.36565
-2.48624
-0.554442
-2.57112
-4.57229
4.90283
-2.1065
4.55334
2.16742
-1.9155
6.46884
1.81036
-3.72586
-3.24827
-3.70861
-1.38293
3.15591
-0.595013
-4.25304
-5.42772
4.1588
0.215249
-6.94555
7.75262
-0.807068
-3.96331
-0.651624
4.76203
-5.98905
0.480251
-3.92094
3.83168
4.73222
4.94747
-11.3735
-0.206344
-6.21669
1.13865
-7.35533
5.527
-3.57686
7.70976
-10.3656
6.92077
-9.23871
6.52296
-0.832368
6.24342
-4.06728
2.76509
-8.47637
-6.87211
5.42999
-2.71986
6.16259
-3.07452
9.23711
-5.74223
5.1862
4.0509
-0.982111
-4.16791
-5.20498
4.22287
-0.01878
4.12116
4.97684
-2.86851
4.65066
2.26066
-4.6581
-2.13477
-6.49586
1.83776
-3.34352
-1.91794
3.7557
3.16794
3.75414
1.24071
-3.34229
7.17739
-8.16824
-1.83279
-3.27074
5.17917
-0.956301
3.34934
-6.62008
-1.8667
4.84497
-0.804906
-4.04006
0.828596
-4.37054
1.67594
-6.04648
5.18005
-5.61804
2.21759
-9.79678
-5.20204
-5.14736
-2.25638
-5.24097
-7.60653
5.35015
-1.82769
5.50392
-8.56642
7.76151
-3.49083
8.84098
-5.43412
-1.04858
5.84974
1.32314
10.1641
0.18106
-4.72611
-1.90313
3.94366
-2.04054
1.28313
-3.57832
0.365337
2.48068
3.48118
-6.64528
-0.0381965
-4.7643
-3.92534
7.95836
5.63479
11.6644
1.23672
9.14818
-1.18983
10.3849
4.14899
4.38654
-3.02834
4.52602
1.01845
4.55491
-0.879002
2.82823
1.74792
1.77597
0.781193
2.311
1.38093
3.20204
0.119497
-2.04406
4.63256
-8.62679
-0.97617
-8.05694
1.11594
5.72079
-4.60485
3.08346
-0.941649
1.04292
0.0231698
-1.50688
1.48371
-2.79019
-1.94875
-0.377837
-1.65179
2.34523
1.85549
-1.96739
-0.822798
0.370573
-3.94947
3.09901
-3.09959
-0.342327
6.11315
-2.78152
0.295279
-1.08382
-2.27584
-2.8191
2.72975
6.17666
0.292179
3.11238
5.19501
3.09965
0.231142
3.89718
-5.6773
-3.59832
-5.88364
-0.356641
4.40539
1.71101
7.94787
5.76191
4.80561
-1.81447
-9.98271
6.55872
-2.03271
5.2318
-1.19173
-4.85475
5.01789
2.3216
-5.62898
0.0109385
-4.84381
-6.87652
-0.523795
8.28531
-9.64033
8.59175
5.74207
1.3573
-4.41573
-0.731635
4.24302
0.143517
10.5284
-1.12563
-6.7907
7.91633
-4.59516
3.61899
0.806442
2.72588
2.29016
1.34851
-5.4422
-10.047
-1.98647
-1.54224
-4.32779
0.509549
-2.36503
6.24583
-2.62684
3.92706
5.28949
6.33242
-2.14945
-4.16753
6.45728
-2.53023
3.80219
)
;

boundaryField
{
    wall-4
    {
        type            calculated;
        value           uniform 0;
    }
    velocity-inlet-5
    {
        type            calculated;
        value           uniform -3.75095;
    }
    velocity-inlet-6
    {
        type            calculated;
        value           uniform -5.62643;
    }
    pressure-outlet-7
    {
        type            calculated;
        value           nonuniform List<scalar> 8(3.16853 7.66826 4.323 9.79127 7.50382 5.19997 5.83494 9.02355);
    }
    wall-8
    {
        type            calculated;
        value           uniform 0;
    }
    frontAndBackPlanes
    {
        type            empty;
        value           nonuniform List<scalar> 0();
    }
}


// ************************************************************************* //
