/*--------------------------------*- C++ -*----------------------------------*\
  =========                 |
  \\      /  F ield         | OpenFOAM: The Open Source CFD Toolbox
   \\    /   O peration     | Website:  https://openfoam.org
    \\  /    A nd           | Version:  9
     \\/     M anipulation  |
\*---------------------------------------------------------------------------*/
FoamFile
{
    format      ascii;
    class       volVectorField;
    location    "44";
    object      U;
}
// * * * * * * * * * * * * * * * * * * * * * * * * * * * * * * * * * * * * * //

dimensions      [0 1 -1 0 0 0 0];

internalField   nonuniform List<vector> 
918
(
(0.985163 -0.000503165 0)
(0.0050108 2.96625 0)
(0.0078535 0.844526 0)
(0.979703 0.00214799 0)
(-0.0144311 2.04398 3.14839e-20)
(-0.00704484 2.94879 -2.53766e-18)
(0.818703 1.15687 4.29388e-19)
(0.250267 0.120768 -1.59893e-20)
(0.999907 -0.000283472 0)
(0.0608619 0.801388 0)
(0.0129813 0.611349 0)
(0.734788 -0.0165845 0)
(0.0111394 2.93032 0)
(0.00255818 2.79517 0)
(-0.0175609 3.15454 7.66e-19)
(-0.0186256 1.90172 1.44067e-21)
(0.316282 0.0327221 1.04917e-18)
(0.189314 1.16891 3.00243e-19)
(0.962767 0.00501882 0)
(-0.0136743 0.561306 0)
(0.0480522 0.16229 -7.57416e-19)
(1.00198 -0.00497979 0)
(1.00022 -0.00979083 0)
(0.975728 -0.00643997 0)
(0.584013 -0.038413 0)
(0.015784 2.6395 0)
(-0.0149049 2.91004 9.38184e-19)
(0.00872537 0.91469 0)
(0.00399448 1.15254 0)
(0.00578291 0.890013 0)
(-0.0178977 2.61075 0)
(-0.00368973 2.09851 -2.5135e-20)
(-0.00932951 1.86851 0)
(-0.0206 2.9876 -9.14232e-23)
(-0.0166881 3.00529 1.97218e-18)
(0.00210265 3.00018 0)
(0.870844 -0.00953007 0)
(0.404791 0.938385 1.87196e-19)
(0.797039 1.17458 -4.76446e-19)
(0.94271 1.01288 5.20068e-19)
(0.66894 1.26722 -9.8819e-20)
(0.669194 1.2523 5.71343e-19)
(0.288616 0.195296 1.5599e-20)
(0.264528 0.0932332 0)
(1.13087 0.548451 0)
(0.25535 0.18739 7.12744e-20)
(0.221175 0.120757 -7.39608e-20)
(0.919801 -0.00744894 0)
(1.00027 0.000154853 0)
(0.999909 0.000336759 0)
(1.00363 -0.00776837 0)
(1.00096 -0.000924698 0)
(1.00017 3.0775e-05 0)
(0.0767739 1.81467 -8.15358e-19)
(0.0300036 0.983168 0)
(0.0970291 0.867449 0)
(0.0131276 0.934568 0)
(0.0356271 0.736667 0)
(0.0147981 2.00219 0)
(0.00840081 0.834203 0)
(0.00907306 0.630451 0)
(0.0108637 0.821115 0)
(0.0183761 0.591554 0)
(0.839048 -0.0157994 0)
(0.845756 0.0295757 0)
(0.767708 -0.00520338 0)
(0.815492 0.0391493 0)
(0.703897 -0.0190285 0)
(0.0146895 3.00041 9.41639e-19)
(0.0115013 3.00805 0)
(0.00611055 3.00277 0)
(0.0135547 2.99737 1.06989e-23)
(0.00796368 2.95846 -1.39951e-18)
(0.0144974 2.98199 0)
(0.0108659 2.90357 0)
(0.024431 2.9305 2.16399e-24)
(0.00456143 2.82525 0)
(0.031045 2.91635 0)
(-0.00516024 2.74548 0)
(0.308174 3.55107 0)
(-0.131769 3.63249 0)
(0.139467 3.24496 -7.12846e-19)
(-0.0128577 2.98077 0)
(-0.0202039 2.00126 0)
(-0.00868163 2.16126 -1.4209e-21)
(-0.010249 1.90394 -1.55083e-20)
(0.417648 0.142917 -3.63135e-19)
(0.321528 0.0178648 -3.50727e-19)
(0.39566 0.154984 -1.09323e-18)
(0.299582 0.0456789 -7.20219e-19)
(0.223733 0.964839 0)
(0.271034 1.315 -3.58955e-19)
(0.366914 1.24984 5.99548e-19)
(0.987473 0.00855572 0)
(0.941916 0.00583647 0)
(1.0003 0.000578368 0)
(1.00286 0.00930588 0)
(1.00302 0.00846158 -2.80274e-18)
(0.991913 0.00969968 2.11654e-18)
(-0.010644 0.801201 0)
(-0.00383339 0.555891 0)
(-0.0196061 0.969423 0)
(-0.00464765 0.818742 0)
(-0.00600642 0.553245 0)
(0.0783841 0.164521 2.34055e-19)
(0.137507 0.1403 0)
(0.993541 -0.00837918 0)
(0.954429 -0.00652139 0)
(0.762032 0.0464941 0)
(0.697689 0.0570813 0)
(0.664141 -0.0312367 0)
(0.963576 -0.00821997 0)
(0.614239 0.0762293 0)
(0.444697 -0.0108876 1.55961e-18)
(-0.0366996 2.86321 7.04794e-19)
(0.0414026 2.90984 0)
(0.0543531 2.88527 0)
(-0.0043619 2.69976 0)
(-0.0131293 2.98514 8.90197e-19)
(-0.017973 2.89508 0)
(-0.0154416 2.98805 -2.75647e-18)
(-0.0132828 2.92518 9.43267e-19)
(0.0126954 1.34903 0)
(0.0304848 1.38635 0)
(-0.00849284 2.11952 2.64077e-22)
(-0.00661299 2.08067 0)
(-0.0194742 1.88381 0)
(0.938118 -0.00759115 0)
(0.856625 -0.00977338 0)
(0.863356 0.00613448 0)
(0.949299 -0.008003 0)
(0.883738 -0.00810972 0)
(0.516942 1.13199 -2.36085e-19)
(0.566295 1.18334 0)
(0.368686 0.88281 3.4676e-20)
(0.310833 0.741749 0)
(0.90275 1.05208 -1.42156e-19)
(1.01313 0.85533 2.83501e-19)
(0.359974 1.36405 0)
(0.524813 1.32917 0)
(0.54279 1.28088 0)
(0.116729 0.181577 -3.0405e-19)
(0.321472 0.187585 0)
(0.287859 0.0866498 2.03671e-19)
(0.984991 0.911356 0)
(1.05405 0.763483 0)
(1.07741 0.703716 -2.16263e-19)
(1.11195 0.608579 0)
(1.16421 0.395305 5.52806e-20)
(0.957582 -0.00883006 0)
(0.962411 -0.0100894 0)
(0.90156 -0.00794627 0)
(0.984177 -0.0091669 0)
(0.974659 -0.00936781 0)
(0.937075 -0.00636604 0)
(1.00019 0.00233663 0)
(1.0009 0.00140772 0)
(0.99991 0.00085273 0)
(0.035262 2.0663 4.50094e-19)
(0.120374 1.75686 0)
(0.0167934 2.18162 7.01411e-19)
(0.0505656 1.86925 -5.91907e-19)
(0.104707 1.17709 -2.45465e-19)
(0.0447779 1.06278 0)
(0.143731 1.01867 0)
(0.00466244 0.894667 0)
(0.016059 0.685683 0)
(-0.00203298 2.23693 -1.16883e-21)
(0.0235329 2.00759 0)
(-0.00267578 2.24029 -5.15051e-20)
(0.0169444 2.01112 9.003e-20)
(0.00586977 0.868587 0)
(0.00610513 0.847935 0)
(0.00615232 0.653843 0)
(0.00153842 0.802577 0)
(0.00153501 0.578461 0)
(0.936171 0.00918236 0)
(0.846893 -0.0152593 0)
(0.925985 -4.27533e-05 0)
(0.840769 -0.012863 0)
(0.811992 0.000693674 0)
(0.901081 0.0202275 0)
(0.876817 0.0247508 0)
(0.788791 -0.00163496 0)
(0.00562099 3.06471 -8.81938e-21)
(0.0165719 3.05782 0)
(0.0146172 2.96905 0)
(0.00859937 2.87625 0)
(0.925106 3.96728 0)
(1.23961 3.30008 9.30064e-19)
(0.0697898 3.07303 0)
(-0.0287986 2.90482 0)
(0.00820616 1.40403 0)
(-0.0232211 1.71056 0)
(0.00246063 1.55507 0)
(-0.0301748 2.5688 -9.30151e-21)
(-0.0132498 2.26031 0)
(-0.0200414 2.40573 0)
(0.0093852 1.93456 2.11162e-21)
(-0.00417432 2.23677 1.09431e-20)
(-0.00444122 2.1943 1.56042e-20)
(-0.00202532 1.91721 0)
(0.450518 0.12301 5.48267e-19)
(0.357383 0.0079669 -5.38325e-19)
(0.259902 1.5776 0)
(0.272168 0.739404 -3.18646e-19)
(0.177247 1.66328 -1.06762e-18)
(0.227215 1.20548 1.07019e-18)
(0.902185 0.00646787 0)
(0.967478 0.0110721 0)
(0.974603 0.0107874 0)
(0.923411 0.0064728 0)
(-0.000436237 0.789951 0)
(-0.01456 0.791275 0)
(0.0007175 0.560433 0)
(0.219198 0.181026 6.5736e-19)
(0.183323 0.167431 -7.78342e-19)
(0.184893 0.128589 0)
(1.08789 0.0832043 2.89688e-20)
(1.07049 0.0377606 0)
(1.00559 0.0387041 0)
(0.901505 -0.0068646 0)
(0.4874 0.105007 0)
(0.535791 0.087259 -2.49364e-18)
(0.396446 0.00514743 9.33636e-19)
(0.00897235 2.9807 7.51853e-19)
(-0.0331653 2.86538 4.5588e-20)
(0.00368114 3.05025 -1.86465e-20)
(0.0201426 3.04337 6.62984e-19)
(-0.0149891 2.99656 3.09521e-20)
(-0.0129768 2.94946 -1.24455e-22)
(-0.0172846 3.01193 -5.71616e-19)
(0.0149027 3.02372 4.13967e-19)
(0.00740286 3.03689 -6.56916e-19)
(0.932938 -0.00165549 0)
(0.93876 -0.00353107 0)
(0.844719 -0.00929644 0)
(0.956677 0.0117972 0)
(0.942945 0.0130534 0)
(0.881735 0.00601803 0)
(0.917798 0.0165878 0)
(0.926366 0.0147909 0)
(0.83856 0.0033684 0)
(0.720164 1.41034 3.36611e-20)
(0.753611 1.51935 0)
(0.186902 0.325465 7.25492e-20)
(0.22054 0.660985 5.86374e-19)
(0.26073 0.720797 -3.41335e-19)
(0.26565 0.533958 6.78556e-19)
(0.33815 0.793571 1.59888e-18)
(0.135481 0.222775 3.76207e-19)
(0.369496 0.173221 7.6401e-19)
(0.348362 0.18357 1.99195e-19)
(0.295195 0.0660519 3.79842e-19)
(1.15434 0.453218 3.58404e-20)
(1.17382 0.250628 3.07925e-20)
(0.00804009 2.22962 2.75186e-19)
(0.0465875 1.93784 0)
(0.965891 0.0284622 0)
(0.939931 0.0132397 0)
(0.86465 -0.0185273 0)
(0.0113524 3.07455 0)
(0.0198116 2.94407 1.21862e-18)
(0.0164383 2.95642 0)
(0.00626335 2.85061 -1.20909e-18)
(0.00618188 3.09107 2.96257e-19)
(0.00713652 3.08227 0)
(0.786654 1.82185 -1.58434e-19)
(1.24741 2.49952 4.02962e-19)
(0.768789 1.9615 -1.23334e-18)
(0.0201587 2.98173 -6.51246e-19)
(0.0355761 3.00136 0)
(-0.0339412 2.87849 0)
(-0.00578321 2.21821 -1.32193e-20)
(-0.00657718 2.24042 -3.00965e-20)
(0.0119806 1.97078 -8.1133e-21)
(0.276614 1.38548 1.03642e-18)
(0.230907 0.52752 -7.10885e-19)
(0.0636768 1.99061 7.8526e-19)
(0.136253 1.87863 -9.31449e-19)
(0.179747 1.4978 9.22191e-20)
(0.00236224 3.11914 -1.85008e-18)
(0.0129964 3.11906 2.00828e-18)
(-0.00894241 2.98113 8.20554e-19)
(-0.00415854 2.97755 -7.76518e-19)
(-0.0211355 2.88101 -8.35719e-19)
(0.0085863 3.10025 -2.20643e-18)
(0.00221831 3.10496 2.18205e-18)
(0.274649 0.684826 0)
(0.239941 0.675035 -1.20856e-18)
(0.096203 0.22391 5.35941e-19)
(0.35247 0.91947 1.11746e-18)
(0.190809 0.267675 -1.72284e-18)
(1.17011 0.170596 7.2388e-20)
(1.17448 0.304294 0)
(1.15879 0.119554 -1.81219e-20)
(-0.00136575 2.24834 -1.83835e-21)
(0.00209434 2.23926 0)
(0.0322603 1.97323 0)
(0.340065 1.29367 -3.72944e-19)
(0.370503 1.13156 -8.06296e-19)
(0.204655 0.366988 1.43576e-18)
(1.00587 -0.0108565 0)
(1.00766 -0.00764959 5.17251e-19)
(0.0105344 1.32254 0)
(-0.0126411 1.29668 0)
(1.00222 0.00350379 1.80414e-21)
(1.00366 0.00944823 1.05572e-18)
(-0.020446 2.55259 1.1783e-20)
(-0.026334 2.59457 0)
(0.0353543 3.17834 4.36894e-19)
(0.394966 3.49017 0)
(1.16182 0.647075 -6.94558e-20)
(1.01292 0.0130806 -2.15164e-21)
(1.02126 -0.0103795 0)
(1.0017 0.000116022 7.6182e-23)
(0.102709 1.35964 0)
(0.145236 2.57379 0)
(0.0214311 1.3007 0)
(0.00156948 2.62651 5.08992e-20)
(-0.0195176 2.58558 2.11038e-20)
(1.0011 0.0288245 2.46108e-21)
(1.06192 0.00367468 0)
(1.09498 0.0234368 0)
(-0.0223528 1.7429 0)
(-0.0215576 2.59424 0)
(-0.00151336 1.28999 0)
(0.295489 1.47161 -1.5303e-19)
(1.01127 -0.00964676 0)
(1.00939 -0.0149312 0)
(1.00238 0.00073561 6.61074e-19)
(1.00547 -0.00482306 -7.76853e-19)
(1.00118 -0.000998668 0)
(-0.00519962 1.46222 0)
(0.00189124 1.36722 0)
(0.009527 1.42319 0)
(-0.00211829 1.27748 0)
(-0.00442127 1.25554 0)
(-0.00540208 1.23002 0)
(1.03465 -0.00635218 0)
(1.02036 0.0157041 -9.08462e-22)
(0.801314 1.26555 2.42048e-19)
(1.00222 0.000306551 -6.5806e-19)
(1.00407 0.00524671 7.70704e-19)
(1.00117 0.0020661 0)
(1.01278 0.0103061 6.55301e-19)
(1.00801 0.0082942 -7.93747e-19)
(1.00858 0.0146906 0)
(-0.0259771 2.62204 0)
(-0.02737 2.6019 -1.09338e-20)
(-0.0259304 2.61504 8.0838e-21)
(1.229 0.260222 6.26401e-19)
(1.15682 0.0841385 0)
(0.042679 3.07724 -9.6185e-19)
(0.0652759 2.85405 -6.99384e-20)
(0.141191 3.19257 1.47076e-18)
(0.135924 3.22147 -2.16401e-19)
(0.134543 3.2335 0)
(0.0199491 3.13767 2.49147e-19)
(0.0761031 3.16004 9.49019e-19)
(0.0685448 3.18614 -4.69291e-19)
(0.0227906 3.12939 0)
(0.628313 0.283437 0)
(0.557978 0.332114 0)
(1.12845 0.683599 1.6809e-19)
(1.12331 0.807815 -1.63783e-19)
(1.18849 0.570522 0)
(1.21891 0.506562 0)
(1.01613 0.0133028 -1.22171e-18)
(1.01499 0.0142449 1.5335e-18)
(1.02524 -0.0099126 0)
(1.02332 -0.0118929 0)
(1.00643 0.00256986 0)
(1.01041 0.00369775 0)
(1.00458 0.0018276 0)
(1.0098 0.00619796 0)
(1.00785 0.00597031 0)
(1.0045 0.00465935 0)
(0.0910327 1.35682 0)
(0.0851313 1.32749 0)
(0.122658 1.39298 0)
(0.137256 1.40396 0)
(0.145418 2.59824 0)
(0.185585 2.6659 -4.41774e-19)
(0.101032 2.65436 0)
(0.0866205 2.65747 2.16514e-19)
(0.0407486 2.67974 -1.82585e-19)
(0.0167943 1.31234 0)
(0.0223074 1.23982 0)
(0.0253022 1.32381 0)
(0.0262325 1.26666 0)
(0.00454414 1.98017 -1.80585e-20)
(-0.0184195 2.61326 3.42455e-21)
(-0.00683037 2.66828 4.11771e-20)
(-0.0166739 2.68861 0)
(-0.0219218 2.62062 -4.70453e-20)
(-0.0223259 2.61552 -1.17212e-20)
(0.0140676 1.97932 1.64333e-20)
(-0.0048148 2.39903 -4.59554e-21)
(-0.0111002 2.42049 -4.67028e-20)
(1.01107 0.0366227 1.24559e-18)
(1.00648 0.0162061 -1.53843e-18)
(1.00233 0.0435369 -1.24633e-18)
(0.980007 0.0224109 1.5889e-18)
(1.06317 0.00751614 0)
(1.04858 -0.00862321 0)
(1.0924 0.0332664 0)
(1.07284 0.0117692 0)
(1.07064 -0.000202472 0)
(1.13751 0.0800477 0)
(1.10904 0.0425424 0)
(1.1121 0.030596 0)
(-0.0247126 2.44391 -4.1952e-22)
(-0.0125503 2.01869 0)
(-0.0136969 2.22613 0)
(-0.0227303 2.61453 -3.22342e-21)
(-0.0209918 2.62314 -2.05157e-22)
(0.00585958 1.5695 -1.61398e-20)
(0.00283391 1.49701 1.63985e-20)
(-0.00627346 1.38276 0)
(-0.00847566 1.38939 0)
(-0.0113645 1.38521 0)
(0.00253019 1.29248 0)
(0.00921069 1.23594 0)
(0.377662 1.48714 2.46125e-19)
(0.418 1.49063 1.35624e-19)
(0.597228 2.44833 -2.42198e-19)
(0.401003 2.54257 7.14501e-19)
(0.350442 2.06594 7.58224e-20)
(1.02098 -0.0081916 0)
(1.01546 -0.00978986 0)
(1.01489 -0.0155234 0)
(1.00745 -0.00116519 0)
(1.00494 -0.00094095 0)
(1.00776 -0.00475503 0)
(1.00924 -0.00370073 0)
(1.01417 -0.00446709 0)
(1.02108 0.0161289 1.19624e-18)
(1.01795 0.0157041 -1.53282e-18)
(1.02151 0.0180919 -1.20487e-18)
(1.01936 0.0167805 1.50697e-18)
(0.766664 1.31505 0)
(0.703111 1.36635 2.25536e-19)
(0.877622 1.21216 7.91599e-20)
(0.921067 1.16196 -1.05272e-19)
(1.1579 2.60795 3.00906e-19)
(0.798269 0.114749 6.08364e-19)
(1.16011 0.105265 0)
(1.20634 0.189462 -5.03386e-19)
(1.19075 0.151373 -2.12853e-20)
(1.00458 0.149371 0)
(0.134622 2.96024 5.64566e-19)
(0.111712 2.86588 -1.22e-18)
(0.0217742 2.37393 8.21544e-19)
(0.0905101 -0.044502 -3.66138e-19)
(0.339859 3.41938 -2.0242e-19)
(0.19385 3.31214 0)
(0.237117 3.35392 2.63619e-19)
(0.244371 3.03343 -1.86062e-18)
(0.33915 3.19274 0)
(0.00741639 3.12078 4.83003e-20)
(0.0169867 3.12975 -5.67807e-19)
(0.0155898 3.1258 8.35723e-19)
(0.0358279 3.13966 0)
(0.0341371 3.15062 0)
(1.21599 2.60683 0)
(0.543592 0.83053 -5.41232e-19)
(1.04596 0.984037 9.19288e-21)
(0.980524 1.06533 0)
(0.835431 0.969201 -1.18741e-19)
(1.07187 0.87813 2.85627e-20)
(0.360277 0.380173 -9.42324e-19)
(0.678505 0.312362 -2.09331e-20)
(0.633259 0.223004 4.3337e-19)
(0.579551 0.365936 3.20172e-20)
(0.491403 0.331429 -1.28905e-18)
(0.649895 0.326341 0)
(0.701909 0.416591 7.36207e-19)
(0.710289 0.417502 0)
(0.614108 0.354713 0)
(0.572389 0.27631 0)
(0.808211 0.613076 4.35101e-19)
(1.22936 0.282491 -5.28656e-19)
(1.2278 0.418112 0)
(1.23666 0.358639 0)
(0.72949 0.186664 6.43101e-19)
(0.854976 0.535973 -3.99874e-19)
(0.749969 0.506676 7.08854e-19)
(0.951754 0.42775 -7.78713e-19)
(1.01961 0.0147655 8.22133e-19)
(1.01778 0.0142369 -8.26847e-19)
(1.01593 0.0154951 0)
(1.0361 -0.00589867 0)
(1.02968 -0.00855021 -7.74805e-19)
(1.02771 -0.0120825 7.67129e-19)
(1.02499 0.0100082 0)
(1.02361 0.0136181 0)
(1.01142 0.00408165 0)
(1.01427 0.00902737 0)
(1.01514 0.00399526 0)
(1.01424 0.00277991 0)
(0.0620551 1.34169 0)
(0.06285 1.29744 0)
(0.143423 1.36711 -1.33154e-20)
(0.269879 1.46867 7.79642e-20)
(0.163926 1.4404 1.61703e-19)
(0.19562 1.44742 -2.65245e-19)
(0.165217 1.39104 0)
(0.129608 1.59452 -9.28657e-20)
(0.114147 1.56752 0)
(0.34795 2.01822 -1.10222e-19)
(0.344773 2.35007 6.38452e-19)
(0.186269 1.45143 8.09846e-20)
(0.261544 1.38116 1.55235e-20)
(0.196163 1.371 -1.25584e-20)
(0.271441 1.32311 -1.18181e-19)
(0.238785 1.57699 0)
(0.260573 1.61644 1.24535e-19)
(0.0323611 2.26366 -4.0347e-20)
(0.0439948 2.66831 0)
(0.0660933 2.40059 1.58895e-19)
(0.0620418 2.42101 0)
(0.0703226 2.67026 -2.39781e-19)
(0.0508981 2.69868 0)
(0.0298759 1.41165 3.28854e-21)
(0.0364152 1.46441 0)
(0.0296462 1.38149 0)
(0.0241687 1.38322 -3.71039e-21)
(0.00214032 2.65395 -1.67558e-20)
(0.0311241 2.69738 2.08891e-19)
(0.0124109 2.72341 1.46579e-21)
(0.00707569 1.82737 1.5151e-20)
(-0.000838453 1.67567 6.51545e-21)
(0.0180503 1.29138 0)
(0.0238468 1.22387 0)
(0.0479944 1.57507 8.48415e-21)
(0.0296843 1.44798 2.90818e-21)
(0.0381239 1.51327 -3.5195e-21)
(0.0404784 1.59956 0)
(-0.0295348 2.27703 6.08971e-20)
(-0.0287712 2.56051 -2.42925e-20)
(-0.0169539 2.45559 -4.56475e-22)
(-0.000399731 1.84383 -1.83589e-20)
(-0.0234767 2.50553 -5.53081e-21)
(-0.0192509 2.44671 3.12509e-20)
(1.01944 0.0208698 -8.17001e-19)
(1.01554 0.0265615 8.21253e-19)
(1.01465 0.0162296 0)
(1.01223 0.0700915 1.15348e-18)
(0.990294 0.0589257 -1.29603e-18)
(0.948817 0.0433642 1.45161e-18)
(1.01371 0.107364 -1.53823e-19)
(1.04238 -0.00594548 0)
(1.05052 -0.00174901 7.40091e-19)
(1.03868 -0.0100286 -7.41576e-19)
(1.06984 0.0413735 -4.40947e-20)
(1.06373 0.0225152 3.79709e-19)
(1.0625 0.0542514 0)
(1.05319 0.0480824 -1.36533e-19)
(1.03241 0.0410997 0)
(1.02592 0.0375296 0)
(1.02783 0.0129873 0)
(1.02419 0.0157722 0)
(1.03995 0.031426 2.81087e-19)
(1.03907 0.0261886 -6.20781e-19)
(1.05051 0.0327313 -2.98116e-19)
(1.04829 0.032593 -3.28042e-19)
(1.07008 0.0629467 6.41853e-19)
(1.09491 0.0506047 0)
(1.10299 0.0944174 0)
(-0.0232275 2.28301 3.72678e-20)
(-0.0169917 2.02754 -9.74565e-22)
(-0.0164084 2.03194 0)
(-0.0308537 2.45472 -3.71023e-20)
(-0.0232335 2.41065 1.38662e-21)
(-0.0315266 2.48359 2.93671e-21)
(-0.0206324 2.6302 1.01222e-20)
(-0.0213723 2.57265 -1.26368e-21)
(-0.0201784 2.52222 3.27267e-21)
(-0.017076 2.62559 1.28806e-22)
(-0.0219149 2.62665 1.32346e-21)
(0.00125259 1.48185 -4.79629e-22)
(0.00729792 1.61832 -1.31033e-20)
(0.364031 1.43067 -1.01229e-19)
(0.364064 1.36912 4.90475e-20)
(0.64749 1.41527 -2.18161e-19)
(0.51605 1.48161 -1.32678e-19)
(0.571149 1.45015 0)
(0.592849 2.42472 2.12832e-19)
(0.660788 2.4179 3.41394e-19)
(0.410251 2.51634 8.48901e-20)
(0.402634 2.54401 -6.36794e-19)
(0.511185 2.48881 6.24705e-19)
(0.552236 2.46215 0)
(0.488626 2.51715 -5.69157e-19)
(0.247675 2.59092 1.18482e-18)
(0.353332 2.56474 -8.10071e-20)
(0.283742 2.65239 -1.62803e-18)
(0.944896 2.38128 7.32913e-19)
(0.837001 2.38437 0)
(1.01102 0.000451751 2.68175e-20)
(1.01526 -0.00548058 -2.17686e-20)
(1.01764 -0.00361842 -3.97668e-19)
(1.01495 -0.000947442 3.99602e-19)
(1.01237 0.0010826 0)
(0.635555 1.28535 0)
(0.658124 1.18222 0)
(0.765811 1.09402 0)
(0.65089 1.14579 0)
(1.18719 2.62232 5.8583e-20)
(1.07566 2.3682 0)
(0.83935 2.18477 3.88547e-21)
(0.825922 2.44736 0)
(0.923146 2.53873 -4.30412e-19)
(0.958703 2.49441 2.86468e-19)
(0.814499 0.171926 0)
(0.775235 0.143924 1.65605e-19)
(0.921051 0.143852 9.64334e-19)
(0.837043 0.146336 -3.60335e-19)
(0.803778 0.0836331 -1.11178e-18)
(1.07792 0.232778 -9.28972e-19)
(0.99171 0.290224 -1.58623e-20)
(0.92658 0.290846 8.89969e-19)
(1.00247 0.221173 7.44004e-19)
(0.952452 0.187957 -1.28177e-18)
(0.917126 0.18902 1.60189e-19)
(0.954224 0.253435 -3.42042e-19)
(0.931556 0.215737 0)
(0.992209 0.182877 6.32751e-19)
(1.04385 0.185657 0)
(1.0401 0.211889 0)
(1.10524 0.117125 2.98699e-19)
(1.06733 0.174364 -1.42489e-20)
(1.07261 0.233793 -1.63323e-19)
(1.1037 0.201194 0)
(1.0227 0.0451695 6.34114e-19)
(1.04051 0.0577775 7.90743e-19)
(1.03396 0.0439608 -6.28952e-19)
(1.04327 0.0644977 -5.29866e-19)
(1.01916 0.0723938 -8.11159e-19)
(0.987872 0.156228 0)
(0.999106 0.103681 0)
(0.96615 0.0657789 -5.17176e-19)
(0.913989 0.0888819 2.03112e-19)
(1.03852 0.102946 7.32781e-19)
(1.06803 0.120029 -8.62475e-19)
(1.07401 0.152887 7.70687e-19)
(1.02925 0.141793 0)
(1.07419 0.107258 0)
(1.05487 0.0898551 -3.52679e-19)
(1.04465 0.0941921 -6.0003e-19)
(0.581839 1.07613 1.42775e-19)
(0.612676 1.40613 -4.44453e-20)
(1.15765 2.73873 -2.31878e-19)
(1.22404 3.07995 2.42096e-21)
(1.24976 2.72125 -1.41608e-19)
(1.27954 2.70499 -2.56402e-20)
(1.2077 2.34546 -1.03055e-20)
(1.21141 2.98403 -9.66969e-20)
(1.23088 2.94934 2.39923e-19)
(1.21486 3.23339 -1.42252e-19)
(1.37547 2.96529 1.96708e-19)
(1.36569 2.88348 0)
(0.550782 0.838606 -5.0703e-20)
(0.132684 1.24874 5.82784e-19)
(0.536478 0.431146 6.09137e-19)
(0.37511 0.181068 6.71467e-19)
(0.52015 0.366366 7.28339e-19)
(0.546737 0.466335 -1.17188e-18)
(0.548258 0.467398 9.57125e-19)
(0.493064 0.382418 -3.68098e-19)
(0.408193 0.314424 8.33852e-19)
(0.734982 0.250465 -3.68298e-19)
(0.696537 0.276858 0)
(0.672191 0.197329 8.73429e-21)
(0.733605 0.505707 3.87388e-19)
(0.70607 0.474981 -1.41261e-18)
(0.616547 0.464402 1.4617e-20)
(0.624312 0.450461 0)
(0.681664 0.727253 4.09135e-19)
(0.838702 0.772702 4.16702e-19)
(0.761217 0.855765 -4.86965e-19)
(0.883333 0.80846 -1.65621e-19)
(0.912165 0.851393 -4.13859e-20)
(0.919912 0.851701 4.23859e-20)
(0.852818 0.645315 -7.2173e-19)
(0.933519 0.702081 1.53867e-19)
(0.98914 0.71591 0)
(0.980512 0.692063 -2.10405e-19)
(1.02161 0.328148 2.24534e-19)
(1.14392 0.297565 3.08287e-19)
(1.06473 0.268028 3.80013e-19)
(1.00956 0.359678 -4.51622e-19)
(1.05869 0.423765 0)
(1.11385 0.409936 0)
(0.916881 0.360887 5.97398e-21)
(0.840543 0.293175 0)
(0.879231 0.288887 4.19124e-19)
(0.907469 0.297381 -4.85769e-21)
(0.945629 0.430095 2.17113e-18)
(0.904789 0.488093 5.61576e-19)
(0.907663 0.452701 -5.96501e-19)
(0.824889 0.436579 6.38815e-19)
(0.808136 0.429853 3.8336e-19)
(0.777782 0.411828 -3.76832e-19)
(1.02717 -0.00048444 6.62467e-19)
(1.01999 -0.000121896 0)
(1.01848 0.000810108 4.31835e-19)
(1.02164 -0.0017407 -9.78293e-19)
(1.0223 0.00425506 4.75209e-19)
(1.0204 0.0111872 -9.95177e-19)
(1.02135 0.0105827 0)
(1.02065 0.0108552 -2.07354e-19)
(1.01598 0.00767503 5.20174e-19)
(1.01671 0.0104312 -2.59538e-19)
(1.01741 0.00977981 1.91152e-19)
(0.0284387 1.31655 0)
(0.0323653 1.35547 0)
(0.0423381 1.31877 0)
(0.0424855 1.27542 0)
(0.0707133 1.38117 2.18424e-21)
(0.077311 1.35251 6.40389e-21)
(0.110426 1.51246 -2.62019e-20)
(0.0935226 1.36256 6.05187e-21)
(0.0341393 1.45323 -2.56161e-20)
(0.0379745 1.44629 2.00543e-20)
(0.0619089 1.3655 -8.00443e-21)
(0.0540843 1.36731 9.57916e-21)
(0.0464255 1.34251 1.24961e-21)
(0.038161 1.36476 -1.9595e-21)
(0.10704 2.37172 -1.75709e-19)
(0.0958976 2.4187 0)
(0.169789 2.04767 1.1686e-19)
(0.109077 1.71012 5.01107e-20)
(0.229404 2.04455 -9.55893e-20)
(0.204062 2.43736 0)
(0.26459 2.38869 -6.19911e-19)
(0.302434 2.38678 4.39703e-19)
(0.229133 2.00461 -2.66238e-19)
(0.152994 2.16496 1.76225e-19)
(0.14332 2.27641 0)
(0.0197594 1.87398 -3.39395e-20)
(0.000532236 2.3956 -8.11636e-20)
(0.0064176 2.14947 0)
(0.0124406 2.45759 -1.37982e-20)
(0.0281602 2.30216 2.8583e-20)
(0.0215426 1.39392 -1.81025e-21)
(0.0219099 1.38028 3.37673e-20)
(0.0210051 1.38442 -1.35553e-20)
(0.024353 1.38373 -6.51617e-21)
(0.0292959 1.41546 0)
(0.0176207 1.3664 0)
(0.00935603 1.28804 -1.99165e-20)
(0.0115237 1.35602 4.88e-21)
(0.0153459 1.35819 0)
(0.015392 1.28363 -1.48905e-20)
(0.0240209 1.21576 3.11608e-20)
(1.04042 0.0113577 0)
(1.04645 0.00762775 -6.94337e-20)
(1.03854 0.0210473 -5.00535e-19)
(1.04802 0.0199355 0)
(1.05194 0.0197929 0)
(1.03628 0.0114151 -6.68328e-21)
(1.03094 0.0112691 8.03764e-19)
(1.03176 0.0162032 9.74583e-19)
(1.02578 0.0201144 0)
(1.02294 0.0204989 0)
(1.03513 0.0247674 4.99201e-19)
(1.02605 0.0260893 0)
(1.02431 0.0261224 0)
(-0.014654 2.02265 0)
(0.00683208 1.64954 -4.88209e-21)
(-0.00234948 1.75751 -2.27875e-20)
(0.00557791 1.36577 0)
(-0.00609905 1.54362 -4.67603e-21)
(0.00461858 1.44611 4.46736e-21)
(0.00389286 1.37489 0)
(0.390365 1.66707 0)
(0.366712 1.29774 -9.18861e-20)
(0.301568 1.34148 0)
(0.42031 1.29724 3.49459e-20)
(0.466429 1.45736 0)
(0.447397 1.4022 1.14175e-20)
(1.03612 2.68674 -1.55916e-20)
(0.966124 2.41149 -9.21341e-19)
(0.916872 2.19353 1.04958e-18)
(0.850555 2.37669 2.44355e-19)
(0.847917 2.49761 0)
(0.9178 2.49375 0)
(0.928217 2.37479 0)
(0.907117 2.36181 -9.5013e-19)
(0.689139 2.46502 -4.03554e-19)
(0.801491 2.45514 -9.93336e-20)
(0.812137 2.42888 7.56744e-20)
(0.695215 2.39269 0)
(0.800102 2.38872 0)
(0.75868 2.40104 -3.7138e-19)
(0.769292 2.48738 0)
(0.618737 1.0994 0)
(0.486395 0.925179 -5.11084e-19)
(0.558177 0.960175 -3.24964e-20)
(0.523607 1.05534 0)
(0.524639 1.00409 7.67254e-19)
(0.783976 0.880632 -1.3696e-19)
(0.791003 1.01794 0)
(0.765547 0.979062 1.99095e-19)
(0.651578 1.03599 0)
(0.656255 0.942754 0)
(1.16555 2.76093 -2.36882e-19)
(1.14333 2.82429 -1.00926e-19)
(0.932813 2.34364 1.06088e-19)
(0.900378 2.32224 -8.52071e-20)
(1.13054 2.73438 0)
(1.08387 2.70447 1.02572e-19)
(1.09054 2.48745 -3.22136e-19)
(0.984785 2.23673 -3.06969e-20)
(0.497634 1.35203 0)
(0.511796 1.07612 -1.2592e-19)
(0.567059 1.16846 0)
(0.857812 0.228723 0)
(0.78378 0.183197 0)
(0.723697 0.143827 0)
(0.852864 0.233514 -6.59703e-19)
(0.756291 0.219517 3.86387e-19)
(0.929672 0.0752349 -4.19541e-19)
(0.945288 0.121435 0)
(0.924843 0.135154 1.79876e-19)
(0.86347 0.110185 7.22108e-19)
(0.832177 0.067697 -4.51825e-19)
(1.16146 3.35865 -7.18172e-19)
(1.20955 3.27795 0)
(1.15959 3.38685 -1.48149e-18)
(0.647248 3.54766 1.25842e-18)
(0.871615 3.11514 6.68541e-20)
(0.520462 0.842895 6.12096e-19)
(0.434108 0.839483 0)
(0.332926 0.468602 -1.54646e-19)
(0.45651 0.674133 8.78132e-19)
(0.539353 0.436141 -2.10989e-19)
(0.510765 0.497751 2.42299e-19)
(0.664728 0.522367 5.22613e-19)
(0.695684 0.547215 0)
(0.649034 0.602961 0)
(0.605968 0.544045 0)
(0.995006 0.601305 1.01563e-19)
(0.910028 0.537361 -5.46457e-19)
(0.936285 0.571593 4.1559e-19)
(0.969618 0.508154 -4.22227e-19)
(1.07503 0.480816 0)
(1.08174 0.570425 -1.05462e-19)
(0.847826 0.389594 -8.74369e-19)
(0.850582 0.378435 -1.0805e-18)
(0.794929 0.379277 6.81927e-19)
(0.793502 0.350499 -6.97201e-19)
(0.842645 0.31205 -5.45109e-19)
(0.793416 0.310012 6.6902e-19)
(1.02669 0.00572058 -5.068e-19)
(1.02641 0.00594548 1.03221e-18)
(1.02933 -0.000107625 6.42241e-19)
(1.03342 0.000779184 -7.73506e-19)
(1.03356 0.00867865 0)
(1.03006 0.00930618 -1.25826e-18)
(0.0639949 1.64461 2.72394e-20)
(0.0457994 1.57655 0)
(0.0851281 1.6952 1.67958e-19)
(0.0951758 1.67698 -1.48934e-19)
(0.0872744 1.52948 4.91463e-20)
(0.0865077 1.51355 0)
(0.0161381 1.67367 0)
(0.00389697 1.47769 -8.31355e-22)
(0.00636134 1.4215 7.47718e-22)
(-0.000297062 1.53769 5.48152e-21)
(0.00435567 1.88023 -1.44978e-21)
(-0.00605389 1.93225 4.47598e-21)
(0.497066 1.37086 -2.85498e-19)
(0.490287 1.37428 3.13195e-19)
(0.445344 1.29435 -4.33059e-20)
(0.434911 1.29231 8.49248e-21)
(0.627554 1.2997 0)
(0.544457 1.38784 8.86662e-20)
(0.559968 1.39579 -8.63209e-20)
(0.456165 1.28031 4.21034e-20)
(0.511559 1.23532 0)
(0.564111 1.20243 0)
(0.655732 2.42394 5.92954e-19)
(0.670065 2.46159 1.28543e-18)
(0.715943 2.4733 -8.85507e-19)
(0.614413 2.44833 -2.07546e-19)
(0.560462 2.54057 2.89221e-19)
(0.509587 2.51384 -7.70767e-19)
(0.97697 2.38096 -5.87404e-19)
(1.01311 2.39435 0)
(0.923523 2.17167 -6.80152e-19)
(1.05407 2.68382 0)
(1.05632 2.67061 0)
(0.610994 2.27108 -1.21114e-19)
(1.04243 3.16168 1.32094e-19)
(0.913428 3.03165 -3.55836e-20)
(0.279014 0.899601 0)
(0.316221 0.756513 -3.23012e-19)
(0.478719 0.713961 -3.25498e-19)
(0.388054 2.01745 0)
(0.46665 2.78411 -4.65391e-20)
(0.422358 2.54778 0)
(0.698088 0.674494 -8.67136e-19)
(0.781562 0.677144 1.1797e-18)
(0.80161 0.619727 -1.16764e-18)
(0.67732 0.636806 -1.12117e-19)
(0.732914 0.589862 -4.63855e-19)
(1.00503 2.76415 -1.00447e-19)
(1.04297 2.82157 -1.69194e-19)
(0.639515 2.14497 6.76609e-19)
(0.596353 1.71227 -4.81994e-19)
(0.700273 1.90571 -4.10564e-19)
(0.990929 2.44769 -1.14296e-19)
(0.996057 2.44073 3.02403e-19)
(0.660412 1.84314 2.84532e-20)
(0.45245 1.3333 1.4743e-19)
)
;

boundaryField
{
    wall-4
    {
        type            noSlip;
    }
    velocity-inlet-5
    {
        type            fixedValue;
        value           uniform (1 0 0);
    }
    velocity-inlet-6
    {
        type            fixedValue;
        value           uniform (0 3 0);
    }
    pressure-outlet-7
    {
        type            zeroGradient;
    }
    wall-8
    {
        type            noSlip;
    }
    frontAndBackPlanes
    {
        type            empty;
    }
}


// ************************************************************************* //
