/*--------------------------------*- C++ -*----------------------------------*\
  =========                 |
  \\      /  F ield         | OpenFOAM: The Open Source CFD Toolbox
   \\    /   O peration     | Website:  https://openfoam.org
    \\  /    A nd           | Version:  9
     \\/     M anipulation  |
\*---------------------------------------------------------------------------*/
FoamFile
{
    format      ascii;
    class       volScalarField;
    location    "18";
    object      p;
}
// * * * * * * * * * * * * * * * * * * * * * * * * * * * * * * * * * * * * * //

dimensions      [0 2 -2 0 0 0 0];

internalField   nonuniform List<scalar> 
918
(
0.256572
0.942261
0.0174204
0.255625
2.40156e-06
0.909352
-0.810627
0.437922
0.236615
-0.403883
-0.00721652
0.225952
0.769962
0.535468
-1.43773
0.0104055
0.392556
-0.683719
0.235398
0.00340035
0.513845
0.243365
0.246334
0.236881
0.295716
0.525945
0.650405
0.00699603
-0.00220427
0.000466199
0.00542937
-0.00364123
0.00326074
0.792982
0.84408
0.866743
0.206208
0.0353714
-0.65961
-0.738897
-0.723606
-0.861893
0.425671
0.430178
-0.457718
0.441124
0.456878
0.224095
0.235894
0.236781
0.238151
0.236971
0.238407
0.154195
-0.432176
-0.456419
-0.367133
-0.315268
0.034582
-0.020692
-0.0401798
0.0069152
0.00682906
0.164157
0.222741
0.221655
0.23165
0.241115
0.881808
0.853707
0.879838
0.793602
0.810063
0.747909
0.720356
0.556638
0.578206
0.519962
0.508593
-1.88071
-2.85422
-0.835639
-0.575495
0.000176527
0.0147962
0.0199167
0.378864
0.387389
0.389072
0.400962
0.807892
-0.674952
-0.80418
0.235373
0.234086
0.242834
0.243465
0.239458
0.238552
0.0101712
0.0157612
-0.00517021
0.000987737
4.23289e-05
0.496136
0.491811
0.237391
0.234429
0.248995
0.270948
0.259911
0.00721486
0.307077
0.329049
0.329961
0.506228
0.505396
0.512414
0.623932
0.586389
0.687708
0.711129
0.0133696
0.00379361
0.00703784
0.00588513
0.00602715
0.201959
0.194888
0.218811
0.209523
0.211765
-0.0487908
-0.184021
0.12003
0.14289
-0.566391
-0.633894
-0.737492
-0.755094
-0.892496
0.250665
0.413415
0.417023
-0.472978
-0.389742
-0.53789
-0.316243
-0.388669
0.215721
0.221877
0.217435
0.231669
0.226191
0.228203
0.240123
0.237186
0.238758
0.21822
0.3209
0.0996393
0.0769769
-0.554028
-0.475241
-0.545454
-0.251332
-0.197752
0.0267567
0.0189246
0.0187337
0.0298647
-0.150766
-0.0666386
-0.109261
0.0135338
0.0129582
0.15732
0.148323
0.172848
0.179091
0.214139
0.215125
0.218793
0.216954
0.67109
0.693555
0.700967
0.674623
-3.86586
-6.68949
-0.241253
-0.0967393
0.00335583
0.00294917
0.00213513
0.00497018
0.00272608
0.00111025
0.0211587
0.020129
0.0204403
0.023265
0.362514
0.367531
0.728609
0.716318
0.713514
0.674621
0.223339
0.225377
0.231168
0.227019
0.0181324
0.0187579
0.0187444
0.458012
0.477886
0.475621
-0.028043
-0.116467
0.0544317
0.0809281
0.34964
0.334643
0.351774
0.394778
0.431093
0.718589
0.736879
0.735183
0.74357
0.787571
0.803946
0.769285
0.184138
0.190921
0.187367
0.222597
0.220169
0.220918
0.214872
0.217451
0.214118
-0.338107
-0.724288
0.206886
0.220415
0.18649
0.192504
0.34131
0.413634
0.394169
0.404784
0.40794
-0.252427
-0.318822
0.0322961
0.0191521
0.105879
0.137281
0.121152
0.642307
0.602554
0.652545
0.626099
0.587547
0.613813
-0.676318
-2.20667
-1.30709
0.270042
0.0746335
0.166578
0.0328016
0.0188054
0.0252379
0.686921
0.75789
0.392698
0.588505
0.570941
0.472983
0.504449
0.559447
0.480861
0.518009
0.556751
0.538244
0.203675
0.204653
0.1812
0.48205
0.539411
-0.142287
-0.190545
-0.247353
-0.00593209
0.00213485
0.00606769
0.72431
0.604414
0.686004
0.234291
0.234962
0.0144404
0.0243053
0.238873
0.238789
0.0074743
0.0074817
0.146543
-1.15058
-0.147012
0.227363
0.217926
0.234486
-0.4371
0.0623511
-0.0304596
0.108019
0.0701647
0.225394
0.173629
0.140206
0.00734498
0.0180502
0.00535064
-0.513696
0.231979
0.23032
0.234101
0.235115
0.235811
0.00838533
0.0105681
0.00726299
0.00587137
0.00751937
0.0044802
0.20087
0.21517
-0.459953
0.234028
0.236309
0.236038
0.229195
0.234652
0.232903
0.0144004
0.00889148
0.00878994
-0.0414335
0.0726476
0.405322
0.515825
0.35646
0.127535
-0.11887
0.300269
0.369768
0.265756
0.434568
0.398128
0.424952
-0.0872474
-0.233894
-0.0804676
-0.137492
0.225033
0.223679
0.21625
0.214205
0.229417
0.227589
0.231985
0.22906
0.231804
0.233235
-0.44934
-0.36042
-0.440857
-0.451435
0.00989278
0.294347
-0.0773152
0.0294825
0.00372879
-0.0129723
0.00101549
-0.0534979
-0.0653556
0.00271211
0.0568041
0.0860788
0.0373012
0.0631811
0.0250986
0.0055518
0.0301368
0.0141439
0.220121
0.216952
0.224567
0.231475
0.181142
0.1837
0.155858
0.171366
0.160808
0.104726
0.137377
0.116197
0.00780761
0.00873001
0.00622081
0.0212326
0.0223705
0.00983439
0.00936242
0.014676
0.0103182
0.00917691
0.00867409
0.0141876
-0.477248
-0.583531
0.691315
0.642545
-0.047633
0.221095
0.227518
0.224308
0.228885
0.232159
0.232987
0.230858
0.227208
0.215788
0.217865
0.213917
0.213524
-0.404904
-0.537828
-0.356887
-0.418959
-0.158171
0.339466
0.0847927
0.0259929
0.0216752
0.231146
0.616692
0.428605
0.468451
0.495333
-0.650742
-0.247649
-0.579817
0.0361384
-0.14632
0.404774
0.457714
0.48023
0.426031
0.374289
-0.411057
0.22729
-0.33158
-0.291177
-0.102818
-0.201933
0.450919
0.382213
0.389858
0.415019
0.439637
0.390448
0.370897
0.367349
0.404065
0.408421
0.20529
-0.00887026
-0.0552051
-0.0904555
0.370519
0.245087
0.301509
0.2195
0.219611
0.222916
0.22143
0.204889
0.212055
0.207975
0.211781
0.215277
0.225187
0.224831
0.220554
0.223017
-0.294198
-0.252156
-0.429269
-0.441176
-0.45897
-0.493389
-0.414644
-0.515257
-0.6441
-0.0195882
0.0238666
-0.41468
-0.378057
-0.383634
-0.341195
-0.176867
-0.100646
-0.188731
-0.00610177
-0.169071
-0.13343
-0.00988042
-0.0196467
-0.0335851
-0.0486244
-0.119888
-0.0587498
0.0582388
0.0038438
0.0165589
0.0236478
0.0165205
0.00293044
0.0101274
-0.148934
-0.158219
-0.121595
-0.197657
0.0184514
0.0214848
0.0243763
0.0280289
0.0346909
0.0360358
0.212887
0.213538
0.212559
0.227531
0.238738
0.253564
0.221909
0.199674
0.192042
0.192472
0.170793
0.178114
0.17596
0.187165
0.204594
0.21216
0.209896
0.212733
0.198256
0.19964
0.187766
0.191549
0.172032
0.154765
0.144912
0.0142806
0.00932628
0.0105352
0.0114787
0.00922064
0.00998689
0.0356608
0.030794
0.0348074
0.0273597
0.0230354
0.0163962
0.0150413
-0.389092
-0.301915
-0.485069
-0.520847
-0.583449
0.596517
0.724486
0.547092
0.300335
0.322117
0.544149
0.668559
0.278731
0.463655
0.516894
0.201644
0.500862
0.225659
0.225404
0.223477
0.222307
0.223469
-0.308646
-0.207528
-0.198018
-0.144491
-0.0271217
0.0863337
-0.0159271
-0.151371
-0.00613451
0.0071784
0.334347
0.348595
0.292539
0.319397
0.319034
0.146735
0.220362
0.276271
0.230755
0.272311
0.29417
0.259536
0.286295
0.23363
0.19361
0.192646
0.141965
0.159579
0.13705
0.120846
0.215064
0.195524
0.204755
0.197367
0.216204
0.244176
0.239096
0.261621
0.275471
0.204094
0.167089
0.175299
0.201861
0.165603
0.177318
0.190823
-0.0812087
-0.171422
-0.0950567
-0.398658
-0.304832
-0.319985
-0.366561
-0.329066
-0.0403502
-0.751498
-0.714008
-1.35239
0.166473
0.648331
0.401664
0.371337
0.436665
0.411929
0.412611
0.448294
0.456046
0.358709
0.375497
0.377553
0.334224
0.359804
0.387466
0.385489
0.208837
0.095546
0.081909
0.0524566
-0.0665535
-0.0365742
0.163617
0.0860913
0.0167175
0.0233346
0.181208
0.0778706
0.139698
0.175187
0.109392
0.0676701
0.259915
0.328528
0.318044
0.292769
0.209468
0.222354
0.245694
0.280791
0.308021
0.340604
0.213497
0.218053
0.218982
0.217192
0.214134
0.216815
0.216682
0.219423
0.220403
0.223129
0.222262
-0.107799
-0.13856
-0.208437
-0.147237
-0.518136
-0.551093
-0.580141
-0.50503
-0.206313
-0.253564
-0.400275
-0.312623
-0.238133
-0.202555
-0.356449
-0.317944
-0.320677
-0.448286
-0.072829
0.0815347
0.185577
0.0760052
-0.12818
-0.0983678
-0.061799
-0.10312
-0.00616221
-0.00659171
-0.0467647
-0.100661
0.0044284
-0.000628519
-0.00357355
0.0023665
-0.00871459
0.00310983
0.0153284
0.0132388
0.0123849
0.0122882
0.0149823
0.202367
0.195564
0.195077
0.191188
0.190786
0.200222
0.204902
0.206523
0.211014
0.212864
0.205057
0.209591
0.212232
0.0226558
0.020108
0.0233179
0.0134665
0.0162783
0.0165644
0.0138107
-0.18594
-0.209887
-0.175905
-0.290847
-0.416475
-0.371465
0.151986
0.124106
0.168919
0.374548
0.237099
0.149036
0.212931
0.324156
-0.0499593
0.167238
-0.0184482
0.582254
0.458335
0.596708
0.245136
-0.0721399
0.0702364
0.126877
-0.0670531
0.0051825
0.022312
-0.0848713
-0.051455
-0.0224118
0.0738471
-0.0404168
-0.0650221
-0.314855
-0.140935
-0.0037775
-0.0258068
0.103167
0.164667
-0.0665491
-0.130863
-0.17639
0.322217
0.343084
0.360243
0.329287
0.354327
0.280191
0.272092
0.289572
0.300292
0.294159
-1.08708
-0.800642
-1.74064
-1.05521
-0.613916
0.192248
0.153121
0.432297
0.330793
0.413738
0.397486
0.361543
0.324706
0.330614
0.367834
0.0777718
0.183294
0.159878
0.163518
0.0709275
0.00790588
0.293933
0.288195
0.323233
0.347822
0.316979
0.349414
0.21045
0.209785
0.210905
0.207389
0.207212
0.208338
-0.334666
-0.294665
-0.409293
-0.439277
-0.494981
-0.452138
0.0290579
0.0162631
0.0150905
0.0166364
0.0289507
0.0302062
-0.160173
-0.207577
-0.270931
-0.250324
-0.307404
-0.369517
-0.388119
-0.290546
-0.213117
-0.21525
0.111296
0.370522
0.19236
0.371751
0.235164
0.281888
0.173827
0.168046
0.202536
0.0665154
0.13451
-0.127129
-0.614945
-0.527172
0.445526
0.465455
0.247056
0.0480839
-0.171832
0.0278008
0.242724
0.183829
0.224063
0.290467
0.28325
-0.321154
-0.241339
-0.0179084
0.213708
-0.0763405
-0.0904963
-0.0930082
0.0693328
0.00237465
)
;

boundaryField
{
    wall-4
    {
        type            zeroGradient;
    }
    velocity-inlet-5
    {
        type            zeroGradient;
    }
    velocity-inlet-6
    {
        type            zeroGradient;
    }
    pressure-outlet-7
    {
        type            fixedValue;
        value           uniform 0;
    }
    wall-8
    {
        type            zeroGradient;
    }
    frontAndBackPlanes
    {
        type            empty;
    }
}


// ************************************************************************* //
