/*--------------------------------*- C++ -*----------------------------------*\
  =========                 |
  \\      /  F ield         | OpenFOAM: The Open Source CFD Toolbox
   \\    /   O peration     | Website:  https://openfoam.org
    \\  /    A nd           | Version:  9
     \\/     M anipulation  |
\*---------------------------------------------------------------------------*/
FoamFile
{
    format      ascii;
    class       surfaceScalarField;
    location    "18";
    object      phi;
}
// * * * * * * * * * * * * * * * * * * * * * * * * * * * * * * * * * * * * * //

dimensions      [0 3 -1 0 0 0 0];

internalField   nonuniform List<scalar> 
1300
(
3.75095
5.62643
-6.0571
3.75095
-5.90575
5.62643
-4.55498
4.55498
-1.32178
1.32178
1.87668
1.87428
-2.80423
2.80423
-4.28498
4.28498
-2.70561
2.70561
-5.2464
5.2464
-5.06775
5.06775
4.68509
-4.68509
-4.81565
4.81565
-1.79181
1.79181
-3.7747
3.7747
3.1709
-3.1709
-4.71666
4.71666
-0.459006
0.459006
-0.553315
4.30427
3.19764
3.19764
-2.4181
2.4181
-4.85204
4.85204
6.21819
-6.21819
9.18451
-9.18451
-3.12741
-3.41937
1.32009
-8.1875
-4.58566
-4.58566
-8.44041
8.44041
-2.81398
2.81245
2.93294
-2.93294
-1.75185
1.75185
-4.50986
-0.0451158
-4.50986
4.52959
0.0253921
4.52959
-1.42282
0.101038
-1.42282
4.03755
-4.03755
1.16864
0.15314
1.16864
3.06423
-3.06423
-1.87709
3.75377
1.87387
-1.87159
6.17586
-1.87936
3.75364
-5.46961
5.46961
-2.95829
0.154053
-2.95829
2.91281
-0.108575
2.91281
-5.31841
5.31841
-4.06303
-0.221956
-4.06303
4.43862
-0.153642
4.43862
2.92984
-2.92984
-2.73895
0.033332
-2.73895
2.65313
0.0524807
2.65313
0.353574
5.27286
-5.98
8.79245
-5.27286
0.0264612
5.20846
0.0379337
5.20846
-5.106
0.0382518
-5.106
5.01051
0.0572435
5.01051
4.77884
-0.0937489
4.77884
-4.79843
0.113341
-4.79843
-3.33309
-3.4499
-4.90777
0.0921187
-4.90777
-1.78713
-0.00467385
-1.78713
1.73201
0.0597926
1.73201
-3.5426
3.5426
-4.24458
0.469877
-4.24458
3.12631
0.0445946
3.12631
1.86869
1.88226
5.61965
-5.61965
2.44874
-4.64669
-0.069966
-4.64669
-4.815
-4.36951
4.815
-0.0983349
-0.773975
0.314969
-0.773975
3.15948
0.0381562
3.15948
2.57714
0.0759981
-2.57714
0.159031
3.37025
-3.37025
1.78188
0.636225
1.78188
-5.57174
5.57174
4.94906
0.0614439
-4.94906
0.0970278
6.15712
0.061075
6.15712
-6.19959
-0.0186044
-6.19959
3.35326
-6.77264
-3.4376
4.70587
0.10978
-4.70587
0.120205
2.89657
0.036372
2.89657
-2.91666
2.91666
-2.98198
0.0490433
-2.98198
-2.16768
0.415821
-2.16768
1.43327
0.31858
1.43327
-4.37913
-0.130736
-4.37913
-4.43022
0.185642
4.43022
0.0993649
0.906137
-0.906137
-1.54935
0.126526
-1.54935
-4.19425
-0.184873
4.19425
-0.1567
-3.92023
-0.117325
-3.92023
-3.02385
0.0418648
3.02385
0.0403834
3.11203
0.0474501
-3.11203
0.047803
-1.87082
3.75308
-1.88013
3.754
-5.30255
-0.167066
-5.30255
5.46431
0.00530172
5.46431
3.38021
0.394495
-3.38021
0.421922
3.29882
-0.386014
3.29882
-5.29474
-0.0236678
-5.29474
5.25519
0.0632179
5.25519
3.72053
-0.421714
-3.72053
-0.342491
4.52613
-0.0875032
4.52613
2.9856
-0.0557538
2.9856
-2.88841
-0.041433
-2.88841
2.79065
-2.79065
2.75472
0.0359246
-2.75472
0.0157758
-11.1326
11.114
-0.0349219
-11.0977
5.17354
5.17354
4.20238
0.576454
4.20238
-5.00921
0.210781
-5.00921
3.31706
-6.75466
3.43792
-6.77101
3.44477
-11.6323
3.3627
-6.8126
5.08214
-5.08214
4.988
0.0941332
-4.988
0.0802385
-1.78994
0.0028087
-1.78994
-2.86807
-0.674532
-2.86807
4.18695
-0.644352
4.18695
-3.03332
3.03332
-3.08156
0.0482365
3.08156
0.0447538
4.5872
-0.061069
-4.5872
-0.0594986
0.985032
0.18361
-0.985032
0.211057
3.57281
-0.202555
3.57281
-3.18304
-0.187216
-3.18304
-1.79125
0.00131125
1.79125
-0.00937136
-5.81738
0.245635
-5.81738
-11.1908
0.0930856
-11.1528
-6.1065
-6.1065
2.33391
11.1264
-2.87315
-0.0152661
2.87315
0.0234195
2.97738
0.0559429
-2.97738
0.0607156
-2.85319
0.062547
2.85319
0.0634671
-2.55604
0.388364
-2.55604
-1.01277
1.01277
-1.20143
0.188651
1.20143
0.231849
1.16645
-0.260318
1.16645
1.65437
0.0776474
-1.65437
0.10502
-3.82218
-0.0980508
-3.82218
5.33511
0.1292
5.33511
-3.06197
-0.121062
3.06197
-0.0763762
-0.0333141
11.1473
-5.14023
0.0342215
5.14023
-11.2084
11.2426
-3.23955
0.683507
3.23955
0.962838
5.29614
0.275607
-5.29614
0.286929
5.18629
0.068895
-5.18629
0.104157
-2.3466
-0.521461
-2.3466
-4.86903
-0.433517
4.86903
-0.682079
-11.4752
-0.202661
11.6778
-11.4179
6.02004
0.137077
-6.02004
11.3797
-0.87515
-0.0309865
0.87515
0.137625
1.47534
-0.308889
1.47534
3.73347
-0.160659
-3.73347
-0.0887089
-5.29033
-0.00441276
5.29033
0.0447824
-1.89692
-0.449682
1.89692
-0.421578
-4.26638
4.30453
1.90948
-3.305
-3.46764
-7.67451
1.85156
1.90152
4.30031
-7.19492
-4.43736
-7.07471
7.27477
-6.98784
-9.30717
9.21342
7.47374
-7.59106
-5.78222
5.82697
6.48195
-6.44156
1.87831
1.87545
6.30492
-6.15086
-16.1898
16.0227
8.96712
-9.18907
12.5925
-12.6162
-13.3694
13.4383
-5.76115
5.79448
-6.64081
6.59938
-6.80938
6.733
-3.26381
-3.50721
9.32008
-9.22796
11.6794
-11.7494
-8.25154
8.72141
3.38258
0.921949
3.43003
-1.88205
3.76037
-1.87159
3.78107
3.45236
-6.71617
3.3023
-6.76994
6.07497
5.60443
-5.97664
-1.69787
-5.86451
5.90088
-5.81935
5.88282
8.97495
-9.02006
-1.8864
3.76185
-1.8676
3.76911
-3.4245
-2.35772
3.3799
0.920405
5.69629
3.62379
-5.80607
-1.26864
-7.6827
7.52204
-7.98004
7.79282
-0.455973
5.82567
-5.3697
4.39606
-1.55328
7.37895
5.7215
5.93228
5.86889
-5.59329
1.11895
-6.48865
-6.39162
-2.60666
2.73319
2.64524
-2.4921
5.89164
1.58209
5.73494
-5.48651
-2.10455
-5.58456
3.81721
2.00976
3.86545
4.07362
2.40832
4.11549
3.02916
-3.03646
0.00730179
-3.05719
6.08635
0.725393
-5.41491
-4.49451
3.92099
2.38392
3.81242
-4.7033
-1.44756
-4.28138
-9.83725
-6.35254
-10.2708
10.1144
5.90827
10.1197
-10.8335
10.8783
6.31286
2.65425
6.15922
-5.37586
-3.81322
-5.71835
10.912
-1.32448
-9.58752
-7.86395
-5.50548
7.80073
4.79175
7.98295
5.45537
8.08711
3.31193
7.60007
-8.10368
2.5982
-3.84945
-1.91171
-3.83367
3.74298
2.0515
3.79546
-4.13448
-2.50634
-4.14974
-4.19467
-2.6147
4.25043
2.34896
-4.29655
-3.68348
4.41762
2.31538
3.15803
-7.59539
3.65456
-7.16177
-6.53349
-2.69447
-6.45325
4.23174
2.58998
-6.82173
-2.48442
10.9522
-5.3478
9.25436
-7.19222
-4.55715
-7.25172
-6.74877
-1.50276
-6.56313
-8.75312
8.23165
-9.10735
8.463
12.7224
-5.85721
-6.8652
-3.9698
-2.47176
3.922
-0.491962
-3.71071
3.71801
0.0496612
3.83073
4.75268
4.26072
-3.88937
-1.92999
-3.82865
3.8294
2.05342
3.89195
6.76103
2.21391
6.78643
-6.40438
-2.61569
-6.53511
9.07594
-8.66011
2.95978
-2.95847
5.21309
2.57974
-5.01053
-2.67217
6.0181
-3.03515
-2.98295
-12.2259
10.6013
1.62465
-4.847
-0.450934
0.008072
-5.51636
-3.79081
5.40302
0.529262
11.1306
7.33975
-5.51516
5.76079
6.16267
6.22412
-0.167505
5.8468
-5.16329
5.2134
-2.23483
-2.97857
5.25331
-5.43818
-1.2818
-5.22985
3.94805
0.296761
1.9024
-1.58743
-2.07552
-0.531138
-1.9705
1.61964
1.02561
1.80325
0.954734
1.77845
-2.99566
0.612614
2.38304
-2.04093
-1.87949
-3.5344
-0.941432
4.47584
5.47476
2.04728
-5.38605
-0.198512
2.74115
-2.68136
-0.711931
-2.82247
2.1236
-2.83553
-3.51671
-1.84556
5.36227
-3.36896
-0.459693
3.31301
0.552432
-3.81205
-2.05246
3.763
0.352484
-3.13637
6.23098
-3.09461
-5.06635
2.52955
3.5568
4.53931
-4.78938
2.44182
2.34755
-1.23258
3.9502
-0.137779
3.56419
-5.80203
4.35447
5.28512
3.43629
-5.67962
1.39824
-4.40379
9.27078
-8.41627
-0.854507
4.6303
4.64048
7.38439
5.33803
-5.68561
13.07
-2.48902
-5.92725
6.89281
-3.45653
5.50273
-8.95926
-10.8408
4.91351
-11.1661
10.9228
0.243301
-2.58303
-8.25049
13.7491
-1.99846
-11.7506
8.12129
-6.25863
-4.17972
10.4384
-7.58312
7.99294
-3.69855
-4.29439
-8.46905
-4.1471
8.47346
2.40484
-9.54112
12.1393
-1.94104
5.65218
0.50704
5.56468
5.26878
-5.67581
0.40703
2.31433
-6.01288
4.601
-10.2768
-5.08822
9.81203
-4.72381
-7.78269
-7.11325
-0.669437
1.82872
10.3106
-7.28409
5.38526
1.89883
3.32833
0.563619
-3.36425
-0.469415
0.353207
4.47265
-4.82585
4.14867
4.22466
3.3946
1.07804
3.78891
2.11196
-3.81233
-0.33741
-4.08132
1.46662
-1.73237
-3.59691
5.06353
-4.02487
0.427962
-2.68378
-3.53729
6.22106
-4.59548
3.0706
3.16037
5.12402
-4.92435
1.38706
-2.42956
-2.49479
2.63781
-4.37018
1.93406
3.12947
4.24945
0.565961
5.02407
4.78796
-7.61406
0.452289
8.41174
-7.1431
1.93154
6.15557
-7.3168
0.20355
-6.2497
1.05316
-6.40096
-5.76856
5.36412
-6.86688
-3.59514
6.10158
0.684842
-6.20095
-0.362182
-5.90588
-2.84723
-6.35556
-3.13392
-5.97343
-8.81953
-1.58369
-7.23584
6.64796
-6.68929
-3.58147
7.37137
1.09162
-7.35493
7.32394
-7.3934
7.08451
0.0944623
3.62354
4.35518
1.88341
-2.39097
4.27438
-4.99222
7.20613
-8.45178
3.45957
3.94492
-6.56061
-4.50686
5.01446
4.06147
5.33304
9.04379
-10.5672
1.52345
-10.9667
12.2127
-1.24607
-16.751
5.78438
-7.70725
2.69861
0.261167
2.70142
0.6654
2.41153
-3.07693
-2.29307
-2.30244
-2.24822
-3.29876
5.54698
1.08721
-3.32511
2.2379
-3.42391
4.51112
-0.0885269
-3.23659
5.21883
-2.8073
5.48
-3.51244
1.96756
3.2108
5.4848
-2.27401
4.22271
-1.64297
1.74822
-4.02223
-1.55054
-2.99656
5.04807
-3.2245
3.65246
-0.222214
3.87468
-4.01151
0.976358
-0.616906
3.60776
3.76679
4.13239
-3.05434
2.87279
-4.51576
-1.14944
-3.9498
-0.820337
-0.32594
-3.70112
4.02706
6.07834
-6.40428
-5.30152
9.59845
-4.29693
7.72647
-5.4324
-2.29407
-4.27529
-4.38482
3.88693
1.95987
9.68634
0.196485
-5.62888
-4.96681
-4.00397
3.20018
2.01322
-2.08133
3.70597
2.07326
-0.170862
0.60727
1.19598
1.92273
-1.31546
0.180392
1.74234
-1.40703
1.98732
0.753833
-2.06497
0.0944673
-1.31166
3.43526
1.07138
-2.09699
0.781526
1.12622
-3.36106
4.66626
-2.34898
-2.31728
5.79248
1.17752
-3.5265
4.05233
-3.75557
2.28812
-3.22955
-1.23838
-4.99395
-3.41185
-2.43981
4.67772
-3.10717
5.15445
1.16101
-4.95594
6.11694
-3.52287
1.67732
-2.9712
3.72503
-0.988249
-1.98295
2.7405
2.62177
-2.82972
0.00724727
-0.0892239
2.32058
-2.40981
-0.514945
-2.55587
-4.56046
4.91294
-2.12225
4.56407
2.15213
-1.91325
6.47732
1.81409
-3.72733
-3.25227
-3.71196
-1.37978
3.15953
-1.72342
-3.99493
-6.01781
4.41664
-0.852454
-6.31809
8.41992
-2.10183
-3.93417
-0.420301
5.0506
-7.90088
1.888
-3.29988
5.12004
4.98226
4.12981
-12.6538
0.903179
-6.74553
1.54109
-8.28662
6.18157
-3.3195
8.23302
-10.8421
7.26065
-9.7505
7.37851
-0.908114
5.78963
-5.3826
3.79789
-7.945
-5.54016
6.69077
-4.03652
7.19781
-4.4608
11.6586
-6.40184
7.03623
4.62237
-1.50076
-5.75096
-6.78889
5.28813
0.247346
5.81203
4.95425
-2.84229
4.61684
2.25967
-4.68923
-2.1105
-6.56128
1.87205
-3.40091
-1.91704
3.78909
3.20698
3.7706
1.2943
-3.30118
6.95932
-7.62876
-2.23551
-3.53305
6.77464
-1.48651
4.18348
-7.71653
-2.21749
5.00258
-1.02644
-3.97614
0.854636
-4.44978
1.68662
-6.1364
5.18026
-5.54244
2.17365
-9.8809
-5.18128
-5.04366
-2.23191
-5.16149
-7.68652
5.45461
-1.90213
5.42181
-8.73464
7.7082
-3.47809
8.9327
-5.32257
-1.03299
5.74415
1.34036
10.2731
0.100881
-4.60774
-1.77236
3.88355
-2.11119
1.42782
-3.60024
0.283313
2.47131
3.32117
-6.41936
-0.141253
-4.749
-3.90636
7.96783
5.69209
11.7704
1.20319
9.18229
-1.21446
10.3855
4.11858
4.35043
-3.04225
4.56571
0.984803
4.44437
-0.826028
2.79359
1.87539
1.87072
0.810643
2.29893
1.46786
3.27529
0.198356
-2.10408
4.66554
-8.66951
-0.963346
-8.09306
1.12037
5.75604
-4.63567
3.11807
-1.10485
1.00688
0.210918
-1.81811
1.60719
-2.76765
-1.98897
-0.246631
-1.57308
2.3546
1.86218
-2.10797
-0.659679
0.30366
-3.71551
2.92589
-2.91865
-0.296878
5.82006
-2.72356
0.313757
-1.04625
-2.24211
-2.77325
2.67878
6.21167
0.265646
3.11706
5.17859
3.12613
0.283842
7.06635
-6.82305
-3.21046
-5.91987
0.261699
5.3123
2.39788
7.91272
7.02025
5.53374
-2.18279
-9.81155
6.53233
-1.96663
5.28627
-1.31013
-4.82627
4.89735
2.30878
-5.58219
0.0397483
-4.78652
-6.75315
-0.631575
8.33978
-9.64149
8.6085
5.76126
1.47458
-4.36442
-0.679235
4.17577
0.174659
10.5601
-1.14403
-6.9124
8.05643
-4.61201
3.64866
0.90353
2.80244
2.51072
1.40587
-5.50652
-10.1422
-1.76674
-1.59432
-4.08402
0.391813
-2.25399
6.27571
-2.62705
3.98164
5.42938
6.43626
-2.21035
-4.19394
6.50728
-2.52564
3.91063
)
;

boundaryField
{
    wall-4
    {
        type            calculated;
        value           uniform 0;
    }
    velocity-inlet-5
    {
        type            calculated;
        value           uniform -3.75095;
    }
    velocity-inlet-6
    {
        type            calculated;
        value           uniform -5.62643;
    }
    pressure-outlet-7
    {
        type            calculated;
        value           nonuniform List<scalar> 8(6.0571 5.90575 6.54678 6.86741 6.78299 6.79087 6.75498 6.80747);
    }
    wall-8
    {
        type            calculated;
        value           uniform 0;
    }
    frontAndBackPlanes
    {
        type            empty;
        value           nonuniform List<scalar> 0();
    }
}


// ************************************************************************* //
