/*--------------------------------*- C++ -*----------------------------------*\
  =========                 |
  \\      /  F ield         | OpenFOAM: The Open Source CFD Toolbox
   \\    /   O peration     | Website:  https://openfoam.org
    \\  /    A nd           | Version:  9
     \\/     M anipulation  |
\*---------------------------------------------------------------------------*/
FoamFile
{
    format      ascii;
    class       volVectorField;
    location    "18";
    object      U;
}
// * * * * * * * * * * * * * * * * * * * * * * * * * * * * * * * * * * * * * //

dimensions      [0 1 -1 0 0 0 0];

internalField   nonuniform List<vector> 
918
(
(0.985148 -0.000523588 0)
(0.00500251 2.96626 0)
(-0.00603348 1.61405 0)
(0.979702 0.00214139 0)
(-0.00380551 1.57438 2.50406e-21)
(-0.00703306 2.94878 -1.93304e-18)
(0.854136 1.20544 7.11982e-19)
(0.449988 0.207109 -9.5905e-21)
(0.999909 -0.000313301 0)
(0.0238112 0.822006 0)
(-0.0141509 1.23866 0)
(0.787922 -0.00860283 0)
(0.0111305 2.93031 0)
(0.00183987 2.79468 0)
(-0.018158 3.16911 1.06459e-18)
(-0.00515524 1.48229 -1.17676e-20)
(0.568376 0.0967445 6.05569e-19)
(0.188003 1.16818 6.1737e-19)
(0.963079 0.00505841 0)
(-0.00373816 1.36802 0)
(0.148974 0.259106 -5.08409e-19)
(1.00196 -0.00501126 0)
(1.00026 -0.00972373 0)
(0.9758 -0.00647239 0)
(0.703595 -0.0321833 0)
(0.0181065 2.63049 0)
(-0.0151216 2.91018 6.73511e-19)
(-0.0207625 1.62883 0)
(-0.0209604 1.74566 0)
(-0.0193816 1.62348 0)
(-0.00578492 1.83078 0)
(-0.00228187 1.59749 -1.98104e-21)
(-0.00462863 1.48699 0)
(-0.020616 2.98759 -6.7861e-23)
(-0.0167029 3.00531 1.50253e-18)
(0.00210694 3.00021 0)
(0.867511 -0.0085189 0)
(0.39095 0.927155 -1.32767e-20)
(0.8423 1.21805 -9.86617e-19)
(0.991904 1.06056 9.33679e-19)
(0.70813 1.31145 -1.65324e-19)
(0.702018 1.2939 9.25927e-19)
(0.476809 0.280895 9.35737e-21)
(0.467466 0.186166 0)
(1.17371 0.568018 0)
(0.450008 0.304301 4.39878e-20)
(0.410218 0.206366 -4.56451e-20)
(0.919642 -0.00751213 0)
(1.00035 8.50723e-05 0)
(0.999915 0.000316542 0)
(1.00342 -0.00777253 0)
(1.00095 -0.00106668 0)
(1.00018 -1.29401e-05 0)
(0.040025 1.68688 -3.06461e-19)
(0.0359566 0.920036 0)
(0.0664428 0.851638 0)
(-0.0174146 0.914501 0)
(-0.0166915 0.850993 0)
(0.0143488 1.57232 0)
(-0.0235877 1.36204 0)
(-0.031864 1.18168 0)
(-0.0124069 1.43018 0)
(-0.0079572 1.27611 0)
(0.865235 -0.000613918 0)
(0.878305 0.00968744 0)
(0.799815 -0.0035631 0)
(0.871406 0.0149981 0)
(0.772308 -0.00955713 0)
(0.0147028 3.00039 7.08842e-19)
(0.0115292 3.00792 0)
(0.00613305 3.00284 0)
(0.0135587 2.99734 7.92258e-24)
(0.00798857 2.95845 -1.05351e-18)
(0.0144943 2.98203 0)
(0.0107919 2.90363 0)
(0.0251558 2.93008 1.44278e-24)
(0.00408254 2.82521 0)
(0.0321037 2.91531 0)
(-0.00663795 2.74445 0)
(0.310607 3.56842 0)
(-0.132567 3.65077 0)
(0.140451 3.2597 -9.90764e-19)
(-0.0109055 2.99207 0)
(-0.0153013 1.8084 0)
(-0.00207105 1.62808 1.16087e-20)
(-0.00379372 1.49122 -1.84279e-20)
(0.620616 0.15575 -2.08614e-19)
(0.568808 0.0532439 -2.04701e-19)
(0.596331 0.193087 -6.28915e-19)
(0.542696 0.123165 -4.17538e-19)
(0.243861 0.924658 0)
(0.279988 1.32349 -6.33126e-19)
(0.388347 1.2863 1.04163e-18)
(0.987722 0.0084718 0)
(0.943104 0.00604088 0)
(1.0003 0.000544847 0)
(1.00289 0.00927184 0)
(1.00303 0.00837749 -1.21499e-18)
(0.992 0.00975742 9.17372e-19)
(-0.0164233 1.51587 0)
(-0.0051277 1.35381 0)
(-0.0298486 1.6329 0)
(-0.0228982 1.5531 0)
(-0.0044088 1.4064 0)
(0.222302 0.276518 1.56713e-19)
(0.271266 0.255068 0)
(0.993594 -0.00824396 0)
(0.95443 -0.00656408 0)
(0.843341 0.0211351 0)
(0.809983 0.0338211 0)
(0.751708 -0.0228442 0)
(1.0052 -0.0054824 0)
(0.754529 0.0508883 0)
(0.617877 -0.0142058 8.18426e-19)
(-0.0351313 2.8669 3.60133e-19)
(0.0434377 2.90817 0)
(0.0572306 2.88269 0)
(-0.00520946 2.69617 0)
(-0.0130314 2.9852 6.21325e-19)
(-0.0183331 2.89548 0)
(-0.0154162 2.98811 -1.96087e-18)
(-0.0133952 2.92522 6.76664e-19)
(-0.0187325 1.81433 0)
(-0.0143742 1.81046 0)
(-0.00268197 1.62516 -2.36235e-22)
(-0.00190853 1.59627 0)
(-0.00596583 1.48587 0)
(0.932072 -0.00547426 0)
(0.85213 -0.00831629 0)
(0.861789 0.0091025 0)
(0.947041 -0.00666459 0)
(0.884513 -0.00735801 0)
(0.504835 1.12222 6.49767e-21)
(0.556832 1.17777 0)
(0.350016 0.864629 6.90561e-21)
(0.293299 0.727509 0)
(0.952107 1.09497 -2.68637e-19)
(1.06552 0.896331 5.47808e-19)
(0.401629 1.39419 0)
(0.556733 1.37058 0)
(0.563273 1.32085 0)
(0.0918568 0.134418 -1.36983e-19)
(0.511322 0.26392 0)
(0.49624 0.165909 1.19594e-19)
(1.03422 0.94706 0)
(1.09961 0.789119 0)
(1.12601 0.732471 -4.71922e-19)
(1.15307 0.626349 0)
(1.20463 0.407423 5.90746e-20)
(0.956768 -0.00830048 0)
(0.961974 -0.00969969 0)
(0.901501 -0.00799021 0)
(0.984239 -0.00908686 0)
(0.974707 -0.00947632 0)
(0.936735 -0.00620459 0)
(1.00012 0.00226716 0)
(1.00091 0.00145228 0)
(0.999892 0.000857453 0)
(-0.026703 1.93601 1.86171e-19)
(0.0860384 1.64051 0)
(0.0103681 1.90974 2.09093e-19)
(0.0108655 1.66193 -1.35065e-19)
(0.112426 1.17281 -5.11802e-19)
(0.0737467 1.01949 0)
(0.129399 0.99923 0)
(-0.0571712 1.00043 0)
(-0.0487182 0.957913 0)
(0.0410279 1.73756 -7.54353e-22)
(0.0100916 1.57362 0)
(0.0110972 1.72627 -2.11598e-20)
(-0.00704791 1.56523 4.83392e-20)
(-0.0574638 1.14045 0)
(-0.0449 1.26943 0)
(-0.0443924 1.08391 0)
(-0.0100497 1.47577 0)
(-0.0058048 1.29866 0)
(0.948165 0.0148805 0)
(0.887236 0.00121437 0)
(0.928891 0.00938068 0)
(0.853228 -0.000914713 0)
(0.810012 0.00261227 0)
(0.902292 0.00828107 0)
(0.890831 0.0046016 0)
(0.799408 -0.00270192 0)
(0.00582742 3.06473 -6.28008e-21)
(0.0163245 3.05803 0)
(0.0146475 2.96916 0)
(0.00849256 2.87639 0)
(0.927684 3.98749 0)
(1.24306 3.31584 1.0093e-18)
(0.0715134 3.08443 0)
(-0.0262973 2.91211 0)
(-0.018349 1.79937 0)
(-0.0191938 1.80364 0)
(-0.0167744 1.80084 0)
(-0.00973413 1.8185 5.33456e-21)
(-0.0145092 1.81661 0)
(-0.0126136 1.81489 0)
(-0.00420581 1.50496 -5.7698e-22)
(1.78616e-05 1.66528 1.8009e-20)
(0.00052568 1.64476 1.8839e-20)
(-0.00308626 1.48996 0)
(0.643369 0.117588 3.07817e-19)
(0.580075 0.0250216 -2.99686e-19)
(0.243898 1.5164 0)
(0.278033 0.683232 -2.24204e-19)
(0.169134 1.64234 -7.63815e-19)
(0.186631 1.17481 7.65076e-19)
(0.904328 0.00796888 0)
(0.96827 0.0109848 0)
(0.974999 0.0104814 0)
(0.925308 0.00683206 0)
(-0.0123572 1.49792 0)
(-0.0139414 1.50503 0)
(-0.00601019 1.3225 0)
(0.407874 0.313337 4.06252e-19)
(0.345384 0.294554 -4.95006e-19)
(0.354374 0.228931 0)
(1.12614 0.0832339 -7.53718e-22)
(1.11158 0.0378877 0)
(1.04052 0.0362572 0)
(0.948969 0.00631337 0)
(0.663884 0.0903682 0)
(0.69454 0.0641675 -1.31755e-18)
(0.594997 0.0100588 5.02909e-19)
(0.00989366 2.98211 4.47398e-19)
(-0.0325437 2.86759 4.69648e-20)
(0.00383004 3.05022 -1.35346e-20)
(0.0199522 3.0435 4.8617e-19)
(-0.0150046 2.99655 2.24657e-20)
(-0.0130013 2.94943 -9.08546e-23)
(-0.0173003 3.01199 -4.24548e-19)
(0.0148313 3.02396 3.0718e-19)
(0.0073206 3.03682 -4.81104e-19)
(0.925926 0.00564802 0)
(0.930057 -0.000434232 0)
(0.843349 -0.00493487 0)
(0.95712 0.012636 0)
(0.943396 0.0132289 0)
(0.88267 0.00816159 0)
(0.915374 0.0125599 0)
(0.925984 0.0145511 0)
(0.834855 0.00772074 0)
(0.71345 1.40776 3.04135e-19)
(0.749312 1.5196 0)
(0.220862 0.370166 2.92345e-20)
(0.171955 0.573244 2.362e-19)
(0.259771 0.684987 -1.33361e-19)
(0.2235 0.571308 2.47825e-19)
(0.283927 0.675987 7.78617e-19)
(0.110275 0.171066 2.21261e-19)
(0.569627 0.221522 4.49031e-19)
(0.539747 0.245369 1.11565e-19)
(0.520962 0.149273 2.25995e-19)
(1.19305 0.463853 2.72023e-19)
(1.20877 0.257402 2.84955e-19)
(0.00368636 1.84121 5.09671e-20)
(-0.00301116 1.60061 0)
(0.99208 0.0269653 0)
(0.960405 0.0175518 0)
(0.91107 -0.00105329 0)
(0.0111204 3.07486 0)
(0.0201244 2.94415 8.41198e-19)
(0.0165399 2.95656 0)
(0.0060028 2.85072 -8.34562e-19)
(0.00605208 3.09161 2.00164e-19)
(0.00721821 3.08212 0)
(0.783081 1.82537 -2.32695e-19)
(1.24985 2.51089 6.37084e-19)
(0.7659 1.96742 -1.47362e-18)
(0.0213273 2.98531 -3.33723e-19)
(0.0372983 3.00845 0)
(-0.0320299 2.88313 0)
(0.00302297 1.69094 -1.85663e-21)
(-0.000817448 1.68604 -3.68743e-20)
(-0.00162112 1.53441 -6.07407e-21)
(0.257956 1.3169 7.12003e-19)
(0.240413 0.447721 -4.89477e-19)
(0.0110133 1.91764 5.02384e-19)
(0.111172 1.82974 -6.45227e-19)
(0.142982 1.43528 1.05686e-19)
(0.00398146 3.11893 -1.18358e-18)
(0.0122116 3.11921 1.29743e-18)
(-0.00859994 2.98117 5.4222e-19)
(-0.00365921 2.97797 -4.81488e-19)
(-0.0214587 2.88183 -5.52241e-19)
(0.00866379 3.10002 -1.47073e-18)
(0.00223259 3.10472 1.46646e-18)
(0.222055 0.593699 0)
(0.154231 0.574704 -4.50251e-19)
(0.128877 0.191874 1.98975e-19)
(0.319153 0.805258 6.64757e-19)
(0.170385 0.214033 -1.01921e-18)
(1.20719 0.170331 -4.56119e-20)
(1.20867 0.309322 0)
(1.19481 0.118471 1.09697e-19)
(0.0445863 1.75219 -6.0804e-23)
(0.0394267 1.77455 0)
(0.0290041 1.57957 0)
(0.309949 1.19719 -2.59895e-19)
(0.347462 1.01476 -5.41418e-19)
(0.193849 0.311885 9.31874e-19)
(1.00583 -0.0110874 0)
(1.00764 -0.00770141 2.22393e-19)
(-0.0194127 1.80137 0)
(-0.0295433 1.80906 0)
(1.00217 0.00347699 1.68601e-21)
(1.00387 0.00949701 4.56528e-19)
(-0.00955018 1.82277 -7.10221e-21)
(-0.00738722 1.82182 0)
(0.0399166 3.18497 1.3754e-19)
(0.40053 3.50501 0)
(1.10873 0.644255 5.06774e-20)
(1.01227 0.0125161 -2.21957e-21)
(1.0214 -0.0105252 0)
(1.00169 7.42185e-05 -3.92059e-23)
(0.0511802 1.0977 0)
(0.0943537 2.68901 0)
(-0.128328 1.59276 0)
(-0.0889092 2.07834 7.02472e-20)
(-0.0644101 1.93202 5.05675e-20)
(1.0048 0.0095455 2.34658e-21)
(1.04581 0.0157362 0)
(1.07038 0.0286422 0)
(-0.021283 1.806 0)
(-0.0100904 1.8401 0)
(-0.0254841 1.78874 0)
(0.321965 1.42093 -4.35469e-19)
(1.01115 -0.00958341 0)
(1.00946 -0.0155385 0)
(1.0023 0.000436583 2.80653e-19)
(1.00553 -0.00492653 -3.34822e-19)
(1.00121 -0.00106867 0)
(-0.0237474 1.80164 0)
(-0.0218899 1.79787 0)
(-0.0213491 1.80118 0)
(-0.0269426 1.78855 0)
(-0.0265594 1.78841 0)
(-0.0283612 1.78997 0)
(1.02801 -0.0154705 0)
(1.02066 0.018932 -9.86708e-22)
(0.789298 1.26697 5.02092e-19)
(1.00301 0.000234591 -2.84159e-19)
(1.00318 0.00572784 3.39558e-19)
(1.00128 0.00215402 0)
(1.01276 0.0105793 2.76788e-19)
(1.00796 0.00823443 -3.42498e-19)
(1.00873 0.0142406 0)
(-0.0101916 1.83984 0)
(-0.00980782 1.83181 1.10928e-20)
(-0.00747378 1.83064 -7.84518e-21)
(1.18506 0.250662 -6.7454e-21)
(1.12434 0.0867652 0)
(0.0548583 3.07821 -5.56961e-19)
(0.0688919 2.85063 -4.42434e-20)
(0.148425 3.19844 8.58686e-19)
(0.142103 3.22727 -1.82365e-20)
(0.140606 3.24495 0)
(0.0218333 3.13897 1.23713e-19)
(0.0814038 3.16256 5.44267e-19)
(0.0738677 3.19038 -2.38254e-19)
(0.026177 3.12825 0)
(0.677731 0.327321 0)
(0.624678 0.377986 0)
(1.08326 0.672662 -2.05453e-19)
(1.0792 0.811158 3.29662e-19)
(1.14394 0.561657 0)
(1.17526 0.509404 0)
(1.01559 0.0131513 -5.12009e-19)
(1.01376 0.0139318 6.39955e-19)
(1.02499 -0.00960947 0)
(1.02208 -0.0134066 0)
(1.00657 0.00295063 0)
(1.01035 0.00382193 0)
(1.00477 0.00175382 0)
(1.00953 0.00578114 0)
(1.00809 0.00569662 0)
(1.00506 0.00503389 0)
(0.0355262 1.09553 0)
(-0.0414498 0.9957 0)
(0.168737 1.13067 0)
(0.1514 1.17557 0)
(0.0926796 2.69383 0)
(0.16287 2.70598 -2.17326e-19)
(-0.0280233 2.74221 0)
(-0.0927033 2.67665 5.03837e-21)
(-0.137515 2.41641 -4.45318e-21)
(-0.103938 1.6118 0)
(-0.0783894 1.64479 0)
(-0.159514 1.5403 0)
(-0.141461 1.44822 0)
(-0.272835 1.96982 -3.73906e-21)
(-0.0836843 1.97367 4.11648e-20)
(-0.0836657 2.07083 4.81158e-20)
(-0.0603636 2.02421 0)
(-0.0614077 1.93075 -1.04082e-19)
(-0.0461124 1.90905 -3.78505e-20)
(-0.245814 1.93493 -4.79729e-22)
(-0.136262 1.93438 -5.4104e-20)
(-0.138743 2.01011 -6.31973e-20)
(1.01331 0.0194226 5.09207e-19)
(1.01239 0.00378581 -6.28955e-19)
(1.0066 0.020596 -5.28241e-19)
(0.992587 0.0138971 6.65585e-19)
(1.0458 0.0179234 0)
(1.03423 0.00310201 0)
(1.06694 0.038378 0)
(1.05315 0.0233764 0)
(1.05399 0.0142981 0)
(1.1077 0.078864 0)
(1.08162 0.0478201 0)
(1.08714 0.0381505 0)
(-0.0132665 1.82496 -1.41031e-21)
(-0.0212228 1.81536 0)
(-0.0160703 1.81739 0)
(-0.0134167 1.85051 1.36939e-20)
(-0.0126311 1.8521 -5.18983e-22)
(-0.0280828 1.81 1.13255e-20)
(-0.0278261 1.8051 -1.14522e-20)
(-0.0296137 1.79793 0)
(-0.0283258 1.80003 0)
(-0.02839 1.79987 0)
(-0.0275392 1.7841 0)
(-0.0201579 1.76417 0)
(0.398779 1.46065 8.07809e-19)
(0.396011 1.46713 3.13901e-19)
(0.623204 2.39838 -1.6195e-19)
(0.4097 2.52874 4.72545e-19)
(0.390445 2.05474 -1.13297e-20)
(1.02116 -0.00796955 0)
(1.01521 -0.00969833 0)
(1.01552 -0.0154749 0)
(1.00735 -0.000822602 0)
(1.0046 -0.00147479 0)
(1.00743 -0.00468115 0)
(1.00947 -0.0039851 0)
(1.01391 -0.0043084 0)
(1.02264 0.0180811 5.00062e-19)
(1.01681 0.0181816 -6.28599e-19)
(1.02259 0.0213759 -4.98642e-19)
(1.01805 0.0199839 6.24621e-19)
(0.763265 1.31151 0)
(0.692003 1.36935 5.91227e-19)
(0.860202 1.2036 3.37468e-19)
(0.902489 1.16357 -4.48645e-19)
(1.14587 2.61114 -4.74156e-19)
(0.834601 0.112108 3.18263e-19)
(1.12431 0.097451 0)
(1.17028 0.173808 1.0495e-20)
(1.15975 0.156145 5.54442e-22)
(0.975668 0.123165 0)
(0.15211 2.96881 1.52982e-19)
(0.127844 2.87483 -7.09295e-19)
(0.0409997 2.35102 5.13938e-19)
(0.107106 0.113819 -2.16109e-19)
(0.344576 3.43278 -4.2805e-19)
(0.199569 3.32385 0)
(0.240652 3.36955 5.57456e-19)
(0.257066 3.04291 -8.06704e-19)
(0.352398 3.20233 0)
(0.00838836 3.12041 2.84169e-20)
(0.0189709 3.12956 -3.58565e-19)
(0.0170271 3.12539 5.27774e-19)
(0.0387036 3.1398 0)
(0.0371438 3.1521 0)
(1.20962 2.6142 0)
(0.503104 0.847586 -2.51666e-19)
(1.01454 0.992174 -1.819e-19)
(0.955153 1.04756 0)
(0.795771 0.951562 3.97054e-20)
(1.03445 0.865062 3.09457e-20)
(0.404968 0.478596 -5.78854e-19)
(0.709534 0.335459 -2.3546e-20)
(0.694497 0.284722 2.4037e-19)
(0.628562 0.415954 1.91591e-20)
(0.569293 0.40699 -7.87398e-19)
(0.691065 0.352896 0)
(0.722651 0.41797 4.02338e-19)
(0.719815 0.413074 0)
(0.666907 0.384791 0)
(0.649923 0.324816 0)
(0.744991 0.592291 1.58284e-19)
(1.18436 0.268218 -1.06318e-20)
(1.18129 0.403036 0)
(1.19079 0.357484 0)
(0.760556 0.217967 3.61952e-19)
(0.800753 0.510587 -2.03279e-19)
(0.725837 0.492744 3.3474e-19)
(0.911072 0.4062 -3.23879e-19)
(1.01999 0.014584 3.38036e-19)
(1.01736 0.0141336 -3.45819e-19)
(1.01385 0.0162445 0)
(1.02916 -0.0150792 0)
(1.02707 -0.0131071 -3.14048e-19)
(1.02241 -0.018993 3.10865e-19)
(1.03002 0.00654388 0)
(1.02599 0.0166692 0)
(1.01126 0.00460418 0)
(1.0146 0.00866807 0)
(1.01557 0.00416097 0)
(1.01348 0.0019707 0)
(-0.141542 1.11121 0)
(-0.151734 1.12256 0)
(0.244669 1.08817 4.96353e-19)
(0.300531 1.41052 2.56294e-19)
(0.226998 1.28388 5.71644e-19)
(0.222356 1.31714 -9.07383e-19)
(0.354178 1.24162 0)
(0.339396 1.76991 5.09263e-19)
(0.223835 1.7442 0)
(0.417701 2.04712 1.64611e-20)
(0.384651 2.40453 2.27374e-19)
(0.492403 1.44095 -4.43546e-19)
(0.37838 1.38443 1.97351e-19)
(0.403223 1.24224 -1.60817e-19)
(0.408504 1.35145 3.10779e-19)
(0.391047 1.68493 0)
(0.412927 1.65658 -1.98549e-19)
(-0.350325 2.30808 1.19001e-19)
(-0.167625 2.53624 0)
(-0.184024 2.51743 -2.80953e-19)
(-0.264882 2.46297 0)
(-0.120034 2.65748 -6.65601e-21)
(-0.125429 2.59 0)
(-0.254595 1.72751 4.92034e-20)
(-0.338066 1.81222 0)
(-0.280018 1.59435 0)
(-0.246838 1.61459 -5.55031e-20)
(-0.132747 2.18023 -6.73651e-20)
(-0.126841 2.37881 -2.6406e-21)
(-0.0830929 2.24183 4.80087e-23)
(-0.143927 1.8575 1.96432e-20)
(-0.182534 1.84981 3.58753e-21)
(-0.0623373 1.68222 0)
(-0.039163 1.70011 0)
(-0.417075 1.91404 -1.9031e-19)
(-0.349723 1.62658 -2.04986e-19)
(-0.353468 1.79653 2.50008e-19)
(-0.394066 1.84269 0)
(-0.0267548 1.83648 -4.98597e-20)
(-0.0274713 1.85041 2.14583e-20)
(-0.0336812 1.8555 -6.9021e-21)
(-0.11664 1.83475 -2.37924e-20)
(-0.0657211 1.88384 -1.16407e-20)
(-0.0769491 1.89839 6.74201e-20)
(1.02184 0.0178943 -3.31339e-19)
(1.02124 0.0126895 3.34906e-19)
(1.01657 0.00984866 0)
(1.00108 0.0453806 4.81578e-19)
(0.993314 0.0328072 -5.5457e-19)
(0.967125 0.0223032 6.40247e-19)
(0.999599 0.0794412 -6.31652e-20)
(1.02933 -0.0127415 0)
(1.03461 0.00409962 2.82771e-19)
(1.02694 -0.012303 -2.84327e-19)
(1.04803 0.0409402 -1.59833e-20)
(1.0502 0.02938 1.41385e-19)
(1.04564 0.0486326 0)
(1.03735 0.0419337 -5.23112e-20)
(1.03206 0.0276366 0)
(1.02766 0.0191957 0)
(1.03523 0.00905277 0)
(1.03132 0.012716 0)
(1.03957 0.0258542 1.07908e-19)
(1.04213 0.0190101 -2.42049e-19)
(1.04055 0.030993 -1.10823e-19)
(1.03857 0.0302133 -1.26827e-19)
(1.04333 0.0558247 2.33575e-19)
(1.07061 0.0509935 0)
(1.06966 0.0947585 0)
(-0.0246772 1.83626 -1.72635e-20)
(-0.022533 1.82039 -1.46228e-21)
(-0.0236164 1.82213 0)
(-0.0161386 1.83542 1.7381e-20)
(-0.0149484 1.82779 2.83454e-21)
(-0.0144314 1.83285 -2.90736e-21)
(-0.0417236 1.90036 3.11766e-20)
(-0.0394492 1.86803 -2.56226e-21)
(-0.0526139 1.87467 1.27335e-20)
(-0.0227966 1.87187 -1.68286e-20)
(-0.0273998 1.87665 2.04695e-20)
(-0.032489 1.8067 3.20096e-22)
(-0.0329769 1.81394 2.12022e-20)
(0.428512 1.40931 -3.89414e-19)
(0.409373 1.41363 -3.43239e-19)
(0.650537 1.40528 -5.7033e-19)
(0.51469 1.46847 -3.11828e-19)
(0.554403 1.44275 0)
(0.600246 2.37819 1.35849e-19)
(0.663768 2.3619 2.31008e-19)
(0.438354 2.47565 9.59512e-20)
(0.444013 2.55271 -1.65442e-19)
(0.549588 2.50899 3.26448e-19)
(0.533866 2.42961 0)
(0.530174 2.44946 -3.92191e-19)
(0.265694 2.61003 6.51073e-19)
(0.374961 2.54046 -6.25099e-20)
(0.282285 2.64725 -1.01367e-18)
(0.914155 2.37728 2.16503e-19)
(0.813693 2.35585 0)
(1.0108 3.38146e-05 1.12765e-20)
(1.01569 -0.00512346 -9.20625e-21)
(1.01644 -0.0039401 -1.63048e-19)
(1.01517 -0.000442837 1.67679e-19)
(1.01266 0.00100972 0)
(0.63163 1.25399 0)
(0.635781 1.1595 0)
(0.732732 1.09054 0)
(0.626216 1.12567 0)
(1.17607 2.6279 5.83706e-20)
(1.06038 2.3597 0)
(0.862149 2.24083 -1.38705e-21)
(0.823042 2.49678 0)
(0.921567 2.5808 1.21183e-21)
(0.9642 2.52822 -8.09079e-22)
(0.840064 0.141865 0)
(0.812829 0.146003 9.08372e-20)
(0.923847 0.127979 4.71905e-19)
(0.86337 0.119839 -1.87832e-19)
(0.856516 0.0709544 -5.67253e-19)
(1.02666 0.208488 -3.05708e-19)
(0.954396 0.27888 -1.55812e-20)
(0.886679 0.275669 4.32956e-19)
(0.962396 0.199104 3.28264e-19)
(0.932817 0.158854 -5.98477e-19)
(0.909589 0.174273 7.70163e-20)
(0.929618 0.236099 -1.5389e-19)
(0.908271 0.192044 0)
(0.968193 0.159897 2.8793e-19)
(1.00258 0.159551 0)
(1.00223 0.186671 0)
(1.06489 0.105223 1.01817e-19)
(1.02506 0.149176 -1.36498e-20)
(1.02022 0.212128 -5.54876e-20)
(1.0545 0.18293 0)
(1.01845 0.0256777 2.55202e-19)
(1.03312 0.0443179 3.06104e-19)
(1.02893 0.0309551 -2.53432e-19)
(1.02739 0.0481834 -2.05554e-19)
(1.00879 0.0506462 -3.38883e-19)
(0.976351 0.124127 0)
(0.982736 0.0758846 0)
(0.971061 0.0462964 -2.30392e-19)
(0.935367 0.0573974 9.61463e-20)
(1.01041 0.0799279 2.9053e-19)
(1.02901 0.106531 -3.06153e-19)
(1.0329 0.127985 2.77129e-19)
(0.99472 0.123561 0)
(1.03935 0.0950267 0)
(1.02615 0.0792706 -1.27036e-19)
(1.02417 0.0799003 -2.33649e-19)
(0.573749 1.07361 -6.95843e-20)
(0.613885 1.42616 1.68796e-19)
(1.15051 2.75979 7.04094e-20)
(1.21758 3.09686 -6.53673e-20)
(1.24091 2.73019 5.00513e-19)
(1.27326 2.71461 -3.12598e-19)
(1.19873 2.34632 -8.30165e-21)
(1.20344 2.99899 1.70033e-19)
(1.22213 2.96283 -1.74735e-19)
(1.20967 3.25056 -2.59377e-19)
(1.37311 2.9795 3.59197e-19)
(1.36588 2.89651 0)
(0.503485 0.853175 -1.54356e-20)
(0.163628 1.29414 3.83326e-19)
(0.523222 0.546045 3.81393e-19)
(0.355428 0.316738 4.16325e-19)
(0.570325 0.436833 4.40073e-19)
(0.55623 0.502702 -7.02688e-19)
(0.550516 0.52515 5.76138e-19)
(0.522776 0.474731 -2.29176e-19)
(0.487001 0.415988 5.27095e-19)
(0.765111 0.26948 -2.03062e-19)
(0.734974 0.294176 0)
(0.725287 0.250409 1.04978e-20)
(0.720944 0.509508 2.08234e-19)
(0.701361 0.472756 -7.64952e-19)
(0.625858 0.501475 2.00403e-20)
(0.644919 0.470962 0)
(0.627251 0.737698 1.70076e-19)
(0.776619 0.75727 8.46474e-20)
(0.710973 0.844693 -1.06974e-19)
(0.824106 0.790489 -3.07506e-20)
(0.863801 0.832594 8.68869e-21)
(0.872236 0.835058 -8.8972e-21)
(0.786919 0.624698 -2.68236e-19)
(0.868026 0.686321 2.85991e-20)
(0.932387 0.697753 0)
(0.920284 0.671021 -3.43915e-20)
(0.980905 0.31417 7.65066e-20)
(1.08483 0.276453 3.4391e-20)
(1.01228 0.248311 1.24872e-19)
(0.966231 0.346221 -1.70033e-19)
(1.00867 0.40343 0)
(1.0511 0.397029 0)
(0.884668 0.343968 3.98289e-21)
(0.819152 0.285241 0)
(0.834891 0.278913 2.18451e-19)
(0.878817 0.284033 -7.65884e-21)
(0.903643 0.406493 8.87706e-19)
(0.856267 0.459637 2.27507e-19)
(0.867702 0.427559 -2.77753e-19)
(0.80854 0.414989 2.96975e-19)
(0.79564 0.409513 1.98617e-19)
(0.777364 0.401181 -1.95289e-19)
(1.02651 -0.00867176 2.70366e-19)
(1.01993 -0.00355403 0)
(1.01816 -0.00196957 1.78141e-19)
(1.02348 -0.00418763 -4.02884e-19)
(1.02344 0.000951108 1.93955e-19)
(1.02113 0.0107368 -4.0607e-19)
(1.02272 0.010594 0)
(1.02207 0.0110251 -8.58034e-20)
(1.01675 0.00647513 2.14451e-19)
(1.01662 0.0098928 -1.08388e-19)
(1.01762 0.00897095 7.91695e-20)
(-0.208787 1.402 0)
(-0.309931 1.54022 0)
(-0.204533 1.24734 0)
(-0.161305 1.27425 0)
(-0.219436 1.41913 -1.08345e-18)
(-0.0108946 1.22425 3.69951e-19)
(0.0657403 1.72706 3.0333e-19)
(0.0690082 1.37225 -2.30756e-19)
(-0.366019 1.61418 3.26691e-19)
(-0.368039 1.59732 -2.5155e-19)
(-0.262894 1.35756 1.21527e-19)
(-0.267598 1.37746 4.7741e-19)
(-0.27481 1.39675 5.43657e-20)
(-0.325546 1.5035 3.75307e-20)
(-0.144797 2.55759 3.04286e-19)
(-0.0135829 2.62591 0)
(0.102788 2.325 -4.98362e-20)
(0.0313822 1.88202 -1.9215e-19)
(0.390238 2.12922 3.71234e-20)
(0.268248 2.51299 0)
(0.275667 2.45428 -2.20901e-19)
(0.404798 2.41947 1.45261e-19)
(0.323795 2.16154 1.25811e-19)
(0.212966 2.33599 6.4791e-21)
(0.115848 2.53219 0)
(-0.36416 2.08116 1.72741e-19)
(-0.27437 2.12919 -2.52235e-20)
(-0.322443 2.05284 0)
(-0.288129 2.28223 -1.07628e-21)
(-0.36488 2.26631 -7.90433e-20)
(-0.164796 1.70904 3.57657e-22)
(-0.112661 1.72589 4.62245e-21)
(-0.110582 1.75634 -2.71687e-21)
(-0.171273 1.75825 -4.11251e-22)
(-0.222784 1.74296 0)
(-0.0902578 1.7584 0)
(-0.0295651 1.76373 1.67274e-20)
(-0.0496096 1.77989 -5.07567e-21)
(-0.0638112 1.7678 0)
(-0.0379639 1.73294 1.13337e-20)
(-0.0221355 1.73774 -2.40124e-20)
(1.03481 0.00739551 0)
(1.04192 0.0108223 -2.69435e-20)
(1.04468 0.0185496 -1.92847e-19)
(1.04341 0.0195644 0)
(1.04348 0.0206256 0)
(1.0453 0.00742513 -6.00373e-21)
(1.04077 0.00563941 3.23012e-19)
(1.04156 0.0117836 3.86795e-19)
(1.03317 0.0146391 0)
(1.03028 0.0117736 0)
(1.04059 0.0181377 1.95689e-19)
(1.03075 0.0126544 0)
(1.03069 0.0117025 0)
(-0.05686 1.8374 0)
(-0.0394878 1.81255 2.82579e-21)
(-0.0432059 1.8308 1.11162e-20)
(-0.0391683 1.78514 0)
(-0.046309 1.8084 1.12741e-20)
(-0.0376819 1.80216 -7.1881e-21)
(-0.0384509 1.79556 0)
(0.352369 1.71781 0)
(0.363225 1.35075 5.49813e-19)
(0.32704 1.38459 0)
(0.421941 1.31459 -7.32382e-19)
(0.48792 1.42185 0)
(0.444027 1.41402 3.57087e-19)
(1.02656 2.71009 -4.30707e-21)
(0.942425 2.41572 -2.72947e-19)
(0.867617 2.14887 3.78923e-19)
(0.83737 2.35447 1.40945e-19)
(0.843673 2.53025 0)
(0.904264 2.52412 0)
(0.880633 2.37166 0)
(0.913682 2.32079 -4.96063e-19)
(0.675077 2.50659 -5.30227e-20)
(0.801819 2.5055 -2.03961e-20)
(0.8062 2.47657 1.56719e-20)
(0.680653 2.34598 0)
(0.779607 2.35103 0)
(0.747791 2.35332 -2.384e-19)
(0.753317 2.5073 0)
(0.580495 1.08424 0)
(0.466008 0.924528 -3.95134e-20)
(0.514381 0.955444 -3.7728e-21)
(0.503178 1.05071 0)
(0.499359 1.00603 6.3215e-20)
(0.733942 0.871395 2.2203e-21)
(0.759161 1.00448 0)
(0.729603 0.962249 -4.11279e-20)
(0.594855 1.02593 0)
(0.613946 0.937746 0)
(1.157 2.77452 2.81628e-20)
(1.13386 2.8412 9.97261e-20)
(0.937826 2.36845 -2.39567e-19)
(0.906112 2.34062 2.55985e-20)
(1.12136 2.74521 0)
(1.07313 2.71594 -3.04666e-20)
(1.07444 2.48679 -9.60354e-20)
(0.968136 2.21835 -2.98851e-20)
(0.504965 1.36517 0)
(0.505531 1.0616 6.13389e-20)
(0.558946 1.13751 0)
(0.856929 0.211199 0)
(0.818925 0.158241 0)
(0.777736 0.161754 0)
(0.84081 0.222337 -3.42932e-19)
(0.788819 0.22586 2.11899e-19)
(0.938893 0.0528008 -1.97994e-19)
(0.9453 0.0999156 0)
(0.924635 0.105681 8.86965e-20)
(0.889454 0.0806004 3.62453e-19)
(0.88361 0.0501853 -2.23662e-19)
(1.16175 3.37666 -9.65779e-19)
(1.20661 3.29628 0)
(1.16334 3.40332 -1.91161e-18)
(0.650671 3.56465 1.63881e-18)
(0.875604 3.13127 3.7065e-19)
(0.489973 0.873598 2.37821e-19)
(0.414188 0.861207 0)
(0.352272 0.562968 -8.73198e-20)
(0.420953 0.694842 4.07833e-19)
(0.522773 0.541571 -1.20481e-19)
(0.50588 0.56609 1.35458e-19)
(0.639783 0.552276 2.90955e-19)
(0.664831 0.548528 0)
(0.606579 0.637256 0)
(0.570094 0.572769 0)
(0.921986 0.576659 -3.64281e-20)
(0.854071 0.512391 -2.2044e-19)
(0.87477 0.545528 1.20232e-19)
(0.918235 0.48362 -1.62385e-19)
(1.00786 0.468458 0)
(1.02841 0.545525 -1.57228e-20)
(0.833863 0.372581 -4.37689e-19)
(0.833721 0.35831 -5.16449e-19)
(0.79259 0.372335 3.44262e-19)
(0.774646 0.348259 -3.83311e-19)
(0.822843 0.30511 -2.88058e-19)
(0.781981 0.303417 3.53623e-19)
(1.02934 0.000965551 -2.06575e-19)
(1.03134 -0.000834676 4.21512e-19)
(1.02815 -0.00923086 2.58025e-19)
(1.0325 -0.0107583 -3.0976e-19)
(1.03745 0.000111875 0)
(1.03631 0.00261792 -5.08018e-19)
(-0.390544 1.97641 -4.76881e-20)
(-0.378508 1.82342 0)
(-0.245659 1.92185 -8.82101e-19)
(-0.129186 1.88185 8.26156e-19)
(-0.0656481 1.69708 -5.64524e-19)
(-0.26753 1.73249 0)
(-0.103844 1.83145 0)
(-0.0853369 1.78494 -5.16116e-21)
(-0.0628279 1.78738 4.66685e-21)
(-0.0564724 1.80566 3.72172e-21)
(-0.0697774 1.83941 -1.28606e-20)
(-0.0796862 1.83719 9.27139e-21)
(0.496228 1.38694 3.67402e-19)
(0.464056 1.40041 -3.942e-19)
(0.440956 1.29963 3.68877e-19)
(0.397216 1.32286 -2.30255e-20)
(0.623099 1.29123 0)
(0.551754 1.38515 4.98878e-19)
(0.575501 1.35462 -4.83353e-19)
(0.458329 1.27079 -3.62574e-19)
(0.499024 1.22166 0)
(0.556516 1.17549 0)
(0.624283 2.45801 7.75644e-20)
(0.663507 2.47152 6.25234e-19)
(0.700591 2.48379 -4.2695e-19)
(0.611662 2.45723 -1.3205e-19)
(0.558221 2.56383 1.43509e-19)
(0.55497 2.53498 -3.96595e-19)
(0.954754 2.36745 -2.06818e-19)
(0.99805 2.3895 0)
(0.89044 2.13101 -2.79988e-19)
(1.04277 2.69837 0)
(1.04292 2.68728 0)
(0.618302 2.30695 2.28763e-19)
(1.03899 3.17968 4.62589e-19)
(0.910501 3.05092 -4.15501e-19)
(0.296452 0.978047 0)
(0.346499 0.847125 -1.57693e-19)
(0.484307 0.789267 -7.90862e-20)
(0.410731 2.05834 0)
(0.475821 2.8002 -2.5804e-19)
(0.436074 2.56625 0)
(0.636047 0.685008 -3.54114e-19)
(0.709959 0.663629 4.64005e-19)
(0.735213 0.608083 -4.55681e-19)
(0.622716 0.648844 -5.1728e-20)
(0.685498 0.60199 -2.12369e-19)
(0.998847 2.78785 -3.51627e-19)
(1.03277 2.84364 2.50889e-19)
(0.646809 2.1995 8.28265e-20)
(0.596084 1.74822 -8.99095e-20)
(0.693281 1.93293 5.93722e-20)
(0.984641 2.47117 -7.45717e-20)
(0.989121 2.47338 -1.21184e-19)
(0.666188 1.88392 -2.33156e-21)
(0.441583 1.35209 -5.4385e-20)
)
;

boundaryField
{
    wall-4
    {
        type            noSlip;
    }
    velocity-inlet-5
    {
        type            fixedValue;
        value           uniform (1 0 0);
    }
    velocity-inlet-6
    {
        type            fixedValue;
        value           uniform (0 3 0);
    }
    pressure-outlet-7
    {
        type            zeroGradient;
    }
    wall-8
    {
        type            noSlip;
    }
    frontAndBackPlanes
    {
        type            empty;
    }
}


// ************************************************************************* //
