/*--------------------------------*- C++ -*----------------------------------*\
  =========                 |
  \\      /  F ield         | OpenFOAM: The Open Source CFD Toolbox
   \\    /   O peration     | Website:  https://openfoam.org
    \\  /    A nd           | Version:  9
     \\/     M anipulation  |
\*---------------------------------------------------------------------------*/
FoamFile
{
    format      ascii;
    class       volScalarField;
    location    "15";
    object      p;
}
// * * * * * * * * * * * * * * * * * * * * * * * * * * * * * * * * * * * * * //

dimensions      [0 2 -2 0 0 0 0];

internalField   nonuniform List<scalar> 
8800
(
0.391206
0.343174
0.304826
0.276222
0.255647
0.240953
0.230403
0.222933
0.21809
0.215943
0.216994
0.22094
0.227364
0.236485
0.249062
0.266515
0.290862
0.324405
0.366799
0.423907
0.223679
0.2309
0.239373
0.242834
0.240975
0.235518
0.228874
0.222782
0.218064
0.215162
0.214717
0.216976
0.221211
0.226946
0.233641
0.240092
0.244091
0.243485
0.23734
0.228307
0.20025
0.206467
0.210753
0.214216
0.216824
0.217739
0.216749
0.214674
0.212615
0.211562
0.212312
0.214446
0.216988
0.218911
0.21918
0.217437
0.214407
0.210616
0.205984
0.202185
0.194998
0.197737
0.200587
0.203051
0.204844
0.206298
0.2073
0.207565
0.207308
0.207146
0.20764
0.208461
0.208913
0.208547
0.207471
0.206013
0.204021
0.201305
0.198744
0.197211
0.189673
0.191126
0.193154
0.195488
0.197484
0.198963
0.200093
0.201022
0.20171
0.202206
0.202526
0.202562
0.202211
0.201517
0.200481
0.198913
0.196829
0.194593
0.193076
0.192275
0.18474
0.185666
0.187198
0.189172
0.191223
0.193111
0.194641
0.195811
0.196736
0.197434
0.197791
0.197715
0.197233
0.196296
0.194851
0.193054
0.191152
0.189407
0.188358
0.187862
0.180198
0.180814
0.18218
0.18403
0.185917
0.187798
0.189617
0.191184
0.192384
0.193244
0.193679
0.193565
0.192852
0.191629
0.190107
0.188468
0.186734
0.185142
0.184294
0.184
0.176774
0.177127
0.178231
0.179834
0.18145
0.18297
0.184418
0.185855
0.187214
0.18832
0.188835
0.188702
0.188134
0.187301
0.186258
0.184972
0.183528
0.182215
0.181603
0.181466
0.174661
0.174859
0.175591
0.176774
0.178098
0.179531
0.181022
0.182467
0.183819
0.184999
0.185716
0.185828
0.185466
0.184725
0.183782
0.182802
0.181779
0.180933
0.180571
0.180501
0.1727
0.17283
0.173229
0.1739
0.174758
0.175765
0.176906
0.178239
0.17966
0.181019
0.181951
0.182303
0.182238
0.181991
0.18153
0.181018
0.180581
0.180221
0.180047
0.179994
0.169991
0.17008
0.170352
0.170822
0.171444
0.172297
0.173425
0.174726
0.176189
0.177731
0.178966
0.179662
0.179914
0.179836
0.179757
0.179642
0.179452
0.179291
0.179197
0.179155
0.166597
0.166655
0.166899
0.167357
0.167962
0.168746
0.169832
0.171203
0.172835
0.174665
0.176248
0.177278
0.177847
0.178133
0.178255
0.178289
0.178233
0.178148
0.178104
0.178078
0.162747
0.162778
0.163005
0.163477
0.164147
0.164955
0.16611
0.167584
0.16942
0.171575
0.173615
0.175095
0.176052
0.176654
0.177018
0.177177
0.177187
0.177156
0.177155
0.177139
0.158563
0.158586
0.158799
0.159285
0.159997
0.160982
0.162245
0.163928
0.166085
0.168717
0.171307
0.173286
0.174661
0.175535
0.176051
0.176399
0.176525
0.176581
0.176617
0.176605
0.153957
0.153989
0.154199
0.154694
0.155462
0.15654
0.158016
0.160003
0.162605
0.165853
0.169137
0.171713
0.173552
0.174798
0.175601
0.176091
0.176362
0.176512
0.176578
0.176566
0.148729
0.148756
0.149002
0.149533
0.150394
0.151644
0.153399
0.155809
0.159008
0.16305
0.167185
0.170484
0.172831
0.174495
0.1756
0.176306
0.176736
0.17698
0.177075
0.177059
0.142671
0.142701
0.143001
0.143623
0.144628
0.146123
0.148262
0.151234
0.155209
0.160262
0.165455
0.169608
0.172666
0.174775
0.176211
0.177152
0.177743
0.178077
0.178201
0.178181
0.135541
0.135578
0.135941
0.136722
0.13796
0.139792
0.142458
0.146173
0.151151
0.157488
0.164011
0.169248
0.173061
0.175736
0.177559
0.178766
0.179532
0.179965
0.180118
0.180091
0.127055
0.127106
0.127571
0.128537
0.130111
0.132446
0.135808
0.14049
0.146763
0.154723
0.16289
0.16943
0.174179
0.177515
0.179798
0.181317
0.18228
0.182821
0.183015
0.182981
0.116842
0.116913
0.117513
0.118757
0.120779
0.123779
0.128068
0.134036
0.141982
0.151981
0.162165
0.170276
0.176157
0.180291
0.183128
0.185021
0.186224
0.186896
0.187132
0.187087
0.104348
0.104446
0.105233
0.106873
0.109526
0.113424
0.118994
0.126668
0.136758
0.149302
0.161945
0.17195
0.179188
0.184278
0.187778
0.190123
0.191616
0.192443
0.192734
0.192677
0.0887819
0.0889135
0.089978
0.0922069
0.0957688
0.100954
0.108276
0.118205
0.13105
0.146752
0.162357
0.174615
0.183469
0.189707
0.19401
0.196907
0.198763
0.199776
0.200129
0.200059
0.0689931
0.0691829
0.0706799
0.0738069
0.0787122
0.0857559
0.0955195
0.108485
0.124866
0.144436
0.163552
0.178446
0.189201
0.196813
0.202098
0.205685
0.208003
0.209275
0.209699
0.209606
0.0431844
0.0434853
0.0457139
0.0503074
0.0573398
0.0671835
0.0804435
0.0974833
0.118322
0.142526
0.165703
0.183612
0.196564
0.205805
0.212299
0.216769
0.21969
0.221299
0.221828
0.221703
0.00818568
0.00873907
0.0124709
0.0198362
0.0304916
0.044724
0.0629837
0.0853788
0.111688
0.141275
0.169002
0.190249
0.20567
0.21681
0.224787
0.230409
0.234162
0.236241
0.236899
0.236729
-0.0420313
-0.0402839
-0.0326589
-0.0196376
-0.00266641
0.0183171
0.0434616
0.0726214
0.105376
0.14097
0.173594
0.198401
0.216498
0.229776
0.239535
0.246655
0.251613
0.25447
0.255362
0.255122
-0.117084
-0.107574
-0.0902399
-0.067072
-0.0406403
-0.0106965
0.0228472
0.0597975
0.0997161
0.141888
0.179885
0.208699
0.229944
0.245882
0.258019
0.267384
0.274366
0.278782
0.280394
0.280428
-0.19683
-0.176172
-0.148398
-0.114869
-0.0787492
-0.0397588
0.00222792
0.0471183
0.0945939
0.144077
0.188483
0.222396
0.247804
0.267332
0.282696
0.294999
0.304785
0.312171
0.315225
0.315435
-0.260521
-0.237165
-0.201136
-0.159355
-0.114719
-0.0673274
-0.0172955
0.0352396
0.0899682
0.146354
0.196623
0.234963
0.263789
0.286087
0.303749
0.317953
0.329228
0.337697
0.340545
0.341003
-0.311826
-0.286265
-0.245557
-0.197867
-0.14669
-0.0924723
-0.0355053
0.0238895
0.0852514
0.147939
0.203387
0.245383
0.276724
0.300757
0.31959
0.334615
0.346448
0.354963
0.358234
0.35873
-0.353495
-0.327159
-0.283019
-0.230953
-0.174688
-0.11498
-0.0521989
0.0131343
0.0803814
0.148715
0.208675
0.253609
0.286748
0.311851
0.331288
0.346608
0.358553
0.36701
0.370469
0.370951
-0.388887
-0.362149
-0.315578
-0.259922
-0.199546
-0.135264
-0.067559
0.00294393
0.075437
0.148842
0.212871
0.260426
0.2951
0.321033
0.340826
0.356179
0.368023
0.376329
0.379936
0.380408
-0.419975
-0.393064
-0.344633
-0.286102
-0.22225
-0.154016
-0.0819816
-0.00686576
0.0704049
0.148568
0.216446
0.266413
0.30244
0.329045
0.349098
0.364471
0.376227
0.384385
0.388015
0.388486
-0.448223
-0.421163
-0.371211
-0.310258
-0.243424
-0.171759
-0.0958867
-0.0165906
0.0651018
0.147724
0.21926
0.271619
0.309042
0.336391
0.356783
0.37225
0.383963
0.391952
0.395582
0.396064
-0.474466
-0.447267
-0.396048
-0.33298
-0.263596
-0.188927
-0.109634
-0.0265499
0.059224
0.14614
0.221428
0.276335
0.315301
0.343516
0.364337
0.379966
0.391689
0.399574
0.403118
0.403666
-0.499378
-0.471979
-0.419615
-0.354702
-0.28307
-0.205747
-0.123415
-0.0368921
0.0527447
0.143884
0.223002
0.28064
0.32136
0.350621
0.372009
0.387901
0.399689
0.407503
0.410939
0.411495
-0.52321
-0.49557
-0.44213
-0.375747
-0.302084
-0.222405
-0.137339
-0.0476469
0.0456084
0.140836
0.223878
0.284514
0.327271
0.35782
0.379956
0.396236
0.408173
0.415949
0.419248
0.419761
-0.546326
-0.518318
-0.464048
-0.396247
-0.320786
-0.239015
-0.15149
-0.0589384
0.0376659
0.136867
0.223964
0.28789
0.333004
0.36513
0.388235
0.405053
0.417228
0.425021
0.428175
0.428592
-0.56875
-0.54041
-0.485453
-0.416274
-0.339236
-0.255633
-0.165939
-0.0708133
0.0288912
0.131916
0.223135
0.290636
0.338479
0.37251
0.396851
0.414398
0.426922
0.434764
0.437796
0.438055
-0.59054
-0.561784
-0.506276
-0.435873
-0.357472
-0.272266
-0.180663
-0.0832425
0.0192813
0.125908
0.221246
0.292583
0.343558
0.379892
0.405768
0.424248
0.437237
0.445149
0.448063
0.448154
-0.61177
-0.58271
-0.52647
-0.455049
-0.375478
-0.288866
-0.195606
-0.0961869
0.00884279
0.118798
0.218168
0.293513
0.348017
0.387118
0.414903
0.434552
0.448126
0.456118
0.458881
0.458806
-0.632484
-0.602985
-0.546091
-0.473782
-0.39319
-0.305384
-0.210712
-0.109587
-0.00237346
0.110574
0.213787
0.293211
0.351558
0.393939
0.424136
0.445262
0.459504
0.46752
0.470023
0.469805
-0.652514
-0.622601
-0.565109
-0.492035
-0.410566
-0.32175
-0.225908
-0.123348
-0.0142872
0.101274
0.208016
0.291467
0.353879
0.400062
0.433329
0.45638
0.47135
0.47921
0.48134
0.48096
-0.671827
-0.641547
-0.583505
-0.509753
-0.427543
-0.337893
-0.241089
-0.137376
-0.0268001
0.090953
0.200826
0.288089
0.354635
0.405056
0.442222
0.468021
0.483873
0.491083
0.492464
0.491923
-0.690483
-0.659756
-0.601245
-0.526897
-0.444057
-0.35373
-0.256165
-0.151555
-0.039798
0.0797129
0.192213
0.282952
0.353465
0.408314
0.450265
0.480237
0.497834
0.503617
0.503052
0.502279
-0.708329
-0.677244
-0.618278
-0.543409
-0.460054
-0.369184
-0.27104
-0.16577
-0.0531456
0.0676889
0.182249
0.275978
0.350095
0.409113
0.456429
0.492488
0.514418
0.519502
0.514464
0.511937
-0.725455
-0.694006
-0.634627
-0.559315
-0.475567
-0.384303
-0.28577
-0.180078
-0.0669082
0.0548164
0.170826
0.266935
0.34424
0.406659
0.45906
0.502842
0.533131
0.543875
0.535496
0.518317
-0.741813
-0.710042
-0.650422
-0.574788
-0.490872
-0.3994
-0.300749
-0.194951
-0.0816273
0.0404245
0.157225
0.254917
0.335053
0.399745
0.454951
0.50575
0.543795
0.555597
0.540806
0.520808
-0.757272
-0.72544
-0.665507
-0.5896
-0.505728
-0.414163
-0.315759
-0.21006
-0.0969652
0.0248515
0.141694
0.239798
0.322169
0.388087
0.439923
0.490395
0.524698
0.523446
0.455653
0.414677
-0.771436
-0.741229
-0.679469
-0.603184
-0.51948
-0.428131
-0.330532
-0.22517
-0.112681
0.00828873
0.124309
0.221559
0.304922
0.372655
0.41458
0.445803
0.464164
0.421914
0.346385
0.298124
-0.818272
-0.755072
-0.692078
-0.616778
-0.533235
-0.442449
-0.345062
-0.240474
-0.129031
-0.00956832
0.104686
0.200023
0.28122
0.35472
0.370605
0.374996
0.348388
0.283364
0.19782
0.150781
-0.782917
-0.76751
-0.710004
-0.63662
-0.553198
-0.463127
-0.366984
-0.263756
-0.154328
-0.0378936
0.0720288
0.162966
0.235804
0.30016
0.307831
0.189131
0.0750741
-0.00416465
-0.0862235
-0.0390804
-0.810966
-0.782838
-0.724956
-0.651385
-0.568624
-0.479126
-0.38318
-0.281046
-0.173308
-0.0595882
0.0462982
0.132246
0.197522
0.231126
0.179848
0.0153398
-0.133273
-0.239609
-0.355844
-0.280498
-0.83166
-0.800734
-0.741976
-0.668097
-0.585644
-0.496494
-0.40103
-0.300158
-0.194392
-0.0838921
0.0172701
0.0966877
0.152071
0.156049
0.0365264
-0.178237
-0.361789
-0.504756
-0.67288
-0.599851
-0.851303
-0.819177
-0.759499
-0.68508
-0.602681
-0.513876
-0.419233
-0.319734
-0.216109
-0.109207
-0.0135308
0.0586634
0.100129
0.0652937
-0.125646
-0.37727
-0.612985
-0.82663
-1.06663
-1.04182
-0.869792
-0.83771
-0.777457
-0.7026
-0.620242
-0.531851
-0.438127
-0.34009
-0.238833
-0.135882
-0.0462211
0.0183832
0.0426115
-0.0363596
-0.28307
-0.564801
-0.849635
-1.0983
-1.43307
-1.75496
-0.888159
-0.856465
-0.796059
-0.72097
-0.63867
-0.550664
-0.457794
-0.361219
-0.262401
-0.163523
-0.0800634
-0.0236072
-0.0178002
-0.14755
-0.424218
-0.716613
-1.01331
-1.2482
-1.3694
-1.58812
-0.907004
-0.875663
-0.815541
-0.740418
-0.658306
-0.57077
-0.478839
-0.383877
-0.287771
-0.193376
-0.116714
-0.0694253
-0.0869147
-0.276145
-0.55022
-0.831374
-1.08438
-1.23497
-1.26474
-1.29485
-0.926626
-0.895616
-0.835833
-0.760943
-0.679149
-0.592233
-0.501437
-0.408345
-0.315314
-0.226007
-0.156826
-0.119905
-0.168379
-0.399819
-0.663512
-0.920229
-1.12662
-1.20732
-1.22385
-1.22679
-0.947172
-0.916417
-0.857001
-0.782404
-0.701041
-0.614925
-0.525454
-0.434484
-0.344896
-0.261319
-0.200082
-0.175832
-0.253909
-0.518897
-0.770054
-0.999995
-1.17353
-1.20761
-1.19983
-1.19716
-0.968475
-0.938
-0.878875
-0.804666
-0.723866
-0.638675
-0.550706
-0.462102
-0.376233
-0.298985
-0.246073
-0.237319
-0.342618
-0.634737
-0.875797
-1.05689
-1.15679
-1.17792
-1.17695
-1.17537
-0.990294
-0.96006
-0.901257
-0.827554
-0.74738
-0.663243
-0.576938
-0.490918
-0.408962
-0.338486
-0.294757
-0.299792
-0.4459
-0.740235
-0.997372
-1.08343
-1.10438
-1.14878
-1.16393
-1.16727
-1.01192
-0.982267
-0.923912
-0.850701
-0.771193
-0.688255
-0.603762
-0.520461
-0.44257
-0.378981
-0.34548
-0.362446
-0.567178
-0.836575
-1.14905
-1.23115
-1.19588
-1.20467
-1.20252
-1.20215
-1.03289
-1.0037
-0.946413
-0.873624
-0.79488
-0.713115
-0.63063
-0.550055
-0.476283
-0.419118
-0.396343
-0.429148
-0.692665
-0.960342
-1.29021
-1.68453
-1.46245
-1.34096
-1.28772
-1.27739
-1.05258
-1.02412
-0.967629
-0.895605
-0.817807
-0.737345
-0.656717
-0.578796
-0.508957
-0.457306
-0.445251
-0.497966
-0.807138
-1.08935
-1.13144
-1.08822
-1.31874
-1.52764
-1.55835
-1.52611
-1.06987
-1.04248
-0.987019
-0.915785
-0.838947
-0.759926
-0.681238
-0.605609
-0.539152
-0.491838
-0.49017
-0.555771
-0.916885
-1.18793
-1.01311
-0.876174
-1.27016
-1.70714
-1.76863
-1.77204
-1.08365
-1.05769
-1.00352
-0.933112
-0.857269
-0.779747
-0.702835
-0.629478
-0.565069
-0.520747
-0.52375
-0.592098
-1.08115
-1.73789
-2.40834
-2.82938
-3.0011
-2.66298
-2.24535
-2.15394
-1.0926
-1.06845
-1.0159
-0.946324
-0.871549
-0.795524
-0.720412
-0.648996
-0.585225
-0.539718
-0.536288
-0.624554
-1.23602
-2.21568
-3.44342
-4.09701
-4.27867
-3.99169
-3.47952
-3.17866
-1.09547
-1.07336
-1.02261
-0.954075
-0.880362
-0.805991
-0.732932
-0.663205
-0.598284
-0.545967
-0.528595
-0.581654
-1.13246
-1.92936
-2.94734
-3.58431
-3.62242
-3.28582
-2.87947
-2.63135
-1.09023
-1.0707
-1.02192
-0.954451
-0.882121
-0.809886
-0.739402
-0.671311
-0.60489
-0.53886
-0.485628
-0.463953
-0.627288
-0.903908
-1.04339
-0.992792
-0.729468
-0.375791
-0.1064
0.0150728
-1.07442
-1.05724
-1.01122
-0.945413
-0.875254
-0.805928
-0.739132
-0.674436
-0.607161
-0.523952
-0.423518
-0.318921
-0.110449
0.25972
0.748358
1.28173
1.75937
2.07653
2.23694
2.27757
-1.04608
-1.03128
-0.988321
-0.925394
-0.858426
-0.793565
-0.732783
-0.675409
-0.613368
-0.519741
-0.382188
-0.190934
0.0907036
0.605447
1.2952
1.92499
2.38923
2.65849
2.77495
2.80172
-1.00337
-0.990916
-0.951514
-0.892895
-0.830988
-0.772929
-0.721718
-0.678852
-0.637536
-0.557457
-0.398247
-0.150119
0.103744
0.548651
1.14307
1.65807
2.02659
2.2396
2.33596
2.3624
-0.942938
-0.932627
-0.898806
-0.847519
-0.793409
-0.745065
-0.708044
-0.688939
-0.690828
-0.692795
-0.59709
-0.315375
0.021415
0.337524
0.798036
1.19442
1.48641
1.66348
1.74997
1.77416
-0.867829
-0.859514
-0.833005
-0.791001
-0.747201
-0.711073
-0.692376
-0.709946
-0.801522
-1.00974
-1.12311
-0.806275
-0.329866
0.00815168
0.401503
0.739894
0.989732
1.13992
1.21094
1.21883
-0.781849
-0.775817
-0.755602
-0.724179
-0.691992
-0.668392
-0.667998
-0.726411
-0.939312
-1.44798
-1.90335
-1.51601
-0.907354
-0.433805
-0.0167748
0.304084
0.512839
0.624329
0.672568
0.681837
-0.677348
-0.674645
-0.662302
-0.641921
-0.621173
-0.608302
-0.618586
-0.690884
-0.931227
-1.49457
-1.96615
-1.62382
-1.06289
-0.581386
-0.184868
0.0807931
0.231599
0.308337
0.345972
0.353735
-0.565294
-0.564658
-0.557078
-0.544358
-0.531427
-0.524102
-0.534684
-0.593957
-0.78475
-1.20675
-1.52403
-1.27205
-0.841768
-0.444342
-0.16548
-0.00822274
0.0691575
0.105773
0.121465
0.124818
-0.451382
-0.450858
-0.445997
-0.437237
-0.427791
-0.421118
-0.424456
-0.456562
-0.561822
-0.785676
-0.923631
-0.742046
-0.459393
-0.225842
-0.0867958
-0.0213519
0.00789773
0.0215159
0.0273114
0.0282945
-0.338433
-0.338336
-0.335022
-0.328619
-0.320904
-0.313208
-0.308478
-0.314658
-0.348139
-0.418231
-0.423976
-0.312225
-0.148819
-0.0461145
-0.00327233
0.0113974
0.015235
0.0157081
0.0154204
0.0149466
-0.23367
-0.233826
-0.232111
-0.228023
-0.222134
-0.21428
-0.204918
-0.195772
-0.189508
-0.180952
-0.134293
-0.0582133
0.00520988
0.0431617
0.049672
0.0465863
0.0414593
0.0372441
0.0348472
0.0338279
-0.14435
-0.144721
-0.144608
-0.143016
-0.139358
-0.132771
-0.122645
-0.108166
-0.0875921
-0.0560261
-0.00697144
0.0413145
0.0660134
0.0784182
0.0761886
0.0698877
0.0636646
0.0590846
0.0565711
0.0555256
-0.0748873
-0.0753589
-0.0763309
-0.0766344
-0.0751269
-0.0706896
-0.0622386
-0.0481871
-0.0263212
0.00591136
0.0440851
0.074324
0.0862724
0.0899284
0.0868028
0.0814924
0.0763276
0.0725168
0.070461
0.0695865
-0.0252976
-0.0257604
-0.0271605
-0.0284488
-0.028364
-0.0259078
-0.0199211
-0.0087726
0.00936348
0.0355188
0.062876
0.0820396
0.0896103
0.0909582
0.088509
0.0845341
0.0805599
0.0776116
0.0760438
0.0753662
0.00764696
0.00725675
0.00586308
0.00421911
0.00353343
0.00470873
0.00867672
0.0167416
0.0302299
0.0495163
0.0686018
0.0810845
0.0864184
0.0870962
0.0852091
0.0822491
0.079211
0.0769099
0.0757175
0.0752113
0.0281046
0.0278011
0.0266198
0.0250209
0.023964
0.0242542
0.0267353
0.0323323
0.0418411
0.0553815
0.0685085
0.0767268
0.0803506
0.0807321
0.0793483
0.0771222
0.074763
0.0729515
0.0720415
0.0716716
0.0398698
0.0396406
0.038723
0.0373624
0.0362977
0.036105
0.0374263
0.0410305
0.047506
0.0567831
0.0656902
0.0711082
0.0735596
0.0737635
0.0726456
0.0708976
0.0690401
0.0675963
0.066896
0.0666284
0.0459356
0.0457595
0.0450756
0.0439842
0.0430536
0.0427012
0.043379
0.0455711
0.0497234
0.0558872
0.0619003
0.0654944
0.0669965
0.0669327
0.065973
0.0645722
0.0630865
0.0619327
0.0613922
0.061198
0.0483887
0.0482464
0.047719
0.0468394
0.046025
0.0455695
0.0458179
0.0471302
0.0497779
0.0537529
0.0576358
0.0598869
0.0607194
0.0605152
0.0596845
0.0585438
0.0573566
0.0564435
0.0560291
0.055887
0.0485075
0.0483901
0.0479644
0.0472368
0.04652
0.0460197
0.0459646
0.0466049
0.0481739
0.0506659
0.0531311
0.0545198
0.0549158
0.0546005
0.0538649
0.0529349
0.0519906
0.051276
0.0509602
0.0508549
0.0470512
0.0469549
0.0466039
0.0459925
0.0453594
0.0448555
0.0446412
0.0448829
0.0457254
0.047187
0.0486561
0.0494185
0.0495136
0.049141
0.0484986
0.047737
0.0469858
0.0464275
0.0461857
0.0461069
0.0444985
0.0444205
0.0441294
0.0436109
0.0430497
0.0425561
0.0422399
0.0422207
0.0426021
0.0433873
0.044181
0.0445304
0.0444439
0.0440535
0.0434949
0.0428723
0.042276
0.0418403
0.0416546
0.0415952
0.0411807
0.0411186
0.040882
0.0404496
0.039964
0.0395062
0.0391516
0.0389779
0.0390568
0.0393979
0.0397559
0.0398381
0.0396426
0.0392579
0.0387768
0.0382676
0.0377925
0.0374508
0.0373073
0.0372624
0.0373451
0.0372962
0.0371077
0.0367537
0.0363428
0.0359346
0.0355797
0.0353306
0.0352368
0.0353008
0.0353781
0.0352926
0.0350406
0.0346792
0.0342682
0.0338523
0.0334737
0.0332057
0.0330949
0.0330609
0.0331718
0.0331334
0.0329859
0.0327022
0.0323628
0.0320112
0.0316799
0.031404
0.0312166
0.0311195
0.031034
0.0308569
0.0305867
0.0302592
0.0299117
0.0295733
0.029272
0.0290622
0.0289767
0.0289509
0.0287893
0.0287593
0.0286456
0.0284228
0.0281493
0.0278562
0.0275635
0.0272938
0.0270688
0.0268893
0.0267168
0.0264999
0.0262374
0.0259493
0.0256594
0.0253862
0.0251483
0.0249856
0.0249199
0.0249004
0.0242848
0.0242615
0.0241747
0.0240028
0.0237871
0.0235494
0.0233017
0.0230582
0.0228326
0.0226252
0.0224213
0.0221992
0.0219599
0.0217151
0.0214788
0.0212612
0.0210749
0.0209491
0.0208988
0.0208841
0.0197145
0.0196965
0.0196311
0.019501
0.0193352
0.0191486
0.0189483
0.0187424
0.0185393
0.0183385
0.0181381
0.0179351
0.0177303
0.0175303
0.017343
0.0171739
0.0170306
0.0169347
0.0168965
0.0168855
0.0151099
0.0150966
0.0150482
0.0149523
0.0148291
0.0146889
0.0145354
0.0143732
0.0142067
0.0140353
0.0138636
0.0136961
0.0135338
0.013379
0.0132363
0.0131089
0.0130018
0.0129302
0.0129019
0.0128938
0.010486
0.0104766
0.0104427
0.0103758
0.0102901
0.0101926
0.0100853
0.00997035
0.00984999
0.00972364
0.00959629
0.009474
0.0093581
0.00924912
0.00914896
0.00905946
0.00898391
0.00893312
0.00891312
0.00890734
0.00584603
0.00584035
0.00582051
0.00578084
0.00573097
0.00567556
0.00561479
0.00554935
0.00547956
0.00540537
0.00532974
0.00525772
0.00519046
0.00512837
0.00507184
0.00502052
0.00497597
0.00494586
0.00493419
0.00493019
0.00119542
0.00119641
0.00120142
0.00119779
0.00118583
0.0011712
0.0011548
0.00113677
0.00111695
0.00109457
0.00107064
0.00104814
0.00102755
0.00100897
0.000992245
0.000977119
0.000963929
0.000955422
0.000956998
0.000960744
-0.80364
-0.549353
-0.284474
-0.0722174
0.0999506
0.239086
0.357327
0.456527
0.499237
0.483609
-0.367043
-0.205735
-0.0414181
0.0998483
0.219706
0.320368
0.402147
0.460331
0.491485
0.50343
-0.082089
0.0238844
0.132977
0.230544
0.314709
0.385335
0.441405
0.482679
0.511825
0.528827
0.114915
0.187565
0.264106
0.333803
0.394305
0.445444
0.487197
0.520347
0.546071
0.563776
0.263423
0.315301
0.370943
0.422498
0.46816
0.507706
0.541208
0.568908
0.590757
0.60833
0.382457
0.420572
0.464861
0.505423
0.542432
0.575372
0.603909
0.627754
0.646135
0.663551
0.483824
0.51576
0.553678
0.589098
0.621811
0.651348
0.677052
0.698271
0.713792
0.731189
0.578
0.60931
0.645627
0.679792
0.711145
0.739228
0.763341
0.782669
0.795946
0.81343
0.676762
0.711476
0.749294
0.784242
0.815368
0.842449
0.865115
0.882777
0.894653
0.912507
0.793768
0.832915
0.87199
0.906989
0.936914
0.962161
0.982929
0.999007
1.01063
1.02903
0.939822
0.979723
1.01565
1.04651
1.07248
1.09489
1.11419
1.12995
1.14278
1.16096
1.11509
1.14753
1.17362
1.19621
1.2165
1.23545
1.25324
1.26993
1.28578
1.30402
1.30315
1.32088
1.33663
1.3534
1.36969
1.38435
1.39749
1.41154
1.4287
1.44841
1.48514
1.49612
1.50834
1.51918
1.52848
1.53815
1.54916
1.56082
1.57082
1.58602
1.69629
1.69834
1.6832
1.66799
1.66171
1.66744
1.68607
1.71653
1.7487
1.77946
2.00218
1.86515
1.78896
1.747
1.72957
1.73361
1.76102
1.81715
1.92062
2.13591
0.287465
0.284101
0.278201
0.268435
0.255548
0.243192
0.232956
0.225083
0.21946
0.216141
0.21562
0.218106
0.222964
0.229967
0.239191
0.250711
0.263714
0.275611
0.283009
0.287694
0.205389
0.211287
0.218244
0.223552
0.226473
0.226237
0.223434
0.219583
0.21605
0.213709
0.213381
0.215326
0.218735
0.222829
0.226538
0.22833
0.227058
0.222836
0.216838
0.209741
0.19759
0.19994
0.203373
0.206396
0.208736
0.210659
0.211735
0.211595
0.210633
0.209683
0.209657
0.210807
0.212286
0.213225
0.21298
0.211559
0.209529
0.206991
0.203683
0.200653
0.192304
0.193382
0.195377
0.19798
0.200165
0.201738
0.202961
0.203892
0.204379
0.204575
0.204861
0.205299
0.205488
0.20513
0.204293
0.203106
0.201372
0.198992
0.196627
0.195137
0.187163
0.187785
0.189049
0.191064
0.19318
0.195065
0.196529
0.197675
0.198647
0.199434
0.199933
0.200023
0.199725
0.199102
0.198124
0.196664
0.194776
0.192771
0.191126
0.190274
0.182395
0.182786
0.183776
0.185543
0.187529
0.18955
0.191474
0.193044
0.194202
0.195049
0.19563
0.195845
0.19556
0.194721
0.193317
0.191576
0.18975
0.187961
0.186589
0.186008
0.178291
0.178493
0.179276
0.180865
0.182642
0.184325
0.185945
0.187569
0.189075
0.19029
0.191054
0.191161
0.190663
0.189727
0.188577
0.187255
0.185738
0.184139
0.182967
0.182597
0.17561
0.175698
0.176238
0.177479
0.178976
0.180486
0.181988
0.183407
0.18475
0.185988
0.186891
0.187199
0.186989
0.186397
0.185493
0.184385
0.183158
0.181921
0.181091
0.180881
0.173748
0.173801
0.17412
0.17487
0.175887
0.177026
0.178313
0.179717
0.181161
0.182529
0.183612
0.18412
0.184059
0.183634
0.182983
0.182272
0.181526
0.180844
0.180413
0.180291
0.171443
0.171481
0.171673
0.172091
0.172685
0.17357
0.174519
0.175699
0.177048
0.178495
0.179792
0.180601
0.18091
0.180895
0.180736
0.18037
0.180139
0.179892
0.179713
0.179642
0.168365
0.168388
0.168543
0.168907
0.16944
0.170095
0.171096
0.172333
0.173793
0.175436
0.177019
0.178159
0.178753
0.17898
0.178988
0.178991
0.178902
0.178783
0.178685
0.178643
0.164714
0.16472
0.164847
0.165207
0.165773
0.16644
0.167376
0.168628
0.170194
0.172062
0.174005
0.175558
0.176546
0.177144
0.17749
0.177648
0.177695
0.177639
0.177596
0.177584
0.160692
0.160688
0.160795
0.16115
0.161731
0.162534
0.163619
0.164964
0.166734
0.16892
0.171339
0.173393
0.174802
0.175691
0.176303
0.176655
0.176785
0.176806
0.176821
0.176827
0.156319
0.156309
0.156418
0.156782
0.157399
0.158262
0.159434
0.16102
0.163107
0.165756
0.168771
0.17142
0.17333
0.174649
0.175501
0.176023
0.176301
0.176443
0.176522
0.17654
0.151435
0.151419
0.151548
0.151917
0.15257
0.153529
0.154889
0.156767
0.159291
0.162549
0.166319
0.16971
0.172196
0.173933
0.175108
0.17587
0.176335
0.176605
0.176743
0.17677
0.14583
0.145813
0.145962
0.146379
0.147104
0.148215
0.149837
0.152122
0.155227
0.159274
0.164001
0.168289
0.171411
0.173696
0.17525
0.176281
0.176944
0.177347
0.177543
0.177577
0.139276
0.139255
0.139437
0.139946
0.140815
0.142155
0.144142
0.146964
0.150829
0.155889
0.161817
0.167207
0.17123
0.174071
0.176047
0.177376
0.178251
0.17879
0.179045
0.179089
0.131516
0.131489
0.131721
0.132345
0.13344
0.135135
0.137612
0.141152
0.146013
0.152367
0.1598
0.16655
0.171576
0.175151
0.177624
0.1793
0.18041
0.181093
0.181414
0.181473
0.122214
0.122177
0.122483
0.123298
0.124695
0.126848
0.130014
0.134523
0.140674
0.148674
0.15798
0.166393
0.17263
0.177074
0.180154
0.182241
0.183629
0.184492
0.184894
0.184963
0.110909
0.110861
0.111274
0.112353
0.114177
0.11697
0.121075
0.126858
0.134685
0.144781
0.156411
0.166844
0.174546
0.180034
0.183841
0.186424
0.188142
0.189213
0.189712
0.189798
0.0969519
0.0968966
0.0974738
0.0989268
0.101346
0.105036
0.110404
0.117898
0.127933
0.140688
0.155172
0.168039
0.177495
0.184234
0.188918
0.192105
0.194229
0.19556
0.196182
0.196283
0.0793999
0.0793446
0.0801777
0.0821749
0.0854668
0.0904376
0.0975913
0.107436
0.120357
0.136446
0.154387
0.170138
0.181667
0.189892
0.195634
0.199563
0.202194
0.203843
0.204622
0.204744
0.0567652
0.0567241
0.0579871
0.0608528
0.06551
0.0724321
0.0821923
0.0952696
0.111953
0.132176
0.154223
0.173322
0.187253
0.197228
0.204244
0.209091
0.212364
0.214428
0.215398
0.21555
0.0266759
0.0267089
0.0287604
0.0331417
0.0400855
0.0501204
0.0637504
0.0812955
0.102837
0.128075
0.154875
0.177754
0.194402
0.206402
0.214952
0.220952
0.225067
0.227689
0.228913
0.229099
-0.0151504
-0.0148581
-0.011051
-0.00352802
0.00761696
0.0227986
0.0421669
0.0657429
0.093341
0.124448
0.156554
0.183557
0.203176
0.217455
0.227823
0.235282
0.240547
0.243971
0.245551
0.245769
-0.0767376
-0.0749835
-0.0659762
-0.051687
-0.0326705
-0.00929612
0.0180897
0.0493109
0.084041
0.121684
0.159455
0.190759
0.213491
0.230217
0.242627
0.251867
0.258635
0.263184
0.265355
0.265647
-0.150711
-0.147534
-0.130589
-0.105398
-0.0758816
-0.0430186
-0.00688867
0.0324956
0.0748936
0.119803
0.164245
0.201036
0.228074
0.248421
0.264005
0.27609
0.285543
0.291951
0.294421
0.295274
-0.226336
-0.21729
-0.192224
-0.156992
-0.117837
-0.0758377
-0.0310686
0.0164309
0.0664775
0.118654
0.169819
0.21213
0.243421
0.267276
0.285921
0.300742
0.312538
0.320828
0.325145
0.32668
-0.284268
-0.274035
-0.244051
-0.202181
-0.155686
-0.106052
-0.0536806
0.00123812
0.0584201
0.117395
0.174709
0.221825
0.256565
0.283004
0.303614
0.319931
0.332835
0.342328
0.347531
0.349225
-0.331071
-0.320329
-0.286979
-0.240464
-0.188499
-0.132937
-0.0743241
-0.0130015
0.0505349
0.115646
0.178458
0.229652
0.267013
0.295122
0.316772
0.33374
0.347074
0.356877
0.362297
0.364082
-0.36969
-0.358941
-0.323575
-0.273411
-0.217101
-0.156767
-0.0929736
-0.026216
0.0428711
0.113467
0.181159
0.235842
0.275329
0.304688
0.327032
0.34432
0.357732
0.367539
0.372938
0.374725
-0.403133
-0.392449
-0.355583
-0.302561
-0.242718
-0.178374
-0.110148
-0.0386314
0.0354075
0.110969
0.183199
0.241147
0.282549
0.312948
0.335766
0.353187
0.366554
0.376317
0.381717
0.383434
-0.432946
-0.42235
-0.384386
-0.329044
-0.266245
-0.19844
-0.126321
-0.0505697
0.027977
0.108175
0.184684
0.245689
0.288888
0.320268
0.343555
0.361151
0.374531
0.384244
0.389678
0.391245
-0.460322
-0.44976
-0.410941
-0.353629
-0.288283
-0.217505
-0.141967
-0.0623979
0.0202809
0.104792
0.185406
0.249533
0.294653
0.327134
0.350991
0.368824
0.382274
0.391962
0.397373
0.398834
-0.486017
-0.475478
-0.435863
-0.376843
-0.309312
-0.235926
-0.157367
-0.0743811
0.0120794
0.100728
0.185487
0.252878
0.300088
0.333823
0.358375
0.37655
0.390126
0.399807
0.405228
0.406582
-0.51047
-0.499904
-0.459591
-0.399098
-0.32964
-0.25393
-0.172689
-0.08662
0.00336887
0.0959832
0.184865
0.255682
0.305229
0.340451
0.365887
0.38454
0.398335
0.408064
0.413451
0.414745
-0.534028
-0.523396
-0.48242
-0.420683
-0.349479
-0.271704
-0.188059
-0.0991826
-0.00595132
0.0903998
0.1834
0.257879
0.31008
0.347083
0.373628
0.392925
0.407051
0.416881
0.422194
0.423467
-0.556907
-0.546125
-0.504465
-0.441694
-0.36891
-0.289329
-0.203551
-0.112173
-0.0159906
0.0839108
0.181006
0.259355
0.314556
0.353693
0.381619
0.401748
0.416333
0.426341
0.431576
0.43282
-0.579105
-0.568163
-0.525997
-0.462186
-0.388002
-0.306845
-0.219201
-0.1256
-0.0267376
0.0764702
0.177571
0.259963
0.318493
0.360152
0.389797
0.410999
0.426189
0.436441
0.441625
0.44278
-0.600747
-0.589598
-0.546979
-0.482138
-0.406782
-0.32425
-0.234969
-0.139416
-0.0381722
0.0680557
0.172996
0.259529
0.3217
0.366286
0.398057
0.420627
0.436602
0.447177
0.452306
0.453324
-0.621766
-0.610418
-0.567313
-0.501585
-0.425213
-0.341487
-0.250794
-0.153569
-0.0502557
0.0586734
0.167215
0.257877
0.323962
0.371919
0.406286
0.430571
0.447508
0.458433
0.463488
0.464316
-0.642195
-0.630623
-0.586998
-0.520513
-0.443254
-0.358509
-0.266626
-0.167984
-0.0629091
0.0483676
0.160182
0.254846
0.324998
0.376771
0.414298
0.440776
0.458874
0.470094
0.474927
0.475532
-0.661883
-0.650152
-0.606026
-0.538874
-0.460848
-0.375238
-0.282383
-0.182568
-0.076038
0.0372197
0.151896
0.250309
0.324519
0.380427
0.421771
0.451178
0.470798
0.48214
0.486442
0.486723
-0.680928
-0.668972
-0.624376
-0.556638
-0.477956
-0.391625
-0.297964
-0.197229
-0.0895349
0.0253373
0.142406
0.244176
0.322279
0.382424
0.428215
0.461628
0.483637
0.494875
0.497812
0.49747
-0.699207
-0.687022
-0.642021
-0.573755
-0.4945
-0.407589
-0.313291
-0.211842
-0.103275
0.0128182
0.1318
0.23642
0.318093
0.38228
0.432856
0.471576
0.497854
0.509731
0.509718
0.507322
-0.716753
-0.704386
-0.658918
-0.59018
-0.510447
-0.423068
-0.328282
-0.226324
-0.117138
-0.000174788
0.120216
0.22705
0.311849
0.37957
0.43461
0.479612
0.51292
0.52918
0.527184
0.515284
-0.733509
-0.72101
-0.675166
-0.606055
-0.525991
-0.438334
-0.343262
-0.241075
-0.131584
-0.0141821
0.107045