/*--------------------------------*- C++ -*----------------------------------*\
  =========                 |
  \\      /  F ield         | OpenFOAM: The Open Source CFD Toolbox
   \\    /   O peration     | Website:  https://openfoam.org
    \\  /    A nd           | Version:  9
     \\/     M anipulation  |
\*---------------------------------------------------------------------------*/
FoamFile
{
    format      ascii;
    class       surfaceScalarField;
    location    "15";
    object      phi;
}
// * * * * * * * * * * * * * * * * * * * * * * * * * * * * * * * * * * * * * //

dimensions      [0 3 -1 0 0 0 0];

internalField   nonuniform List<scalar> 
17370
(
-0.0910911
0.0935352
0.286567
-0.0749394
0.0569354
0.36478
-0.0409114
0.0299153
0.427164
-0.0211424
0.0155276
0.504866
-0.0112678
0.00856814
0.602102
-0.00643959
0.00498761
0.720509
-0.00377014
0.0029094
0.863767
-0.00216438
0.0016163
1.036
-0.00111473
0.00071281
1.2429
-0.000315097
-4.43432e-05
1.49155
0.00040797
-0.000814782
1.4916
0.00121281
-0.00170864
1.24319
0.00225134
-0.00298947
1.03638
0.00384216
-0.00505046
0.864115
0.00649341
-0.00861513
0.721179
0.0113119
-0.0155678
0.60347
0.0211783
-0.0299463
0.508207
0.0409377
-0.0569568
0.432187
0.0749561
-0.0935452
0.365365
0.0910994
0.197911
-0.127375
0.0882111
0.0391641
-0.364762
0.35386
-0.0725321
0.083434
-0.446565
0.454392
-0.0815298
0.073703
-0.520961
0.529513
-0.0655817
0.0570302
-0.612862
0.621008
-0.0492914
0.0411457
-0.727008
0.733806
-0.0342298
0.0274319
-0.867502
0.872432
-0.0220741
0.0171441
-1.03854
1.04185
-0.0134433
0.010133
-1.24468
1.24702
-0.00762878
0.00528702
-1.49279
1.4947
-0.00339623
0.00147865
-1.49262
1.49435
0.000262873
-0.00199743
-1.24408
1.24595
0.00389862
-0.00577066
-1.03759
1.04006
0.0080859
-0.0105606
-0.866155
0.869824
0.0138345
-0.0175031
-0.724493
0.72982
0.0224016
-0.0277288
-0.608927
0.615816
0.0344966
-0.0413858
-0.514999
0.522715
0.0495042
-0.0572205
-0.439767
0.44787
0.0657484
-0.0738511
-0.375182
0.377059
0.0816556
-0.0835325
-0.256977
0.223568
0.0725985
-0.0391893
-0.0687571
0.059077
0.0096801
-0.0517709
0.0583943
-0.374635
0.368012
-0.0574536
0.0535735
-0.45388
0.45776
-0.0481444
0.0437266
-0.527766
0.532184
-0.0394126
0.0355572
-0.621073
0.624929
-0.0313272
0.0273309
-0.734819
0.738816
-0.0230037
0.0191682
-0.873984
0.87782
-0.0152217
0.0118571
-1.04328
1.04665
-0.00844415
0.00550323
-1.24848
1.25142
-0.00239101
-0.000513363
-1.49672
1.49963
0.00340702
-0.0064834
-1.49721
1.50029
0.0093742
-0.0127247
-1.24998
1.25333
0.0160308
-0.0199106
-1.04569
1.04957
0.0236862
-0.0279454
-0.877324
0.881583
0.0318819
-0.0360611
-0.739331
0.74351
0.039869
-0.04413
-0.626413
0.630674
0.0485045
-0.0538938
-0.535042
0.540431
0.0577327
-0.0586235
-0.458062
0.458953
0.0519434
-0.0317795
-0.336641
0.316478
0.00970879
-0.068677
0.0589683
-0.0533915
0.0494342
0.00395734
-0.0325646
0.0428506
-0.358682
0.348396
-0.0464663
0.0458872
-0.459624
0.460203
-0.0429863
0.0397992
-0.536116
0.539303
-0.0361387
0.0328427
-0.628457
0.631753
-0.0293139
0.0261704
-0.74213
0.745273
-0.0227892
0.0196463
-0.881281
0.884424
-0.0161369
0.0128908
-1.05
1.05325
-0.0093618
0.00615936
-1.25457
1.25777
-0.00262365
-0.000739944
-1.50284
1.5062
0.00408398
-0.00757351
-1.50366
1.50715
0.0107169
-0.0141654
-1.2568
1.26025
0.01733
-0.0207465
-1.05324
1.05666
0.0238018
-0.0270824
-0.885194
0.888475
0.0301396
-0.033591
-0.747053
0.750504
0.0368258
-0.0404188
-0.634722
0.638315
0.0435438
-0.0463763
-0.54469
0.547523
0.0468874
-0.0431815
-0.457242
0.453536
0.0327924
-0.0158425
-0.297426
0.280476
0.00399199
-0.0532521
0.0492601
-0.0464182
0.0440367
0.00238144
-0.021789
0.0316601
-0.338069
0.328198
-0.0370882
0.0379131
-0.459958
0.459133
-0.0366197
0.0343646
-0.541853
0.544108
-0.0318311
0.029396
-0.634675
0.63711
-0.0265342
0.0238321
-0.748283
0.750985
-0.0208185
0.0180775
-0.887345
0.890086
-0.0150563
0.0122566
-1.05624
1.05904
-0.00906534
0.00600324
-1.26094
1.264
-0.00244657
-0.00103912
-1.50968
1.51316
0.0044974
-0.00798115
-1.51068
1.51417
0.0109521
-0.0140247
-1.26351
1.26658
0.0167105
-0.0196013
-1.05974
1.06263
0.0222203
-0.0251046
-0.891619
0.894503
0.0276915
-0.0304278
-0.753735
0.756471
0.0327592
-0.0351942
-0.641269
0.643704
0.037375
-0.0385742
-0.549382
0.550581
0.0376527
-0.0320877
-0.448642
0.443077
0.0220713
-0.00961297
-0.265844
0.253386
0.00242328
-0.0462061
0.0437829
-0.0421222
0.0405579
0.00156424
-0.0150483
0.0234582
-0.318995
0.310585
-0.0294332
0.0313114
-0.457758
0.455879
-0.0308498
0.0292333
-0.546099
0.547715
-0.0271582
0.0252118
-0.639251
0.641198
-0.0230758
0.0210604
-0.753303
0.755318
-0.0186842
0.0163454
-0.892631
0.89497
-0.0136089
0.0109868
-1.06174
1.06436
-0.00799248
0.00513886
-1.26695
1.2698
-0.00184574
-0.00134991
-1.51652
1.51971
0.00451669
-0.00772288
-1.51752
1.52072
0.0104581
-0.0133077
-1.26953
1.27238
0.0157836
-0.0183505
-1.06537
1.06794
0.020535
-0.0227377
-0.897039
0.899242
0.0246042
-0.026604
-0.758764
0.760764
0.0284156
-0.0303517
-0.645894
0.647831
0.0318447
-0.032165
-0.551308
0.551628
0.0301381
-0.0239732
-0.437101
0.430936
0.0153814
-0.00641655
-0.242806
0.233841
0.00161384
-0.0418223
0.0402085
-0.0392731
0.03824
0.00103309
-0.00995121
0.0164439
-0.303087
0.296595
-0.0220927
0.0246135
-0.453629
0.451108
-0.0249278
0.024124
-0.548932
0.549736
-0.0226912
0.0213075
-0.642852
0.644236
-0.0197001
0.018096
-0.757103
0.758707
-0.0161979
0.0143028
-0.897083
0.898978
-0.0120354
0.00975817
-1.06686
1.06914
-0.00705464
0.00439251
-1.27259
1.27525
-0.00128022
-0.00175461
-1.52282
1.52586
0.00475077
-0.00774834
-1.52384
1.52684
0.0102574
-0.012748
-1.2751
1.27759
0.0148104
-0.0168435
-1.07027
1.0723
0.0185265
-0.0202044
-0.901153
0.90283
0.0216126
-0.0230271
-0.762447
0.763862
0.0242523
-0.0255228
-0.649432
0.650703
0.0261688
-0.0256742
-0.55155
0.551056
0.0229585
-0.0170672
-0.424817
0.418926
0.0103531
-0.00423331
-0.226339
0.220219
0.0010952
-0.0388679
0.0377727
-0.0374636
0.0369397
0.000523871
-0.00547913
0.00983146
-0.291172
0.286819
-0.0144909
0.0172286
-0.448407
0.445669
-0.0182816
0.0182753
-0.550109
0.550115
-0.0175061
0.01657
-0.645395
0.646331
-0.0153632
0.0141294
-0.760168
0.761402
-0.0126312
0.0111231
-0.900681
0.902189
-0.00930013
0.00747896
-1.07117
1.07299
-0.00527375
0.00306721
-1.27769
1.27989
-0.000399978
-0.0022618
-1.52873
1.5314
0.00487239
-0.00738286
-1.52962
1.53213
0.00938417
-0.0113264
-1.27981
1.28176
0.0128886
-0.01441
-1.07407
1.07559
0.0156433
-0.016862
-0.904302
0.90552
0.0178308
-0.0187477
-0.765037
0.765954
0.0194613
-0.0200066
-0.651613
0.652158
0.0197968
-0.0184964
-0.550122
0.548821
0.0155055
-0.0105529
-0.413424
0.408471
0.00594656
-0.00232124
-0.215413
0.211788
0.000597387
-0.036929
0.0363317
-0.0366326
0.0364885
0.000144131
-0.00241962
0.00498372
-0.28345
0.280886
-0.00829319
0.0106244
-0.443076
0.440745
-0.0118386
0.0121004
-0.549921
0.549659
-0.0118009
0.0113182
-0.647027
0.64751
-0.0106813
0.00999955
-0.762325
0.763007
-0.00908727
0.00809499
-0.903451
0.904443
-0.00680206
0.00541386
-1.0746
1.07599
-0.00364765
0.00178688
-1.28191
1.28377
0.000512051
-0.00281717
-1.53386
1.53617
0.00505378
-0.0071601
-1.53441
1.53652
0.00877316
-0.0102258
-1.28346
1.28491
0.0113008
-0.0122326
-1.07681
1.07775
0.0128854
-0.013394
-0.906339
0.906848
0.0137678
-0.0140788
-0.766567
0.766878
0.0142697
-0.0142714
-0.652412
0.652414
0.0137363
-0.0122067
-0.547337
0.545807
0.00955982
-0.00589046
-0.404172
0.400503
0.00301169
-0.00105415
-0.209127
0.20717
0.00023711
-0.0359429
0.0357058
-0.0364441
0.0364399
4.1786e-06
-0.00116671
0.00283498
-0.278882
0.277214
-0.00533507
0.00738373
-0.438631
0.436582
-0.00872156
0.00923641
-0.54932
0.548805
-0.00932245
0.00915687
-0.647818
0.647983
-0.00874145
0.00820414
-0.763588
0.764126
-0.00745296
0.00659505
-0.905288
0.906146
-0.00542752
0.00413684
-1.07725
1.07854
-0.00245928
0.00070736
-1.28553
1.28728
0.00142563
-0.00353215
-1.53834
1.54045
0.00556745
-0.00748611
-1.5385
1.54041
0.00894704
-0.0102219
-1.28619
1.28746
0.0111089
-0.0118319
-1.0785
1.07922
0.0123032
-0.0126819
-0.907289
0.907667
0.0128301
-0.0127465
-0.766949
0.766866
0.0124855
-0.0120201
-0.652163
0.651698
0.011133
-0.00936606
-0.544211
0.542444
0.0069084
-0.00395742
-0.397294
0.394343
0.00189818
-0.000615173
-0.205651
0.204368
0.00011876
-0.0355553
0.0354366
-0.0364488
0.0364677
-1.88383e-05
-0.000721594
0.00201758
-0.275754
0.274458
-0.00426457
0.00648738
-0.434474
0.432252
-0.00840652
0.00944851
-0.548056
0.547014
-0.00982252
0.00989008
-0.648041
0.647973
-0.00975016
0.00928488
-0.764596
0.765061
-0.00847107
0.00743024
-0.90708
0.908121
-0.00596602
0.00434551
-1.07998
1.0816
-0.00229967
0.000249471
-1.28914
1.29119
0.00217055
-0.0045216
-1.54261
1.54496
0.00678633
-0.00891666
-1.54238
1.54451
0.0105638
-0.0120711
-1.28884
1.29035
0.0131527
-0.0139952
-1.07997
1.08081
0.0144521
-0.0146232
-0.907847
0.908018
0.0145159
-0.0142053
-0.766691
0.76638
0.0137848
-0.0128531
-0.651083
0.650151
0.0113476
-0.00891073
-0.540406
0.537969
0.00619396
-0.00340054
-0.391508
0.388714
0.00162663
-0.000556498
-0.203212
0.202142
0.000122269
-0.0353211
0.0351989
-0.0364956
0.0365351
-3.94717e-05
-0.000311754
0.00123975
-0.273331
0.272403
-0.00318545
0.00554089
-0.429916
0.42756
-0.00813375
0.00998505
-0.545544
0.543693
-0.0112781
0.011648
-0.647759
0.647389
-0.0115142
0.0110022
-0.765597
0.766109
-0.0099918
0.00867873
-0.909309
0.910622
-0.0068696
0.00492051
-1.0834
1.08535
-0.00249695
1.97958e-05
-1.29346
1.29594
0.0029311
-0.00578865
-1.54757
1.55043
0.00851277
-0.0110808
-1.54687
1.54944
0.0130618
-0.0148098
-1.29198
1.29373
0.0160827
-0.0171404
-1.08179
1.08285
0.0177746
-0.0180654
-0.908319
0.90861
0.017872
-0.0173287
-0.765919
0.765375
0.0163066
-0.0143261
-0.648709
0.646728
0.0118598
-0.00858172
-0.535069
0.531791
0.00559882
-0.00297049
-0.385968
0.38334
0.00144235
-0.000535276
-0.20115
0.200243
0.000137515
-0.0350679
0.0349304
-0.0365903
0.0366706
-8.03256e-05
0.000169928
0.000301989
-0.271692
0.27122
-0.00162515
0.00357868
-0.425334
0.423381
-0.0061544
0.00833868
-0.541584
0.5394
-0.0101721
0.011051
-0.646829
0.645951
-0.0111353
0.0106824
-0.766538
0.766991
-0.00960671
0.00822865
-0.911999
0.913377
-0.006321
0.0042711
-1.08738
1.08943
-0.00169701
-0.000985708
-1.29856
1.30124
0.00421959
-0.00732371
-1.55347
1.55657
0.0102418
-0.012978
-1.55215
1.55488
0.0150213
-0.0167992
-1.29555
1.29733
0.0180534
-0.0189968
-1.08389
1.08484
0.0194256
-0.0194239
-0.908759
0.908757
0.0191439
-0.0181253
-0.764686
0.763667
0.0163798
-0.0136764
-0.644291
0.641588
0.0107134
-0.00730061
-0.528333
0.52492
0.00458704
-0.0024326
-0.380917
0.378762
0.00123257
-0.000496991
-0.199426
0.19869
0.00014114
-0.0347907
0.0346496
-0.0367743
0.0369092
-0.000134948
0.000655672
-0.000661504
-0.271005
0.271011
0.000102496
0.00104398
-0.421807
0.42066
-0.0028304
0.00453024
-0.53739
0.53569
-0.00606367
0.00697111
-0.644939
0.644032
-0.00730187
0.0070245
-0.767429
0.767707
-0.00621204
0.00504505
-0.914668
0.915835
-0.00334935
0.00147456
-1.09141
1.09328
0.000929911
-0.00341983
-1.30388
1.30637
0.00639422
-0.00922342
-1.5596
1.56243
0.0118291
-0.0141537
-1.55749
1.55982
0.0158728
-0.017346
-1.29899
1.30046
0.0182318
-0.0187206
-1.08558
1.08607
0.0187774
-0.0183965
-0.908637
0.908256
0.0174677
-0.0158526
-0.762243
0.760628
0.0138525
-0.0112003
-0.638827
0.636175
0.0085269
-0.00571323
-0.521753
0.518939
0.00363383
-0.00203986
-0.376899
0.375305
0.00111775
-0.000488495
-0.198021
0.197392
0.00014686
-0.0345086
0.0343618
-0.0370664
0.0372529
-0.000186529
0.00108273
-0.00145797
-0.271161
0.271536
0.00155401
-0.0012105
-0.419924
0.41958
0.000369035
0.000550115
-0.534409
0.53349
-0.00143902
0.0019741
-0.643324
0.642789
-0.00214684
0.00191005
-0.767942
0.768179
-0.00122426
0.000234105
-0.916883
0.917873
0.00122665
-0.00285369
-1.09501
1.09664
0.00491798
-0.00698618
-1.30864
1.31071
0.00938572
-0.0115998
-1.56496
1.56717
0.0135481
-0.0151375
-1.56178
1.56337
0.0161367
-0.0169093
-1.30165
1.30242
0.0172052
-0.0170947
-1.08621
1.0861
0.0166138
-0.0156989
-0.907545
0.906631
0.014507
-0.0128559
-0.758988
0.757337
0.0110436
-0.00883615
-0.633747
0.631539
0.00677163
-0.00470204
-0.516528
0.514458
0.00318982
-0.00197293
-0.373935
0.372718
0.00117667
-0.000546762
-0.19678
0.19615
0.000169551
-0.0342103
0.0340408
-0.0374662
0.0377062
-0.000239961
0.00146567
-0.00213078
-0.272044
0.272709
0.00269618
-0.0029453
-0.419564
0.419813
0.00290841
-0.00271593
-0.533015
0.532822
0.00250831
-0.00246726
-0.642581
0.64254
0.00267332
-0.00313059
-0.768523
0.768981
0.0039372
-0.00493284
-0.918807
0.919803
0.00628391
-0.00773091
-1.09811
1.09956
0.00949626
-0.0111693
-1.31252
1.3142
0.0130015
-0.0145874
-1.56904
1.57063
0.0158497
-0.0167017
-1.56461
1.56546
0.0170509
-0.0170375
-1.30276
1.30275
0.0167752
-0.0160971
-1.08564
1.08496
0.0152075
-0.0139892
-0.905528
0.90431
0.0126866
-0.0110878
-0.755706
0.754107
0.00950404
-0.00770677
-0.629583
0.627786
0.00610788
-0.00452121
-0.5127
0.511113
0.00330594
-0.00221554
-0.371602
0.370512
0.00139561
-0.000671006
-0.195492
0.194767
0.00021211
-0.0338622
0.0336501
-0.0379855
0.0382884
-0.000302853
0.00188643
-0.00280636
-0.273506
0.274425
0.00373865
-0.00441462
-0.420275
0.420951
0.00492109
-0.00527954
-0.53305
0.533409
0.00567659
-0.00614622
-0.642866
0.643336
0.0068394
-0.0076633
-0.769588
0.770412
0.00877149
-0.00994205
-0.920779
0.92195
0.0113657
-0.0127715
-1.1009
1.1023
0.0143811
-0.0158068
-1.31567
1.31709
0.0172331
-0.0183104
-1.57191
1.57298
0.0189765
-0.0191392
-1.56599
1.56615
0.0188655
-0.0182701
-1.30242
1.30183
0.0174594
-0.0163761
-1.08398
1.0829
0.0152128
-0.0138049
-0.902943
0.901535
0.0124324
-0.0108689
-0.752519
0.750956
0.00941387
-0.00782958
-0.626167
0.624583
0.00643994
-0.00502424
-0.509709
0.508293
0.00385563
-0.00269303
-0.369434
0.368272
0.00173905
-0.000849
-0.19399
0.1931
0.000271522
-0.0334314
0.0331599
-0.0386472
0.0390297
-0.000382515
0.0023994
-0.00359714
-0.275517
0.276714
0.0048584
-0.00587436
-0.42187
0.422886
0.00680513
-0.00759605
-0.534169
0.53496
0.00851599
-0.00948766
-0.644149
0.64512
0.0107004
-0.0119412
-0.771355
0.772596
0.0134369
-0.0149012
-0.923101
0.924565
0.0165743
-0.0181133
-1.10365
1.10519
0.0197475
-0.0210896
-1.31837
1.31971
0.0222864
-0.0230065
-1.57381
1.57453
0.0232158
-0.0228775
-1.56604
1.5657
0.0221263
-0.0209426
-1.30091
1.29973
0.0196742
-0.0181834
-1.08154
1.08005
0.0167432
-0.015117
-0.899945
0.898318
0.0136192
-0.0119878
-0.749323
0.747692
0.0105177
-0.00894062
-0.623077
0.6215
0.00754389
-0.00606396
-0.506982
0.505502
0.00475918
-0.00336579
-0.367093
0.3657
0.0021859
-0.00107113
-0.192149
0.191034
0.000343602
-0.0328907
0.0325471
-0.0394916
0.039981
-0.000489347
0.00305996
-0.00459802
-0.278144
0.279682
0.00625473
-0.00764308
-0.424236
0.425625
0.00899816
-0.0101934
-0.536209
0.537404
0.0115851
-0.0130169
-0.646367
0.647798
0.0147579
-0.016475
-0.773932
0.775649
0.0184661
-0.0203358
-0.926004
0.927874
0.0223795
-0.0241751
-1.10666
1.10845
0.0259743
-0.0273549
-1.32095
1.32233
0.028448
-0.0289135
-1.57506
1.57552
0.0287389
-0.0279173
-1.56509
1.56427
0.0267237
-0.0250545
-1.29827
1.2966
0.0233588
-0.021428
-1.07828
1.07635
0.0196429
-0.0177063
-0.896427
0.894491
0.0159815
-0.0141524
-0.745868
0.744039
0.0125308
-0.0107961
-0.619897
0.618162
0.00923458
-0.0075218
-0.504094
0.502381
0.00594282
-0.00422748
-0.364333
0.362617
0.00274299
-0.00133828
-0.18986
0.188456
0.000427766
-0.032212
0.0317842
-0.0405774
0.0412255
-0.0006481
0.00399013
-0.00599046
-0.281533
0.283534
0.00816044
-0.00999161
-0.427411
0.429242
0.0118004
-0.0134179
-0.539149
0.540766
0.0153028
-0.0172276
-0.64954
0.651464
0.0195602
-0.0218392
-0.777405
0.779685
0.0244273
-0.0267855
-0.929674
0.932033
0.0292884
-0.0314172
-1.11019
1.11232
0.0334759
-0.0349802
-1.32363
1.32513
0.0360484
-0.0363108
-1.57581
1.57607
0.035777
-0.0344645
-1.56317
1.56186
0.0327895
-0.0305995
-1.29466
1.29247
0.0284345
-0.0259982
-1.07411
1.07167
0.0237813
-0.0214185
-0.892201
0.889838
0.0193492
-0.0171878
-0.741885
0.739723
0.0152888
-0.0132575
-0.616301
0.614269
0.011403
-0.00932729
-0.50075
0.498674
0.00741079
-0.00528972
-0.360938
0.358817
0.0034454
-0.00167717
-0.187008
0.18524
0.00053436
-0.031369
0.0308346
-0.0419918
0.0428709
-0.000879165
0.00531319
-0.00795487
-0.285904
0.288546
0.0108099
-0.0132009
-0.431556
0.433947
0.0155534
-0.0176657
-0.54308
0.545192
0.0201479
-0.0226794
-0.653766
0.656298
0.0257169
-0.0286313
-0.781956
0.78487
0.0318723
-0.0347805
-0.934337
0.937245
0.037825
-0.0403734
-1.11442
1.11697
0.0427752
-0.0444511
-1.32656
1.32823
0.0455133
-0.0455628
-1.57613
1.57618
0.0446356
-0.0427756
-1.56023
1.55837
0.0405508
-0.0377461
-1.28996
1.28715
0.0350146
-0.0319624
-1.06888
1.06583
0.0292055
-0.0262885
-0.887044
0.884127
0.0237534
-0.0211295
-0.737112
0.734488
0.0188414
-0.0164036
-0.61201
0.609572
0.0141656
-0.0116309
-0.496688
0.494153
0.00924877
-0.0065978
-0.356741
0.35409
0.00428821
-0.00208526
-0.183443
0.18124
0.000662919
-0.0303251
0.0296622
-0.0438652
0.0450775
-0.00121238
0.00721347
-0.0107477
-0.291574
0.295108
0.0145034
-0.0175981
-0.436938
0.440033
0.0206197
-0.0233556
-0.548209
0.550945
0.0266032
-0.029896
-0.659269
0.662562
0.033785
-0.037456
-0.787814
0.791485
0.0414877
-0.0450655
-0.940168
0.943745
0.0487594
-0.0517873
-1.11951
1.12254
0.0545495
-0.0563739
-1.32981
1.33163
0.0573676
-0.0571175
-1.57597
1.57572
0.0556926
-0.0531661
-1.55613
1.55361
0.0502775
-0.0467231
-1.28395
1.2804
0.0433018
-0.0395024
-1.06235
1.05855
0.0360852
-0.0324794
-0.880697
0.877091
0.0293555
-0.026137
-0.731287
0.728069
0.0233454
-0.0203853
-0.606775
0.603815
0.0176616
-0.0145524
-0.491679
0.48857
0.011572
-0.00825882
-0.351517
0.348204
0.00536428
-0.00260456
-0.179015
0.176255
0.00082623
-0.0290413
0.0282151
-0.046401
0.048114
-0.00171301
0.00998922
-0.014742
-0.299029
0.303782
0.019631
-0.0235931
-0.443968
0.447931
0.0274539
-0.0310079
-0.554891
0.558445
0.0352506
-0.0395152
-0.666364
0.670628
0.0444831
-0.049103
-0.795228
0.799847
0.0541026
-0.058464
-0.94736
0.951721
0.0628711
-0.0663825
-1.12554
1.12905
0.0694586
-0.0713488
-1.33331
1.3352
0.0721437
-0.0714403
-1.57513
1.57442
0.0693513
-0.0659825
-1.5506
1.54724
0.0622754
-0.0578065
-1.27636
1.27189
0.0535514
-0.0488546
-1.05424
1.04954
0.0446449
-0.0402091
-0.872873
0.868437
0.0363705
-0.0324226
-0.724133
0.720185
0.0290081
-0.0253997
-0.600333
0.596725
0.0220734
-0.0182557
-0.485452
0.481634
0.0145578
-0.0103508
-0.345026
0.340819
0.00670017
-0.00323502
-0.173519
0.170054
0.00101803
-0.0274623
0.0264443
-0.0499152
0.0524605
-0.00254535
0.0143598
-0.0208519
-0.308987
0.315479
0.0272384
-0.0323158
-0.453205
0.458282
0.0372804
-0.041929
-0.563627
0.568276
0.0474915
-0.052999
-0.675472
0.680979
0.0592748
-0.0649776
-0.804543
0.810245
0.0710099
-0.0761429
-0.956085
0.961218
0.0811838
-0.0850569
-1.13246
1.13634
0.0882703
-0.0900316
-1.33683
1.33859
0.0903839
-0.088988
-1.57325
1.57186
0.0860054
-0.0815749
-1.54328
1.53885
0.0768723
-0.0713113
-1.26684
1.26128
0.0660719
-0.0603209
-1.04424
1.03848
0.0551808
-0.0497685
-0.863275
0.857863
0.0450849
-0.0402682
-0.715354
0.710537
0.0361086
-0.0317196
-0.592394
0.588005
0.0276566
-0.0229529
-0.477702
0.472998
0.018343
-0.0130552
-0.336841
0.331553
0.00839959
-0.00401046
-0.166697
0.162308
0.00124524
-0.0255298
0.0242846
-0.0549996
0.0590211
-0.00402152
0.0216411
-0.0307126
-0.322582
0.331654
0.0391552
-0.0456773
-0.465537
0.472059
0.0520949
-0.0581938
-0.575118
0.581217
0.0654565
-0.0724395
-0.687094
0.694077
0.0801374
-0.0869108
-0.815988
0.822762
0.0938603
-0.0995853
-0.966266
0.971991
0.104984
-0.10891
-1.13996
1.14388
0.111876
-0.113139
-1.33989
1.34115
0.112643
-0.110202
-1.56979
1.56735
0.106022
-0.100273
-1.53368
1.52793
0.094387
-0.0875638
-1.25504
1.24821
0.0812082
-0.0742732
-1.03205
1.02512
0.0680905
-0.0615775
-0.851623
0.84511
0.0559308
-0.0501125
-0.704663
0.698845
0.0450908
-0.0397978
-0.582628
0.577335
0.0348632
-0.0290859
-0.468012
0.462235
0.0233103
-0.0166004
-0.326542
0.319832
0.0106473
-0.00503921
-0.158153
0.152544
0.00154052
-0.0231694
0.0216289
-0.0628035
0.0700438
-0.00724036
0.0352647
-0.0484331
-0.342104
0.355272
0.0597471
-0.0679382
-0.482147
0.490338
0.0759983
-0.0838582
-0.59005
0.59791
0.092953
-0.101268
-0.701493
0.709808
0.110027
-0.11743
-0.829354
0.836757
0.124734
-0.130479
-0.977339
0.983085
0.135594
-0.138972
-1.14724
1.15062
0.141062
-0.141256
-1.34166
1.34186
0.139362
-0.135415
-1.56398
1.56003
0.129674
-0.122331
-1.52127
1.51393
0.115072
-0.106848
-1.24062
1.2324
0.0992824
-0.0910944
-1.01745
1.00926
0.0838196
-0.0761643
-0.837716
0.830061
0.0695167
-0.0626473
-0.69183
0.684961
0.0567038
-0.0504288
-0.570723
0.564448
0.0445227
-0.0374005
-0.455836
0.448713
0.0301203
-0.0215457
-0.313365
0.30479
0.0137908
-0.00642579
-0.147379
0.140014
0.00187386
-0.0202921
0.0184182
-0.0770087
0.080389
-0.0033803
0.0245616
-0.035828
-0.371415
0.382682
0.0459475
-0.0539202
-0.503829
0.511802
0.0628564
-0.0724642
-0.608171
0.617778
0.0831517
-0.0927172
-0.717784
0.727349
0.103378
-0.112799
-0.843397
0.852819
0.122582
-0.130963
-0.9879
0.996281
0.139288
-0.145937
-1.15294
1.15959
0.151823
-0.155618
-1.34091
1.3447
0.157545
-0.156754
-1.55487
1.55408
0.153118
-0.14704
-1.50549
1.49941
0.139938
-0.130948
-1.22331
1.21432
0.122173
-0.11167
-1.00031
0.989809
0.10206
-0.0915221
-0.821519
0.810981
0.0821287
-0.0721861
-0.676843
0.6669
0.0631756
-0.0538207
-0.556505
0.547151
0.0453855
-0.035184
-0.440669
0.430467
0.0255079
-0.0157289
-0.296159
0.28638
0.00837154
-0.00297702
-0.133348
0.127954
0.000499202
-0.0168293
0.0163301
-0.0877294
0.0845192
0.00321023
0.00173906
-0.00829198
-0.396687
0.40324
0.0162667
-0.0229011
-0.524569
0.531203
0.0314015
-0.0398264
-0.627847
0.636272
0.0494932
-0.0583131
-0.736838
0.745657
0.0677022
-0.0762094
-0.861772
0.870279
0.0850603
-0.0923699
-1.00439
1.0117
0.0998497
-0.105514
-1.16609
1.17175
0.110509
-0.11347
-1.34828
1.35124
0.114366
-0.112829
-1.55257
1.55103
0.108591
-0.102066
-1.4926
1.48608
0.0945254
-0.0852748
-1.20489
1.19564
0.076388
-0.0662513
-0.979047
0.96891
0.0567812
-0.0463112
-0.7996
0.78913
0.0369812
-0.0274574
-0.654936
0.645412
0.0193584
-0.0110897
-0.535013
0.526744
0.00407616
0.00241871
-0.41867
0.412175
-0.00624969
0.00770851
-0.275302
0.273843
-0.0069231
0.00438672
-0.121268
0.123805
-0.00179737
-0.014886
0.0166833
-0.0871085
0.0836616
0.00344691
-0.00620515
0.00327881
-0.412961
0.415888
0.00170301
-0.00716163
-0.541569
0.547027
0.0142489
-0.0214697
-0.645058
0.652279
0.0296944
-0.0372456
-0.753966
0.761517
0.0455177
-0.0528792
-0.878154
0.885516
0.0603313
-0.0668591
-1.01887
1.0254
0.0733806
-0.0784465
-1.17707
1.18213
0.0825449
-0.0848176
-1.35365
1.35593
0.0854612
-0.0837338
-1.549
1.54727
0.0795497
-0.0733661
-1.47923
1.47305
0.066434
-0.0582408
-1.18661
1.17841
0.0501293
-0.0412216
-0.958814
0.949906
0.0329916
-0.0240039
-0.779099
0.770112
0.0162639
-0.00834339
-0.635163
0.627242
0.00181995
0.004709
-0.516443
0.509914
-0.00958664
0.0133184
-0.403547
0.399815
-0.0145525
0.0126929
-0.268381
0.270241
-0.00933488
0.00519213
-0.123641
0.127784
-0.00188034
-0.0169397
0.01882
-0.0847748
0.0814911
0.00328369
-0.00881058
0.00791843
-0.423067
0.423959
-0.00478304
0.000606805
-0.555013
0.559189
0.00550482
-0.0115422
-0.659349
0.665386
0.0185629
-0.0250294
-0.7688
0.775266
0.0320781
-0.0383844
-0.892467
0.898773
0.0451655
-0.0507521
-1.03159
1.03717
0.0565511
-0.0606757
-1.18691
1.19104
0.0643563
-0.0664098
-1.35814
1.36019
0.0668754
-0.0650792
-1.54536
1.54356
0.0614891
-0.0562221
-1.46673
1.46146
0.0503023
-0.0430702
-1.17049
1.16326
0.0363178
-0.0290159
-0.941297
0.933995
0.0222202
-0.0151751
-0.761732
0.754687
0.00882934
-0.00260483
-0.618934
0.61271
-0.00242215
0.00693517
-0.502067
0.497554
-0.0099441
0.0120039
-0.393483
0.391423
-0.0121878
0.00975151
-0.266912
0.269348
-0.0069218
0.00369445
-0.128415
0.131642
-0.00132991
-0.0191589
0.0204888
-0.0824648
0.0797502
0.00271459
-0.00900352
0.00936257
-0.429558
0.429199
-0.00693601
0.00363692
-0.565996
0.569295
0.0012778
-0.00666349
-0.67143
0.676816
0.0125565
-0.0182438
-0.781333
0.78702
0.0243547
-0.0298614
-0.90475
0.910257
0.0357473
-0.0408115
-1.04272
1.04778
0.0458492
-0.0497981
-1.19516
1.19911
0.0531428
-0.0550535
-1.36207
1.36398
0.0555812
-0.0540838
-1.54185
1.54035
0.0510413
-0.0463831
-1.45589
1.45124
0.041343
-0.0353513
-1.15642
1.15043
0.0297024
-0.023519
-0.926889
0.920706
0.0180164
-0.012264
-0.747871
0.742119
0.00732835
-0.00244422
-0.606421
0.601537
-0.00134631
0.00463298
-0.491635
0.488348
-0.006852
0.00811244
-0.386834
0.385573
-0.00788039
0.00618978
-0.266504
0.268195
-0.00432288
0.00224341
-0.131341
0.133421
-0.000871665
-0.0203825
0.0212541
-0.0806131
0.0783553
0.00225786
-0.00827095
0.00882456
-0.433744
0.43319
-0.00743481
0.00463949
-0.574617
0.577412
-6.5616e-05
-0.00454824
-0.681747
0.686361
0.0096639
-0.0146396
-0.792187
0.797163
0.0201048
-0.0250688
-0.915527
0.920491
0.0305212
-0.0350512
-1.05265
1.05718
0.0397242
-0.0434413
-1.2029
1.20662
0.0465943
-0.0484508
-1.36581
1.36767
0.0490609
-0.0481747
-1.53898
1.53809
0.0455414
-0.0416609
-1.44641
1.44253
0.0372909
-0.0321109
-1.14456
1.13938
0.0274717
-0.0220957
-0.914746
0.90937
0.0174037
-0.0126745
-0.736608
0.731879
0.00856619
-0.0044954
-0.596687
0.592616
0.00128887
0.00164952
-0.483777
0.480839
-0.00332672
0.00438073
-0.381803
0.380749
-0.00463478
0.00374129
-0.265315
0.266208
-0.00263499
0.00144265
-0.132152
0.133344
-0.0006089
-0.020793
0.0214019
-0.0792825
0.0775416
0.00174096
-0.00697567
0.00767553
-0.436747
0.436047
-0.00642433
0.00422954
-0.582253
0.584447
-0.000120838
-0.00405447
-0.690759
0.694934
0.00893259
-0.0132588
-0.801952
0.806278
0.0181118
-0.0225719
-0.925524
0.929984
0.0278145
-0.0320191
-1.06181
1.06601
0.0362975
-0.0399501
-1.21024
1.21389
0.0434248
-0.0453354
-1.36968
1.37159
0.0462618
-0.0456144
-1.53702
1.53638
0.0436765
-0.0400666
-1.43861
1.435
0.0363512
-0.031885
-1.13421
1.12975
0.0276487
-0.0230242
-0.904197
0.899573
0.0187981
-0.0144015
-0.727028
0.722631
0.0109443
-0.00720299
-0.588342
0.5846
0.00417432
-0.00159058
-0.476921
0.474337
-0.000214766
0.00151274
-0.377363
0.376065
-0.00201407
0.00185907
-0.263369
0.263524
-0.0014175
0.000858453
-0.131508
0.132067
-0.000428873
-0.0207393
0.0211682
-0.0785448
0.0771734
0.00137133
-0.0056657
0.00643847
-0.439103
0.438331
-0.00523879
0.0030271
-0.588889
0.5911
0.000746692
-0.00449486
-0.698903
0.702651
0.00872038
-0.0129178
-0.810714
0.814912
0.0174423
-0.0220661
-0.934349
0.938972
0.0266541
-0.0307346
-1.07037
1.07445
0.0352124
-0.0387251
-1.2175
1.22101
0.0418716
-0.0443239
-1.37351
1.37596
0.0455986
-0.0453887
-1.53592
1.53571
0.0437518
-0.0408059
-1.43167
1.42873
0.0374685
-0.0333546
-1.12503
1.12091
0.0294913
-0.0251554
-0.894857
0.890521
0.0212067
-0.0172175
-0.718274
0.714285
0.0136621
-0.0101638
-0.580612
0.577114
0.00733941
-0.00459073
-0.470794
0.468046
0.00259318
-0.00123822
-0.372668
0.371313
0.000298465
0.000266283
-0.260508
0.259943
-0.000478069
0.000449206
-0.129888
0.129917
-0.000310183
-0.0203836
0.0206938
-0.0783676
0.0772136
0.00115398
-0.00425929
0.00481614
-0.4413
0.440743
-0.00380932
0.00153444
-0.594939
0.597214
0.0019485
-0.00553963
-0.706496
0.710087
0.00960371
-0.0134368
-0.819045
0.822878
0.0181003
-0.0219964
-0.943124
0.94702
0.0265866
-0.0305323
-1.07875
1.08269
0.0349517
-0.038708
-1.22457
1.22832
0.0422046
-0.0445324
-1.37824
1.38057
0.0462426
-0.0465191
-1.53553
1.5358
0.0455618
-0.0429237
-1.42572
1.42308
0.0399429
-0.0360848
-1.11686
1.113
0.0324384
-0.0282008
-0.885923
0.881685
0.0244445
-0.0203946
-0.709998
0.705948
0.0168712
-0.0133005
-0.573273
0.569702
0.0102943
-0.00760769
-0.464534
0.461848
0.00534412
-0.00360145
-0.367715
0.365973
0.00223131
-0.00116967
-0.256777
0.255716
0.000432589
0.000118089
-0.127445
0.126894
-0.000217953
-0.0197611
0.019979
-0.0784604
0.0776387
0.000821639
-0.00304888
0.00316795
-0.443683
0.443564
-0.00236587
8.32774e-05
-0.600276
0.602559
0.00316257
-0.00662583
-0.713585
0.717048
0.010517
-0.01448
-0.826693
0.830656
0.0185723
-0.0226359
-0.95118
0.955243
0.02721
-0.0309796
-1.08711
1.09088
0.0355211
-0.0392761
-1.23194
1.2357
0.0428905
-0.0457967
-1.38335
1.38626
0.0480582
-0.0486782
-1.53619
1.53681
0.0479925
-0.0459976
-1.42061
1.41862
0.0434181
-0.0397192
-1.10894
1.10524
0.036108
-0.0321337
-0.877234
0.87326
0.0280624
-0.0241129
-0.701556
0.697606
0.0205092
-0.0167369
-0.565962
0.56219
0.0137102
-0.0106617
-0.458103
0.455054
0.00820309
-0.00590079
-0.362468
0.360165
0.0042521
-0.00269087
-0.252312
0.250751
0.00131565
-0.000262994
-0.124313
0.12326
-0.000121968
-0.0189195
0.0190415
-0.0789436
0.0782782
0.000665383
-0.00207538
0.0021931
-0.446272
0.446154
-0.000871237
-0.00130368
-0.605565
0.60774
0.00458511
-0.00787616
-0.720195
0.723486
0.011605
-0.0151877
-0.834393
0.837976
0.0194021
-0.0231694
-0.959363
0.96313
0.0277046
-0.0319083
-1.09513
1.09933
0.0361318
-0.0402386
-1.23955
1.24366
0.0443076
-0.0473574
-1.38913
1.39218
0.0500502
-0.0514847
-1.53772
1.53915
0.0512587
-0.0498308
-1.41651
1.41508
0.0473493
-0.0439097
-1.1015
1.09806
0.0404834
-0.036424
-0.868684
0.864624
0.0324623
-0.0283323
-0.693041
0.688911
0.024574
-0.0205144
-0.558111
0.554052
0.0171535
-0.0139032
-0.451301
0.448051
0.0109964
-0.00832388
-0.356455
0.353783
0.00620346
-0.00412156
-0.247006
0.244925
0.0023057
-0.000745825
-0.120496
0.118936
3.48638e-05
-0.0179077
0.0178728
-0.0796707
0.0791607
0.000509978
-0.0010645
0.000944968
-0.44901
0.44913
0.000212671
-0.0026562
-0.610472
0.612916
0.00579687
-0.00890896
-0.726525
0.729637
0.0126982
-0.0161284
-0.841599
0.845029
0.0201903
-0.0240737
-0.9674
0.971284
0.0285175
-0.0326923
-1.10344
1.10761
0.0371408
-0.0412938
-1.24774
1.25189
0.045578
-0.0493968
-1.39558
1.3994
0.0525854
-0.0543729
-1.54061
1.5424
0.0548631
-0.05376
-1.41359
1.41248
0.0517746
-0.0487249
-1.09454
1.09149
0.0451862
-0.0411052
-0.860057
0.855976
0.0370883
-0.0326799
-0.684254
0.679846
0.0288329
-0.0244946
-0.54997
0.545632
0.0209181
-0.0172113
-0.444016
0.440309
0.0140991
-0.0110255
-0.349735
0.346661
0.00829114
-0.0056355
-0.240824
0.238168
0.00334533
-0.00129087