/*--------------------------------*- C++ -*----------------------------------*\
  =========                 |
  \\      /  F ield         | OpenFOAM: The Open Source CFD Toolbox
   \\    /   O peration     | Website:  https://openfoam.org
    \\  /    A nd           | Version:  9
     \\/     M anipulation  |
\*---------------------------------------------------------------------------*/
FoamFile
{
    format      ascii;
    class       volScalarField;
    location    "18";
    object      p;
}
// * * * * * * * * * * * * * * * * * * * * * * * * * * * * * * * * * * * * * //

dimensions      [0 2 -2 0 0 0 0];

internalField   nonuniform List<scalar> 
2200
(
0.403436
0.381957
0.366074
0.350442
0.335897
0.323448
0.313158
0.30506
0.299334
0.296346
0.296634
0.300138
0.306234
0.314601
0.325081
0.337668
0.352304
0.36799
0.383909
0.405405
0.335813
0.332563
0.329676
0.325609
0.32019
0.313787
0.307266
0.301393
0.296929
0.294449
0.294737
0.297759
0.302613
0.30878
0.315509
0.322054
0.327578
0.331723
0.334655
0.337917
0.295786
0.29604
0.298137
0.299524
0.299998
0.299236
0.297299
0.29472
0.292256
0.290677
0.291003
0.293152
0.296057
0.298951
0.301115
0.302038
0.301675
0.300391
0.29837
0.298139
0.273072
0.274553
0.277288
0.279898
0.282514
0.28467
0.285892
0.286161
0.28572
0.28527
0.285653
0.286764
0.287694
0.287791
0.286836
0.284874
0.282399
0.279869
0.277179
0.27572
0.258848
0.260778
0.263746
0.266766
0.269756
0.27271
0.275325
0.277341
0.278549
0.279172
0.279633
0.279784
0.279159
0.277575
0.275273
0.272543
0.269713
0.266792
0.263889
0.261969
0.251985
0.253553
0.25579
0.258371
0.261085
0.263786
0.266387
0.268878
0.27099
0.272452
0.272968
0.272424
0.271039
0.269083
0.266856
0.264428
0.261912
0.259472
0.257311
0.255746
0.248847
0.249853
0.251229
0.253323
0.255659
0.257903
0.259984
0.262043
0.264077
0.265738
0.266363
0.265831
0.264693
0.263276
0.261647
0.25973
0.257625
0.255687
0.254388
0.253385
0.246669
0.247215
0.248139
0.250067
0.252252
0.254345
0.256234
0.257989
0.259644
0.261052
0.261858
0.261849
0.261271
0.26031
0.258967
0.257274
0.255363
0.253618
0.252775
0.252236
0.245115
0.245344
0.24603
0.247691
0.249609
0.251588
0.253509
0.255301
0.25689
0.258231
0.259217
0.259567
0.25925
0.258447
0.257248
0.255796
0.254216
0.252786
0.252203
0.25199
0.243855
0.243878
0.244316
0.245365
0.246652
0.248144
0.249846
0.251678
0.253474
0.25514
0.256366
0.256882
0.256662
0.25603
0.255266
0.254366
0.25349
0.252717
0.252398
0.252342
0.241671
0.241652
0.241902
0.242434
0.243158
0.244124
0.245358
0.246935
0.248759
0.250704
0.252314
0.253229
0.253533
0.253398
0.253121
0.252855
0.252631
0.252426
0.252328
0.252324
0.238545
0.238492
0.238698
0.239086
0.239712
0.240528
0.241553
0.24295
0.244667
0.246691
0.248654
0.250108
0.251082
0.251562
0.251723
0.25186
0.251891
0.251883
0.251872
0.251877
0.23506
0.235028
0.235264
0.235687
0.236397
0.23734
0.238562
0.240125
0.242028
0.244319
0.246663
0.248531
0.249817
0.250688
0.251253
0.251538
0.251608
0.251623
0.251625
0.25163
0.231177
0.231175
0.231372
0.23184
0.232591
0.233634
0.235081
0.236935
0.23927
0.242118
0.245075
0.247433
0.249066
0.250215
0.251013
0.251458
0.251695
0.251821
0.251872
0.251871
0.226599
0.226596
0.226767
0.227206
0.227941
0.229002
0.230559
0.232672
0.235482
0.239033
0.242844
0.245953
0.24818
0.24973
0.250824
0.251539
0.251996
0.252271
0.252392
0.252383
0.221038
0.221016
0.221264
0.221746
0.222559
0.223782
0.225542
0.227999
0.231354
0.235703
0.240496
0.244535
0.247477
0.249554
0.251028
0.252022
0.252683
0.253084
0.253264
0.253252
0.214573
0.214539
0.21484
0.215452
0.216465
0.217994
0.220188
0.223247
0.227392
0.232767
0.238715
0.243799
0.247516
0.25018
0.252031
0.253275
0.254082
0.25455
0.254756
0.254738
0.206903
0.206876
0.207255
0.208103
0.209436
0.211372
0.214147
0.218012
0.223233
0.229973
0.237375
0.243669
0.24827
0.251547
0.253801
0.255325
0.25632
0.256908
0.257168
0.257147
0.197977
0.197941
0.198396
0.199398
0.201051
0.203518
0.207035
0.211921
0.218506
0.226964
0.23618
0.243952
0.249635
0.253677
0.256483
0.258399
0.259643
0.260364
0.260672
0.260635
0.187054
0.187038
0.187675
0.188991
0.191104
0.19422
0.198692
0.204917
0.213246
0.223847
0.235273
0.24484
0.251826
0.25679
0.260229
0.262566
0.264104
0.265013
0.265404
0.265362
0.173893
0.173844
0.174629
0.176297
0.179037
0.183125
0.188924
0.196906
0.207476
0.220728
0.234797
0.246484
0.255002
0.261056
0.265284
0.268176
0.270067
0.27117
0.271628
0.271564
0.157165
0.157207
0.158351
0.160626
0.164306
0.169736
0.177371
0.187757
0.201218
0.217723
0.234941
0.249117
0.25943
0.266777
0.271901
0.275406
0.277717
0.279066
0.279633
0.279558
0.136159
0.136138
0.137699
0.140903
0.146016
0.153496
0.16378
0.17738
0.194489
0.214914
0.235781
0.252788
0.26513
0.27396
0.280196
0.28451
0.28738
0.289068
0.289741
0.289607
0.108439
0.108778
0.111278
0.115967
0.123352
0.133963
0.147933
0.165741
0.187361
0.212402
0.237434
0.257628
0.272287
0.282842
0.290376
0.295668
0.299202
0.301242
0.302086
0.301928
0.0713668
0.0719656
0.0761143
0.0840037
0.0954413
0.110691
0.129828
0.153077
0.180128
0.210481
0.24014
0.2638
0.280969
0.293445
0.302471
0.308939
0.313431
0.316142
0.317214
0.316901
0.0218934
0.0224967
0.0303455
0.0437367
0.0617587
0.0838335
0.109854
0.139742
0.173117
0.209394
0.243973
0.271262
0.291107
0.305685
0.316474
0.324417
0.330019
0.333322
0.334411
0.333992
-0.0455087
-0.0418666
-0.0250642
-0.00241535
0.0244248
0.0548499
0.0887467
0.126062
0.16651
0.209425
0.249625
0.281326
0.304703
0.322229
0.335513
0.345687
0.353383
0.358159
0.359628
0.359432
-0.124598
-0.111806
-0.0829773
-0.0501291
-0.0135827
0.0254767
0.0675266
0.112654
0.16051
0.21049
0.257046
0.293909
0.321417
0.342562
0.359202
0.372368
0.382911
0.390104
0.393829
0.394381
-0.190417
-0.173581
-0.137132
-0.0959767
-0.0506808
-0.00311171
0.0471455
0.0999973
0.155005
0.211745
0.264173
0.305632
0.336756
0.360784
0.37982
0.394988
0.406716
0.415325
0.419111
0.419427
-0.239347
-0.224453
-0.183026
-0.136502
-0.0844345
-0.0296547
0.0279187
0.0877666
0.149445
0.212581
0.27047
0.315987
0.349891
0.375781
0.395957
0.411839
0.424097
0.432574
0.436357
0.436844
-0.279553
-0.265293
-0.221114
-0.171342
-0.11408
-0.0535911
0.0100466
0.0760011
0.143828
0.212909
0.275713
0.324431
0.360127
0.386971
0.407441
0.423376
0.435739
0.444252
0.448361
0.448825
-0.314134
-0.299635
-0.253422
-0.201296
-0.139949
-0.0750266
-0.0064421
0.0647832
0.138055
0.21225
0.279081
0.330281
0.367325
0.394836
0.415727
0.431876
0.444296
0.452997
0.457229
0.457612
-0.344408
-0.32989
-0.28166
-0.227251
-0.162684
-0.0943683
-0.0217498
0.0539499
0.131872
0.210577
0.281233
0.335024
0.373404
0.401706
0.422932
0.43908
0.451507
0.460243
0.464294
0.464613
-0.371676
-0.357283
-0.307171
-0.250333
-0.183067
-0.112093
-0.036172
0.0433117
0.125313
0.208256
0.282727
0.338881
0.378714
0.407749
0.429539
0.445936
0.458231
0.466974
0.470822
0.471055
-0.396612
-0.382384
-0.330916
-0.271702
-0.201976
-0.128676
-0.0499438
0.0327904
0.118439
0.20534
0.283469
0.342456
0.384149
0.414174
0.436194
0.452581
0.464757
0.473276
0.477258
0.477593
-0.420132
-0.405481
-0.353396
-0.292192
-0.220167
-0.144592
-0.0632849
0.0223307
0.111262
0.202006
0.284088
0.346158
0.389376
0.420167
0.442723
0.459348
0.47161
0.480052
0.483978
0.484293
-0.442243
-0.427413
-0.374851
-0.312156
-0.238064
-0.160225
-0.0764421
0.0118363
0.103862
0.198314
0.284272
0.348997
0.394197
0.426297
0.449441
0.466341
0.478672
0.486834
0.490847
0.491189
-0.463092
-0.448325
-0.395379
-0.331526
-0.255801
-0.175856
-0.089705
0.00109724
0.0959817
0.193722
0.283165
0.351294
0.399223
0.432734
0.456533
0.473679
0.486078
0.494341
0.498115
0.498386
-0.483229
-0.468324
-0.415026
-0.350232
-0.273301
-0.191571
-0.103303
-0.0101912
0.0872414
0.188058
0.281285
0.353141
0.403485
0.438946
0.463859
0.481517
0.49398
0.501851
0.50559
0.505827
-0.503109
-0.487615
-0.433956
-0.368265
-0.290413
-0.207288
-0.117272
-0.0221402
0.0776636
0.181539
0.278608
0.353997
0.407835
0.44566
0.471854
0.489881
0.502315
0.510133
0.513554
0.513609
-0.522682
-0.506369
-0.452331
-0.385716
-0.30706
-0.222853
-0.131427
-0.0345408
0.0674699
0.174078
0.274488
0.353832
0.411506
0.452439
0.480578
0.499297
0.511451
0.518471
0.521601
0.521525
-0.541756
-0.524745
-0.470267
-0.402693
-0.323236
-0.238107
-0.145519
-0.0471614
0.0567354
0.165637
0.269196
0.352781
0.414363
0.458908
0.48981
0.509804
0.521564
0.527748
0.529895
0.529552
-0.560173
-0.542667
-0.487758
-0.419264
-0.338995
-0.253004
-0.159418
-0.0598642
0.045567
0.156519
0.263053
0.350462
0.416211
0.465072
0.499786
0.522213
0.533861
0.537238
0.537028
0.536962
-0.577925
-0.560092
-0.504747
-0.435418
-0.354382
-0.267585
-0.173128
-0.0726019
0.0340622
0.146692
0.255394
0.345981
0.416306
0.470151
0.509913
0.536367
0.549449
0.550219
0.545277
0.542611
-0.594993
-0.57689
-0.521149
-0.451104
-0.369402
-0.281893
-0.186701
-0.0853877
0.0222641
0.13614
0.246617
0.340315
0.414698
0.4738
0.519578
0.552589
0.571328
0.568136
0.560604
0.565396
-0.611393
-0.593018
-0.536882
-0.466238
-0.384002
-0.295915
-0.200118
-0.0981672
0.0102721
0.12516
0.237105
0.332954
0.410855
0.474964
0.527025
0.568319
0.598054
0.589877
0.545848
0.49635
-0.627061
-0.608478
-0.551974
-0.48086
-0.398247
-0.309755
-0.213534
-0.111126
-0.00217246
0.113397
0.226146
0.323032
0.40331
0.472173
0.531035
0.582221
0.627116
0.651641
0.676423
0.727039
-0.64196
-0.623347
-0.566517
-0.495087
-0.41227
-0.323582
-0.22717
-0.124603
-0.0155156
0.100227
0.213308
0.3109
0.392712
0.464036
0.52481
0.575702
0.612044
0.628533
0.61013
0.615818
-0.656049
-0.637596
-0.580487
-0.50887
-0.425967
-0.33726
-0.240868
-0.138409
-0.0295264
0.0859618
0.198687
0.295257
0.375669
0.445963
0.504406
0.548251
0.556266
0.522397
0.470856
0.464209
-0.669369
-0.651218
-0.593892
-0.522225
-0.439341
-0.350775
-0.254592
-0.15248
-0.0441655
0.0704364
0.181813
0.276884
0.353677
0.417766
0.468495
0.486256
0.457596
0.390865
0.320887
0.31293
-0.681966
-0.664201
-0.60676
-0.535185
-0.45242
-0.364137
-0.268324
-0.166794
-0.0593925
0.053843
0.16343
0.255608
0.32678
0.377223
0.403325
0.393621
0.347195
0.24673
0.15938
0.144202
-0.694292
-0.676949
-0.619471
-0.548114
-0.46556
-0.377656
-0.282345
-0.181596
-0.0754121
0.0358994
0.1428
0.230285
0.295034
0.329339
0.321213
0.283658
0.178464
0.0545145
-0.054595
-0.0767182
-0.707188
-0.690212
-0.632693
-0.561609
-0.479315
-0.391807
-0.297067
-0.197223
-0.0924552
0.016537
0.119711
0.202446
0.258805
0.270948
0.227874
0.137977
-0.0253031
-0.182126
-0.312009
-0.336667
-0.721139
-0.704412
-0.646716
-0.575879
-0.493858
-0.406709
-0.31257
-0.213689
-0.11048
-0.00420304
0.0947969
0.171956
0.21648
0.200515
0.131535
-0.0262622
-0.241685
-0.466558
-0.653689
-0.700365
-0.736177
-0.71959
-0.66158
-0.590928
-0.509145
-0.422319
-0.328798
-0.230972
-0.129464
-0.0262044
0.0673956
0.137725
0.169196
0.118628
0.0131349
-0.196834
-0.454151
-0.770047
-1.11274
-1.25331
-0.752354
-0.735857
-0.67737
-0.606817
-0.525203
-0.438669
-0.345775
-0.249051
-0.14934
-0.0492347
0.0384466
0.102517
0.114767
0.0289364
-0.130771
-0.370422
-0.640633
-1.02633
-1.65745
-2.25227
-0.76965
-0.75318
-0.694128
-0.623581
-0.542021
-0.455727
-0.363418
-0.267825
-0.170025
-0.0732072
0.0085866
0.0649341
0.0605884
-0.0551764
-0.274316
-0.554642
-0.800659
-1.08687
-1.72304
-3.39375
-0.788131
-0.771617
-0.711915
-0.641317
-0.559728
-0.473645
-0.381922
-0.287512
-0.191711
-0.0980397
-0.0219198
0.0244608
0.00325517
-0.125255
-0.388427
-0.684819
-0.877639
-0.956759
-0.996018
-1.42617
-0.807719
-0.791103
-0.730893
-0.660289
-0.578648
-0.492833
-0.40177
-0.308657
-0.215181
-0.125498
-0.0550567
-0.0187128
-0.0631254
-0.178088
-0.450253
-0.720159
-0.877297
-0.910055
-0.866755
-0.917387
-0.828395
-0.811573
-0.75099
-0.680563
-0.598822
-0.513343
-0.423054
-0.331443
-0.240634
-0.155459
-0.0895508
-0.0633746
-0.123573
-0.233713
-0.499156
-0.722611
-0.842232
-0.872266
-0.906959
-0.925173
-0.849902
-0.832777
-0.772207
-0.702185
-0.620165
-0.535112
-0.445722
-0.355608
-0.267521
-0.187074
-0.125371
-0.106389
-0.174281
-0.295301
-0.539008
-0.726579
-0.829166
-0.806613
-0.832577
-0.832861
-0.871945
-0.85455
-0.79465
-0.724921
-0.642427
-0.557962
-0.469574
-0.381024
-0.295797
-0.220117
-0.163276
-0.153716
-0.226778
-0.364643
-0.581965
-0.740494
-0.825238
-0.827709
-0.83014
-0.837078
-0.894128
-0.876735
-0.818032
-0.748388
-0.66528
-0.581655
-0.494391
-0.407382
-0.324957
-0.253852
-0.201284
-0.202045
-0.277485
-0.437922
-0.622397
-0.752686
-0.815771
-0.85649
-0.822856
-0.829181
-0.916272
-0.89908
-0.84154
-0.771987
-0.688403
-0.605886
-0.519597
-0.433835
-0.354093
-0.28734
-0.238227
-0.246624
-0.334321
-0.511177
-0.654799
-0.765428
-0.78947
-0.832709
-0.795446
-0.799054
-0.937813
-0.921156
-0.86444
-0.795012
-0.71159
-0.630182
-0.544533
-0.460266
-0.38294
-0.320215
-0.273363
-0.280308
-0.398814
-0.598559
-0.677896
-0.712108
-0.708452
-0.733178
-0.752707
-0.759414
-0.958117
-0.942133
-0.886091
-0.81659
-0.734809
-0.653932
-0.568576
-0.485769
-0.409936
-0.350437
-0.309933
-0.305236
-0.460337
-0.696217
-0.732286
-0.632488
-0.635459
-0.66553
-0.711386
-0.72166
-0.976272
-0.961268
-0.906098
-0.836779
-0.757023
-0.675926
-0.590603
-0.50928
-0.433815
-0.374822
-0.3438
-0.323962
-0.521958
-0.832735
-0.979103
-0.949458
-0.956626
-0.952465
-0.949591
-0.93874
-0.991428
-0.977614
-0.923976
-0.85523
-0.776806
-0.694874
-0.610313
-0.530584
-0.454974
-0.392352
-0.371872
-0.329435
-0.561013
-0.975831
-1.45538
-1.80677
-1.90941
-1.84877
-1.74832
-1.66482
-1.00242
-0.990039
-0.938573
-0.870537
-0.792573
-0.710975
-0.627186
-0.547133
-0.47151
-0.401787
-0.390976
-0.33536
-0.572474
-1.0108
-1.60996
-2.14379
-2.2893
-2.13439
-2.02068
-1.93671
-1.00834
-0.99746
-0.948624
-0.881339
-0.803598
-0.722701
-0.639483
-0.557492
-0.480034
-0.407233
-0.386895
-0.333693
-0.516382
-0.790985
-1.12594
-1.35609
-1.36236
-1.26521
-1.12112
-1.00067
-1.00733
-0.997949
-0.952273
-0.886097
-0.80892
-0.72861
-0.645915
-0.562102
-0.4816
-0.402026
-0.360376
-0.29179
-0.306905
-0.228501
-0.122822
-0.0216774
0.111203
0.230393
0.302871
0.34383
-0.998067
-0.990255
-0.948707
-0.884039
-0.808014
-0.728429
-0.646072
-0.561802
-0.47719
-0.382303
-0.310505
-0.220861
-0.0434835
0.284923
0.667849
0.974623
1.1983
1.33881
1.40535
1.42751
-0.978255
-0.971704
-0.935826
-0.874067
-0.800077
-0.722047
-0.640474
-0.555933
-0.465715
-0.357134
-0.247005
-0.146046
0.133435
0.55282
0.999185
1.37155
1.64651
1.80584
1.86987
1.88357
-0.947687
-0.942296
-0.912448
-0.854415
-0.783623
-0.709054
-0.63021
-0.546929
-0.452499
-0.340051
-0.19013
-0.0786704
0.194458
0.566856
0.969748
1.30925
1.56697
1.7205
1.78391
1.79873
-0.905318
-0.901537
-0.878152
-0.82588
-0.759603
-0.689701
-0.617459
-0.540627
-0.453273
-0.34595
-0.176282
-0.0244662
0.179918
0.454442
0.776541
1.04505
1.26318
1.40061
1.46515
1.48524
-0.849323
-0.847399
-0.82914
-0.784185
-0.72665
-0.665144
-0.603153
-0.537475
-0.461016
-0.377211
-0.227236
-0.0522397
0.0898099
0.297035
0.540806
0.741887
0.912421
1.02338
1.0812
1.10153
-0.777688
-0.777693
-0.763905
-0.7296
-0.684874
-0.637299
-0.591219
-0.544846
-0.497386
-0.447496
-0.346142
-0.213487
-0.053881
0.134372
0.326844
0.48518
0.616605
0.706033
0.747036
0.759009
-0.699237
-0.699812
-0.691268
-0.67039
-0.641195
-0.610511
-0.583382
-0.562167
-0.554887
-0.552266
-0.537843
-0.437542
-0.254195
-0.0631766
0.117274
0.258597
0.373219
0.450744
0.466493
0.468676
-0.630376
-0.630523
-0.626467
-0.616153
-0.601597
-0.587285
-0.579939
-0.58773
-0.628776
-0.697977
-0.803689
-0.722346
-0.531065
-0.332738
-0.131216
0.0322358
0.137706
0.185417
0.20254
0.210515
-0.569891
-0.570768
-0.570328
-0.568065
-0.562419
-0.562704
-0.572537
-0.607669
-0.694527
-0.858108
-1.09812
-1.02192
-0.805778
-0.566896
-0.340303
-0.174442
-0.0871491
-0.0395073
-0.016289
-0.00881835
-0.508819
-0.510757
-0.511586
-0.513666
-0.51797
-0.5287
-0.542643
-0.596531
-0.709361
-0.895733
-1.27452
-1.17701
-0.936427
-0.670906
-0.453804
-0.323171
-0.238929
-0.198669
-0.18396
-0.181218
-0.438335
-0.440383
-0.441983
-0.445145
-0.452461
-0.465345
-0.490395
-0.545072
-0.659826
-0.860839
-1.1411
-1.05607
-0.83235
-0.613736
-0.473503
-0.38152
-0.322152
-0.306116
-0.298513
-0.297558
-0.359857
-0.361746
-0.364129
-0.367
-0.372577
-0.383893
-0.406753
-0.452534
-0.544837
-0.702673
-0.873687
-0.770517
-0.589491
-0.479672
-0.411648
-0.361356
-0.347219
-0.341624
-0.338497
-0.337907
-0.276621
-0.277997
-0.280165
-0.282781
-0.286577
-0.29385
-0.308397
-0.338129
-0.39738
-0.495844
-0.592545
-0.476452
-0.371826
-0.32623
-0.291615
-0.29734
-0.303801
-0.306425
-0.307742
-0.308113
-0.195836
-0.196662
-0.198171
-0.199773
-0.201756
-0.205126
-0.211291
-0.224581
-0.251513
-0.295908
-0.329692
-0.253866
-0.224921
-0.208092
-0.202229
-0.223475
-0.2335
-0.240118
-0.243331
-0.244381
-0.124585
-0.125004
-0.125889
-0.126616
-0.127179
-0.127694
-0.127761
-0.128558
-0.130438
-0.129163
-0.109138
-0.106568
-0.116845
-0.124413
-0.139366
-0.157294
-0.166552
-0.17298
-0.175927
-0.176955
-0.0673247
-0.067462
-0.0679238
-0.0680847
-0.0678223
-0.0669094
-0.0641118
-0.0588541
-0.0493491
-0.0287722
-0.000836126
-0.00956668
-0.0395063
-0.061731
-0.0845118
-0.0999387
-0.108735
-0.114293
-0.116849
-0.117779
-0.025172
-0.025167
-0.0253999
-0.0253059
-0.0246433
-0.0232439
-0.0198947
-0.0135966
-0.00262424
0.0166519
0.0408692
0.0264349
-0.00132706
-0.0231054
-0.0436833
-0.056268
-0.0638092
-0.0682715
-0.0704283
-0.0712584
0.00371199
0.00374376
0.0036166
0.0036999
0.00443477
0.00583525
0.00884594
0.0141529
0.0229261
0.0367904
0.0518664
0.0383343
0.0164858
-0.0010864
-0.0167705
-0.0263074
-0.0321645
-0.0355351
-0.0372078
-0.0378515
0.0224672
0.0224717
0.0223447
0.0222078
0.0226368
0.0236407
0.0259643
0.0299185
0.0360125
0.0447108
0.0518906
0.0419515
0.0251568
0.0117421
0.000347937
-0.00676297
-0.0112403
-0.0138146
-0.0150938
-0.0155927
0.0337576
0.0337318
0.0335228
0.0330764
0.0329664
0.0332622
0.0346049
0.0371499
0.0410695
0.046085
0.0485154
0.0413704
0.0288462
0.0189811
0.0107841
0.00542843
0.00194714
-9.20691e-05
-0.00109079
-0.00144398
0.0392865
0.0392443
0.0389486
0.0382693
0.0377205
0.0373722
0.0377118
0.0388593
0.0410089
0.0436502
0.0438809
0.038484
0.0295665
0.022447
0.0165732
0.0125529
0.00986583
0.00825279
0.00748004
0.00722856
0.0405551
0.0405081
0.0401869
0.0394537
0.0387332
0.0380724
0.0377496
0.0378281
0.0385577
0.0395073
0.0386998
0.034584
0.0283777
0.0233037
0.0191455
0.0161998
0.0141892
0.0129557
0.0123775
0.0122013
0.0391167
0.0390736
0.038788
0.0381358
0.0374337
0.0367308
0.0361448
0.0356784
0.0354948
0.0352586
0.0338251
0.0305365
0.0261688
0.02256
0.0196373
0.0175188
0.016049
0.0151339
0.0147136
0.0145889
0.0361961
0.0361653
0.0359239
0.0353634
0.0347146
0.0340379
0.033372
0.0327214
0.0321123
0.0312583
0.0295363
0.0267979
0.0236219
0.0210066
0.0189107
0.0173635
0.0162726
0.015585
0.0152767
0.0151889
0.0323847
0.0323662
0.0321565
0.0316639
0.0310594
0.0304022
0.0296944
0.0289849
0.028226
0.0271979
0.0255287
0.023285
0.0209242
0.01898
0.0174237
0.0162584
0.0154264
0.0148968
0.0146664
0.0146051
0.0279645
0.0279534
0.0277704
0.0273395
0.0267969
0.0261844
0.0254839
0.0247669
0.0239656
0.0229694
0.0215326
0.0197677
0.0180125
0.0165628
0.0153983
0.0145191
0.0138858
0.0134768
0.013303
0.0132583
0.02315
0.0231445
0.0229974
0.0226449
0.0221943
0.0216662
0.0210435
0.0203851
0.0196155
0.018715
0.0175318
0.0161819
0.0148922
0.0138292
0.0129734
0.0123247
0.0118561
0.0115514
0.0114258
0.0113945
0.0181372
0.0181341
0.0180268
0.0177555
0.0174152
0.0169958
0.0164987
0.015962
0.0152978
0.01454
0.013593
0.0125818
0.0116521
0.0108953
0.010285
0.0098215
0.00948637
0.00926669
0.00917901
0.00915649
0.0130449
0.0130459
0.0129739
0.0127768
0.0125334
0.0122236
0.0118667
0.0114758
0.0109723
0.0104112
0.00971574
0.00900373
0.00836371
0.0078505
0.00743596
0.00711897
0.00688947
0.00674023
0.00668317
0.00666942
0.00788791
0.00789015
0.00785157
0.00772388
0.00757622
0.00738056
0.00715419
0.00691842
0.00659364
0.00626228
0.00583777
0.00542107
0.00504256
0.00474573
0.00450025
0.00430874
0.00416687
0.00407252
0.00404015
0.0040319
0.00269212
0.00269433
0.00268805
0.00263046
0.00257858
0.00249158
0.00239171
0.0023277
0.00218717
0.0020961
0.00194409
0.00181542
0.00168082
0.00158831
0.00150042
0.00143026
0.00137297
0.0013269
0.00131479
0.00131218
-1.59813
-0.686419
-0.410449
-0.113387
0.0888737
0.264747
0.414045
0.565786
0.726931
0.804421
-0.556344
-0.116264
-0.0816648
0.119077
0.261357
0.388728
0.50014
0.59777
0.631982
0.58635
-0.136049
0.0967502
0.14705
0.289781
0.389182
0.47956
0.554442
0.61011
0.616322
0.627454
0.118781
0.277596
0.315393
0.428672
0.491567
0.556402
0.606121
0.641076
0.651948
0.674656
0.315564
0.425183
0.454586
0.533967
0.579083
0.625423
0.660401
0.686092
0.697137
0.727855
0.466579
0.542558
0.573042
0.62233
0.660011
0.69285
0.718984
0.740418
0.75557
0.783193
0.592696
0.646902
0.673567
0.704393
0.734008
0.759237
0.780376
0.800173
0.815562
0.841639
0.700563
0.73995
0.761956
0.783892
0.8061
0.826458
0.844436
0.862855
0.8779
0.901434
0.797568
0.827121
0.844779
0.860809
0.877774
0.894367
0.910198
0.927397
0.941045
0.963361
0.887358
0.908526
0.923922
0.937524
0.951504
0.965609
0.979241
0.993962
1.00554
1.02522
0.974147
0.99013
1.00422
1.01632
1.0285
1.04027
1.05148
1.06321
1.07085
1.08765
1.05994
1.07295
1.08683
1.0986
1.10925
1.11905
1.12783
1.13603
1.13963
1.1509
1.14953
1.16053
1.17406
1.18328
1.19071
1.19786
1.20507
1.2117
1.21271
1.22014
1.24806
1.2528
1.26082
1.2653
1.26856
1.27304
1.27904
1.28682
1.29064
1.30052
1.36141
1.34768
1.34022
1.33455
1.33186
1.33326
1.33981
1.35225
1.36695
1.39659
1.48215
1.42655
1.39565
1.37857
1.37045
1.37047
1.3791
1.39851
1.43059
1.49975
)
;

boundaryField
{
    wall-4
    {
        type            zeroGradient;
    }
    pressure-outlet-7
    {
        type            fixedValue;
        value           uniform 0;
    }
    velocity-inlet-6
    {
        type            zeroGradient;
    }
    velocity-inlet-5
    {
        type            zeroGradient;
    }
    frontAndBackPlanes
    {
        type            empty;
    }
}


// ************************************************************************* //
