/*--------------------------------*- C++ -*----------------------------------*\
  =========                 |
  \\      /  F ield         | OpenFOAM: The Open Source CFD Toolbox
   \\    /   O peration     | Website:  https://openfoam.org
    \\  /    A nd           | Version:  9
     \\/     M anipulation  |
\*---------------------------------------------------------------------------*/
FoamFile
{
    format      ascii;
    class       volScalarField;
    location    "4";
    object      p;
}
// * * * * * * * * * * * * * * * * * * * * * * * * * * * * * * * * * * * * * //

dimensions      [0 2 -2 0 0 0 0];

internalField   nonuniform List<scalar> 
8800
(
0.658414
0.611139
0.573781
0.54628
0.526765
0.513103
0.503442
0.496741
0.492422
0.490473
0.491342
0.494778
0.500432
0.508633
0.520206
0.536561
0.559832
0.592235
0.633699
0.69049
0.489705
0.497527
0.507819
0.512619
0.512357
0.508412
0.502966
0.497604
0.493099
0.490106
0.489553
0.491818
0.495897
0.501062
0.506682
0.511698
0.514063
0.511988
0.504249
0.493699
0.47099
0.477246
0.482193
0.485845
0.488164
0.489004
0.488339
0.486757
0.485149
0.484382
0.484869
0.48643
0.488382
0.489824
0.489923
0.488363
0.485425
0.481075
0.47569
0.472236
0.475209
0.477071
0.479713
0.481972
0.4836
0.484227
0.484123
0.483502
0.482739
0.482322
0.482751
0.483751
0.484732
0.485284
0.485161
0.484145
0.482246
0.479749
0.477363
0.476593
0.473305
0.473549
0.474068
0.474739
0.475493
0.476288
0.47687
0.477122
0.47713
0.477148
0.477501
0.477941
0.478127
0.477922
0.477338
0.476631
0.475979
0.47539
0.475044
0.474945
0.469541
0.469729
0.470096
0.470539
0.470998
0.471428
0.471782
0.472028
0.472177
0.472369
0.472702
0.473061
0.473247
0.473187
0.472972
0.472636
0.472252
0.471878
0.471613
0.471529
0.465291
0.465356
0.465487
0.465695
0.465972
0.466304
0.466659
0.467007
0.467344
0.467711
0.468088
0.468363
0.468479
0.468446
0.468298
0.468113
0.467936
0.46779
0.467699
0.467665
0.460433
0.460486
0.460582
0.460723
0.460915
0.461165
0.461469
0.461826
0.462232
0.462701
0.463168
0.463514
0.463701
0.463769
0.463759
0.463709
0.463645
0.463584
0.463539
0.463518
0.455437
0.455474
0.45555
0.455665
0.455828
0.456056
0.45636
0.456753
0.457244
0.457839
0.458432
0.458877
0.459155
0.45931
0.459381
0.459402
0.459398
0.459382
0.459366
0.459353
0.450292
0.450313
0.450373
0.450473
0.450629
0.450858
0.451185
0.451633
0.452224
0.452966
0.453721
0.454307
0.454699
0.454951
0.4551
0.455181
0.45522
0.455234
0.455235
0.455227
0.44495
0.44497
0.445028
0.445129
0.445293
0.445547
0.445923
0.446456
0.447181
0.448112
0.449073
0.449828
0.450365
0.45072
0.450944
0.45108
0.451156
0.451194
0.451207
0.451201
0.439397
0.439414
0.439476
0.439591
0.439782
0.440082
0.440535
0.441188
0.442089
0.443263
0.444489
0.445473
0.446168
0.44664
0.446946
0.447136
0.447248
0.447308
0.447332
0.447328
0.433588
0.433605
0.433678
0.433815
0.434047
0.434415
0.434976
0.435792
0.436926
0.438413
0.439975
0.44123
0.44213
0.442745
0.443149
0.443401
0.443551
0.443633
0.443668
0.443664
0.427458
0.427478
0.427568
0.427739
0.428029
0.428492
0.429197
0.430229
0.431666
0.433555
0.435542
0.437143
0.438293
0.439081
0.4396
0.439928
0.440124
0.440232
0.440278
0.440274
0.420925
0.42095
0.421063
0.42128
0.421648
0.422236
0.423135
0.424448
0.426278
0.428682
0.431209
0.433244
0.434708
0.435712
0.436374
0.436792
0.437042
0.437181
0.437241
0.437237
0.413877
0.413909
0.414054
0.414333
0.414805
0.41556
0.416711
0.41839
0.420728
0.423791
0.427002
0.429585
0.43144
0.432712
0.433551
0.434082
0.4344
0.434576
0.434653
0.434647
0.406162
0.406204
0.406393
0.406753
0.407364
0.408339
0.409821
0.411979
0.414971
0.418876
0.422954
0.426224
0.428569
0.430176
0.431234
0.431903
0.432305
0.432527
0.432624
0.432617
0.39758
0.397636
0.397885
0.398355
0.399151
0.400418
0.402338
0.405121
0.40896
0.41394
0.419112
0.423242
0.426197
0.428219
0.429552
0.430394
0.4309
0.43118
0.431301
0.431292
0.387859
0.387935
0.388265
0.388887
0.389934
0.391594
0.394095
0.397699
0.402635
0.408986
0.415534
0.420738
0.424454
0.426995
0.428667
0.429724
0.430358
0.430708
0.43086
0.430848
0.376624
0.37673
0.377175
0.378008
0.379402
0.381596
0.384883
0.389574
0.395934
0.404028
0.412294
0.418827
0.423483
0.426667
0.428765
0.430091
0.430887
0.431327
0.431517
0.431501
0.363344
0.363497
0.364108
0.365245
0.367133
0.370078
0.374438
0.380585
0.388797
0.399095
0.409486
0.41765
0.423463
0.427445
0.430073
0.43174
0.432742
0.433296
0.433536
0.433515
0.347252
0.34748
0.348344
0.349938
0.352554
0.35658
0.362447
0.370563
0.381183
0.394238
0.407219
0.417358
0.424586
0.42956
0.432862
0.434967
0.436237
0.436942
0.437246
0.43722
0.327188
0.327544
0.32881
0.331134
0.33489
0.340543
0.348574
0.359374
0.373105
0.389552
0.405621
0.418105
0.427044
0.433255
0.437427
0.440115
0.441751
0.442661
0.443055
0.443024
0.301272
0.301841
0.303833
0.307458
0.313136
0.321353
0.332552
0.347003
0.364681
0.38519
0.404827
0.420015
0.430982
0.438734
0.444058
0.44757
0.449749
0.450969
0.451491
0.451458
0.26602
0.267037
0.270705
0.276995
0.28615
0.298509
0.314335
0.333646
0.356169
0.381354
0.404948
0.423136
0.436434
0.446074
0.452939
0.457676
0.460761
0.462559
0.463336
0.463299
0.214182
0.217266
0.225648
0.237724
0.25313
0.271982
0.294272
0.319727
0.347897
0.378196
0.405959
0.427311
0.443164
0.455017
0.463873
0.470421
0.475132
0.478272
0.479879
0.479892
0.13327
0.148914
0.168659
0.191073
0.215893
0.243428
0.273537
0.305891
0.340095
0.375712
0.407797
0.432543
0.451308
0.465866
0.47738
0.486633
0.494177
0.500263
0.50512
0.506798
0.0481739
0.0804101
0.112272
0.145423
0.180073
0.216234
0.253884
0.292858
0.332902
0.37383
0.410497
0.439038
0.461128
0.478802
0.493321
0.505548
0.516034
0.525069
0.534532
0.537007
-0.01009
0.0247954
0.0644061
0.105801
0.148359
0.191985
0.236411
0.281336
0.326493
0.371805
0.411942
0.443099
0.46727
0.48664
0.502486
0.515639
0.526677
0.53603
0.54422
0.546584
-0.0514364
-0.0143387
0.0291235
0.0751452
0.122954
0.171964
0.221556
0.271161
0.32032
0.368903
0.411401
0.444123
0.46933
0.48934
0.505517
0.518759
0.529717
0.538921
0.546848
0.549258
-0.0807535
-0.0430085
0.00291105
0.052037
0.1034
0.156257
0.209732
0.262895
0.314983
0.36572
0.409499
0.442896
0.468454
0.488614
0.504797
0.51795
0.52876
0.537744
0.545286
0.547659
-0.103535
-0.0650326
-0.0174115
0.0340717
0.0882335
0.144116
0.200548
0.256304
0.310328
0.362153
0.406269
0.439689
0.465197
0.485265
0.501322
0.514323
0.524949
0.533744
0.541003
0.543361
-0.121764
-0.0824399
-0.0333365
0.0200356
0.0764264
0.134711
0.193469
0.251129
0.306279
0.358257
0.401865
0.434799
0.46
0.47988
0.495792
0.508644
0.519142
0.527772
0.534788
0.537145
-0.13676
-0.0966362
-0.0461331
0.00893609
0.067274
0.127587
0.18822
0.24724
0.302822
0.354078
0.396369
0.428365
0.453134
0.472849
0.48869
0.501485
0.511902
0.520445
0.527301
0.529676
-0.14939
-0.108432
-0.0566621
1.80878e-05
0.0601361
0.122275
0.184512
0.244511
0.299965
0.349646
0.389774
0.420403
0.444702
0.464409
0.480378
0.493284
0.503745
0.512271
0.519011
0.521397
-0.160527
-0.118565
-0.0655085
-0.00725337
0.0545624
0.118424
0.182122
0.242866
0.297727
0.345012
0.38201
0.410799
0.434676
0.454692
0.471143
0.484448
0.49515
0.503783
0.5105
0.512934
-0.170439
-0.127445
-0.0731591
-0.0133563
0.0501611
0.115741
0.180868
0.242249
0.296182
0.340247
0.372967
0.399286
0.422867
0.443721
0.461248
0.475428
0.486706
0.49565
0.502446
0.504957
-0.179682
-0.13577
-0.0799968
-0.0186385
0.0466249
0.113958
0.180574
0.242613
0.295427
0.335462
0.362507
0.385458
0.40888
0.431382
0.450907
0.466722
0.47909
0.488645
0.495719
0.498372
-0.188433
-0.143554
-0.0863437
-0.0233809
0.043675
0.112852
0.181087
0.24392
0.295579
0.33086
0.350504
0.368748
0.392079
0.417375
0.440295
0.458904
0.473183
0.483822
0.4914
0.494236
-0.197111
-0.151063
-0.0924351
-0.0278272
0.0410827
0.112208
0.182227
0.246101
0.296754
0.326706
0.336906
0.348416
0.371466
0.401131
0.429527
0.452583
0.47009
0.48246
0.49089
0.493996
-0.205871
-0.158522
-0.0984646
-0.0321666
0.038646
0.111835
0.183836
0.249066
0.299054
0.32335
0.321781
0.323622
0.345633
0.381734
0.418701
0.448919
0.47098
0.486162
0.495956
0.499482
-0.21492
-0.166104
-0.104577
-0.0365602
0.0362098
0.111555
0.185753
0.252697
0.302533
0.321173
0.305375
0.293436
0.312778
0.35777
0.407636
0.448298
0.477525
0.496769
0.508767
0.512981
-0.224121
-0.173896
-0.110854
-0.0411124
0.0336371
0.111204
0.187787
0.256853
0.307196
0.320604
0.288181
0.256923
0.270264
0.327248
0.395662
0.451712
0.491584
0.51703
0.531771
0.536639
-0.233512
-0.181939
-0.117356
-0.0458861
0.0308336
0.11065
0.18977
0.261364
0.312992
0.322031
0.270986
0.212346
0.215169
0.286646
0.380241
0.459914
0.515483
0.549397
0.567242
0.571615
-0.243286
-0.190211
-0.124092
-0.0509167
0.0277422
0.109807
0.191547
0.266003
0.319784
0.325781
0.254827
0.159731
0.14174
0.230586
0.361561
0.474973
0.552439
0.596909
0.616465
0.618606
-0.253216
-0.19871
-0.131016
-0.0561841
0.0243197
0.108602
0.19302
0.270587
0.327344
0.33206
0.240928
0.0987657
0.0428819
0.150469
0.336275
0.50004
0.607371
0.66518
0.682489
0.671742
-0.26354
-0.207413
-0.138072
-0.0616917
0.0205409
0.106997
0.194098
0.275022
0.335533
0.34104
0.23045
0.028007
-0.0961593
0.0289459
0.299177
0.530334
0.672105
0.74749
0.76969
0.751261
-0.274124
-0.216217
-0.145212
-0.067529
0.0162853
0.104884
0.194671
0.279221
0.344401
0.353286
0.224988
-0.0572194
-0.31387
-0.181736
0.235183
0.554412
0.730642
0.786841
0.784544
0.729952
-0.284584
-0.224704
-0.152211
-0.0736242
0.0116796
0.10235
0.194643
0.283012
0.353547
0.368559
0.22809
-0.15586
-0.675294
-0.625244
0.0504064
0.517209
0.72301
0.731682
0.61077
0.524424
-0.294261
-0.232045
-0.15852
-0.0793964
0.00733299
0.0998076
0.194194
0.286415
0.362729
0.386604
0.242383
-0.265059
-1.20493
-1.32636
-0.322595
0.313193
0.496334
0.467605
0.349222
0.27276
-0.367142
-0.236179
-0.16531
-0.0856001
0.00216926
0.0961802
0.193393
0.289218
0.372059
0.40829
0.274664
-0.321237
-1.67936
-2.06793
-0.8776
-0.17493
0.0133732
0.0615318
-0.00118173
-0.0360727
-0.261642
-0.241767
-0.176286
-0.0955375
-0.00624904
0.0901543
0.19024
0.291026
0.382592
0.436433
0.337737
-0.309323
-1.98883
-2.35715
-1.37961
-0.898293
-0.646589
-0.535251
-0.541597
-0.386635
-0.304413
-0.254572
-0.186093
-0.104773
-0.0141959
0.0837266
0.186477
0.290659
0.388682
0.4573
0.395316
-0.173704
-1.56832
-1.91872
-1.42175
-1.10561
-0.978036
-0.908468
-0.933899
-0.746061
-0.329626
-0.272776
-0.199682
-0.116484
-0.0242572
0.0754786
0.18067
0.288109
0.391629
0.472733
0.446043
0.0182775
-0.978006
-1.33149
-1.21457
-1.17713
-1.2115
-1.24582
-1.34122
-1.16315
-0.354691
-0.291975
-0.214775
-0.128996
-0.034793
0.0668229
0.174214
0.284457
0.39236
0.48442
0.491379
0.210162
-0.446229
-0.816492
-0.99104
-1.18075
-1.39762
-1.58604
-1.80081
-1.70566
-0.378244
-0.31163
-0.231114
-0.14273
-0.0463867
0.057185
0.166556
0.279126
0.391262
0.492195
0.525179
0.360276
-0.0674718
-0.449941
-0.798611
-1.18108
-1.55973
-1.87341
-2.27673
-2.5928
-0.40111
-0.332189
-0.249013
-0.15815
-0.0595582
0.0459832
0.157204
0.272256
0.387397
0.493157
0.545847
0.456769
0.159072
-0.231154
-0.666506
-1.16593
-1.69817
-2.10199
-2.27241
-2.6022
-0.424598
-0.354062
-0.268718
-0.175518
-0.0747537
0.0327195
0.145895
0.262768
0.380018
0.490509
0.556185
0.511139
0.291612
-0.0808676
-0.545169
-1.11931
-1.7774
-2.21704
-2.20694
-2.25562
-0.449121
-0.37748
-0.290309
-0.194929
-0.0921564
0.0172743
0.132227
0.250936
0.370191
0.48245
0.554158
0.533739
0.362482
0.0262301
-0.429959
-1.04392
-1.82917
-2.47568
-2.42549
-2.37496
-0.475564
-0.402706
-0.313866
-0.216483
-0.111731
-0.000357338
0.11631
0.236161
0.356314
0.47016
0.545668
0.540996
0.407228
0.132204
-0.279541
-0.895666
-1.69515
-2.46325
-2.50883
-2.35268
-0.504296
-0.430142
-0.339556
-0.240251
-0.133626
-0.0205473
0.0975971
0.218956
0.340789
0.455555
0.533291
0.540987
0.445202
0.24529
-0.0615513
-0.529922
-1.08182
-1.50162
-1.56337
-1.45835
-0.535322
-0.459787
-0.367501
-0.266356
-0.157758
-0.0426781
0.0772299
0.199835
0.32237
0.438173
0.520895
0.54412
0.492838
0.371625
0.202169
-0.0161748
-0.216812
-0.320213
-0.327635
-0.300514
-0.568423
-0.491684
-0.397563
-0.294402
-0.18381
-0.0670063
0.0543505
0.178356
0.301926
0.420205
0.510135
0.552413
0.54436
0.498994
0.44331
0.387287
0.361608
0.378615
0.416129
0.430858
-0.603928
-0.525872
-0.429843
-0.324681
-0.212042
-0.093199
0.0300041
0.155462
0.280293
0.402337
0.500577
0.561442
0.589835
0.597823
0.60515
0.622195
0.65846
0.708768
0.74911
0.760125
-0.641619
-0.562009
-0.463704
-0.356265
-0.241386
-0.120554
0.00436532
0.131446
0.25873
0.385305
0.492604
0.569637
0.623992
0.666147
0.707302
0.752546
0.8032
0.852916
0.887249
0.895919
-0.680917
-0.599457
-0.498813
-0.388938
-0.271723
-0.148808
-0.0217818
0.10757
0.238311
0.369845
0.486302
0.576564
0.647197
0.707125
0.761688
0.813217
0.861703
0.90411
0.933584
0.941781
-0.7206
-0.637473
-0.534159
-0.421652
-0.301962
-0.176756
-0.0472422
0.0848659
0.219275
0.356003
0.479975
0.580115
0.661108
0.729598
0.788571
0.84002
0.884422
0.921289
0.947793
0.955821
-0.759292
-0.673878
-0.568224
-0.453012
-0.330796
-0.203096
-0.0709557
0.0640571
0.201895
0.343185
0.474751
0.581455
0.668235
0.740207
0.800502
0.850974
0.892985
0.9273
0.95138
0.959566
-0.794004
-0.706856
-0.598991
-0.481157
-0.356502
-0.226405
-0.0919465
0.0456075
0.186369
0.332088
0.468056
0.579404
0.66909
0.742493
0.80284
0.852451
0.893039
0.926106
0.949256
0.957373
-0.821221
-0.733443
-0.623667
-0.503728
-0.377196
-0.245347
-0.109345
0.0298855
0.172689
0.321073
0.459522
0.573316
0.663921
0.737552
0.797494
0.846277
0.885931
0.917987
0.940414
0.948541
-0.83651
-0.750227
-0.639288
-0.518344
-0.39094
-0.258506
-0.12226
0.017222
0.160516
0.309649
0.448665
0.562785
0.652993
0.725942
0.785067
0.833029
0.871954
0.903379
0.925443
0.933586
-0.837507
-0.752682
-0.642223
-0.521942
-0.395515
-0.264433
-0.129805
0.00802937
0.149708
0.297082
0.434457
0.546801
0.635551
0.707089
0.765074
0.81216
0.850443
0.88137
0.903165
0.911431
-0.816982
-0.736131
-0.628526
-0.511042
-0.388047
-0.261031
-0.130733
0.00272653
0.139987
0.282674
0.415956
0.524269
0.610137
0.679464
0.735872
0.781878
0.81945
0.849888
0.871635
0.880163
-0.768301
-0.693595
-0.592583
-0.4813
-0.36555
-0.246202
-0.123736
0.00189735
0.131423
0.266476
0.392167
0.493994
0.574991
0.640716
0.694616
0.738949
0.775427
0.80529
0.827363
0.836027
-0.682982
-0.617875
-0.527608
-0.428627
-0.325225
-0.218348
-0.107946
0.00608856
0.124329
0.247959
0.362636
0.455029
0.528321
0.587874
0.637115
0.678045
0.711869
0.739627
0.761802
0.770488
-0.554729
-0.505548
-0.431347
-0.350606
-0.265957
-0.176712
-0.082897
0.0156039
0.118978
0.227638
0.327955
0.407642
0.469717
0.519179
0.559429
0.592872
0.620356
0.641844
0.657404
0.663389
-0.359756
-0.337497
-0.296427
-0.246378
-0.188388
-0.122953
-0.0501593
0.0298107
0.116701
0.210136
0.297213
0.366026
0.418647
0.459245
0.49047
0.514207
0.532757
0.548135
0.560304
0.564404
-0.178867
-0.173191
-0.158715
-0.136231
-0.104793
-0.0636341
-0.0125075
0.0483882
0.118444
0.196633
0.270708
0.329044
0.372735
0.405196
0.429168
0.446679
0.458767
0.466133
0.470031
0.471217
-0.0670637
-0.0661983
-0.0614615
-0.0514227
-0.0349012
-0.0102242
0.0239524
0.0683204
0.122744
0.186216
0.247789
0.296292
0.331964
0.357616
0.375363
0.386959
0.39412
0.398302
0.400262
0.400571
-0.00456707
-0.00479878
-0.00324177
0.00200016
0.0122253
0.0286691
0.0526125
0.0852068
0.127032
0.177595
0.227629
0.267106
0.295743
0.315819
0.329416
0.338273
0.343642
0.346456
0.347539
0.347725
0.0332217
0.0333795
0.0346281
0.0380239
0.0446676
0.0558954
0.0730768
0.0973927
0.129591
0.16955
0.209757
0.241588
0.264549
0.280501
0.29113
0.297847
0.301813
0.303937
0.304864
0.305062
0.0584006
0.058635
0.0596732
0.0622196
0.0670584
0.075178
0.0877496
0.105964
0.130709
0.162098
0.194118
0.219566
0.237848
0.250425
0.258721
0.263951
0.267051
0.268714
0.269444
0.269601
0.0749768
0.07522
0.0760878
0.078039
0.0816592
0.087724
0.0971732
0.111017
0.130102
0.15468
0.180037
0.200268
0.21478
0.224735
0.231285
0.235399
0.237833
0.239144
0.239725
0.23985
0.085675
0.0858924
0.0866009
0.0881229
0.0908911
0.0954944
0.102678
0.113278
0.128036
0.147259
0.167265
0.183282
0.194773
0.202641
0.207805
0.211044
0.21296
0.213994
0.214454
0.214552
0.0920063
0.0921846
0.0927461
0.0939291
0.0960618
0.099597
0.105112
0.113276
0.124723
0.139748
0.155486
0.168132
0.177208
0.183419
0.187494
0.190049
0.191561
0.192375
0.192735
0.19281
0.0950275
0.0951705
0.095612
0.096532
0.0981821
0.100909
0.105166
0.111484
0.120379
0.132122
0.144488
0.154448
0.161604
0.166502
0.169712
0.171724
0.172912
0.173552
0.173835
0.173893
0.0955134
0.0956267
0.0959726
0.0966888
0.0979689
0.100083
0.103381
0.108285
0.115209
0.124385
0.134086
0.141918
0.147551
0.151408
0.153937
0.155519
0.156451
0.156953
0.157173
0.157218
0.0940491
0.0941383
0.0944083
0.0949655
0.0959602
0.0976019
0.100165
0.103978
0.109374
0.116548
0.124153
0.130306
0.134734
0.137764
0.139748
0.140991
0.141724
0.142118
0.14229
0.142325
0.0910746
0.0911445
0.0913554
0.0917898
0.0925636
0.0938399
0.0958337
0.0988045
0.103013
0.108619
0.114575
0.119399
0.122874
0.125255
0.126817
0.127794
0.128368
0.128675
0.128807
0.128834
0.0869316
0.0869862
0.0871504
0.0874884
0.0880911
0.0890852
0.0906381
0.0929519
0.0962338
0.100613
0.105275
0.109059
0.111786
0.113652
0.114874
0.115638
0.116089
0.11633
0.116434
0.116455
0.0818778
0.0819205
0.0820486
0.0823117
0.082781
0.0835551
0.0847646
0.0865683
0.0891293
0.092551
0.0961962
0.0991561
0.101291
0.102753
0.103709
0.104306
0.104657
0.104845
0.104925
0.104941
0.0761184
0.0761512
0.0762505
0.0764552
0.0768205
0.0774233
0.0783646
0.0797694
0.0817657
0.0844339
0.0872806
0.0895927
0.0912592
0.0924011
0.0931506
0.0936201
0.0938952
0.0940413
0.0941037
0.0941157
0.0698068
0.0698326
0.0699102
0.0700695
0.0703534
0.0708218
0.0715546
0.0726486
0.0742027
0.0762809
0.0785014
0.0803058
0.081606
0.0824975
0.0830809
0.0834446
0.083658
0.0837711
0.0838193
0.0838285
0.0630699
0.0630896
0.0631493
0.0632727
0.0634935
0.0638573
0.0644248
0.0652717
0.066478
0.0680935
0.0698181
0.0712208
0.0722348
0.0729297
0.0733824
0.0736632
0.073827
0.0739135
0.0739495
0.0739565
0.0560006
0.0560158
0.0560617
0.0561563
0.0563257
0.0566063
0.0570463
0.0577026
0.0586357
0.0598858
0.0612204
0.0623051
0.0630861
0.0636191
0.0639689
0.0641882
0.0643163
0.0643838
0.0644128
0.0644184
0.0486747
0.0486863
0.0487215
0.0487942
0.048924
0.0491383
0.0494749
0.0499786
0.0506954
0.0516549
0.0526787
0.0535101
0.0541085
0.0545192
0.0547886
0.0549554
0.055052
0.0551028
0.0551238
0.0551278
0.0411534
0.0411617
0.0411874
0.041242
0.0413406
0.0415029
0.041757
0.0421378
0.0426796
0.0434059
0.0441833
0.0448167
0.0452732
0.0455848
0.045786
0.0459097
0.0459819
0.0460205
0.046036
0.0460391
0.0334813
0.0334879
0.0335079
0.0335486
0.03362
0.0337408
0.0339311
0.0342144
0.0346167
0.0351555
0.0357304
0.0361971
0.0365326
0.0367591
0.0369056
0.0369977
0.0370516
0.0370809
0.0370943
0.0370967
0.0256988
0.0257038
0.0257179
0.0257482
0.0258013
0.0258886
0.0260243
0.0262257
0.0265122
0.0268952
0.0273035
0.0276343
0.0278725
0.0280339
0.0281384
0.028202
0.0282378
0.0282553
0.0282601
0.02826
0.0178372
0.0178414
0.0178525
0.0178731
0.017909
0.0179676
0.0180558
0.018187
0.0183733
0.0186233
0.0188914
0.0191087
0.0192652
0.0193729
0.0194422
0.0194834
0.019505
0.019513
0.0195138
0.0195134
0.00992539
0.00992821
0.00993509
0.00994754
0.00996753
0.00999771
0.0100454
0.0101155
0.0102151
0.0103482
0.010491
0.0106062
0.0106873
0.0107431
0.0107796
0.010799
0.0108059
0.0108054
0.0108032
0.0108064
0.00198611
0.0019836
0.00198108
0.00198021
0.00198368
0.00199017
0.00199872
0.00201097
0.00202845
0.00205291
0.00208224
0.00210914
0.00213469
0.00214648
0.00215411
0.00215945
0.00216586
0.00217265
0.00217722
0.00217854
-1.34614
-0.995623
-0.631879
-0.320856
-0.044372
0.201715
0.411559
0.584322
0.68728
0.654847
-0.666805
-0.442555
-0.209161
-0.00018385
0.187238
0.348952
0.480449
0.574982
0.62206
0.620705
-0.2239
-0.0785879
0.0721295
0.20884
0.330308
0.432961
0.512535
0.566979
0.597418
0.605316
0.064037
0.159394
0.257442
0.347144
0.424685
0.48914
0.539291
0.574519
0.596454
0.606082
0.257895
0.321097
0.385516
0.443229
0.49304
0.534891
0.568144
0.593061
0.609251
0.616385
0.395135
0.435234
0.476164
0.515502
0.550574
0.580807
0.605092
0.621245
0.630925
0.635618
0.495015
0.522154
0.553721
0.584676
0.612196
0.634549
0.651403
0.661541
0.667253
0.672616
0.568546
0.592541
0.621109
0.646387
0.669555
0.690382
0.707587
0.720402
0.725783
0.73438
0.631238
0.659727
0.691428
0.722609
0.751807
0.776453
0.794761
0.806923
0.810525
0.823185
0.71284
0.756636
0.799634
0.836227
0.864991
0.88701
0.903998
0.915614
0.922289
0.937366
0.853085
0.89518
0.932858
0.962909
0.987997
1.00971
1.02769
1.04107
1.05144
1.06867
1.0251
1.05771
1.08478
1.10826
1.12836
1.14667
1.16368
1.17974
1.19509
1.21269
1.21398
1.23253
1.24814
1.26465
1.28104
1.29559
1.3085
1.3222
1.3389
1.35827
1.39633
1.40742
1.42001
1.43088
1.43993
1.44931
1.45995
1.47142
1.48133
1.49654
1.6068
1.60871
1.5938
1.57891
1.57265
1.57828
1.59692
1.62719
1.65911
1.68975
1.91313
1.77618
1.69966
1.65713
1.6397
1.64389
1.67101
1.72714
1.8308
2.04611
0.554134
0.551386
0.546772
0.538517
0.526983
0.515853
0.506585
0.499378
0.494167
0.490946
0.490405
0.492717
0.497184
0.503562
0.511878
0.522237
0.533893
0.544448
0.550136
0.554088
0.472559
0.478436
0.486836
0.492904
0.496679
0.497451
0.495735
0.492755
0.489726
0.487615
0.487254
0.488913
0.491832
0.495155
0.49781
0.498491
0.496258
0.491191
0.484182
0.475802
0.473159
0.474978
0.478933
0.482328
0.484486
0.48558
0.48572
0.485127
0.484053
0.483125
0.483027
0.483985
0.485344
0.486441
0.486818
0.486329
0.484753
0.482082
0.478217
0.475019
0.475067
0.475319
0.476294
0.477675
0.478981
0.48016
0.480931
0.481034
0.48078
0.480481
0.480553
0.481156
0.481816
0.482115
0.481837
0.480897
0.479758
0.478426
0.477193
0.476578
0.471363
0.471453
0.471772
0.472237
0.472728
0.473229
0.473685
0.474022
0.474151
0.474188
0.474394
0.474789
0.475094
0.475188
0.474977
0.474622
0.474208
0.473786
0.473412
0.473233
0.467545
0.467593
0.467759
0.468038
0.468394
0.468796
0.469194
0.469544
0.46983
0.470099
0.470431
0.470795
0.471012
0.471009
0.470862
0.4706
0.470301
0.47002
0.469803
0.469698
0.462887
0.462914
0.462987
0.463118
0.463306
0.463553
0.463851
0.464187
0.464545
0.464936
0.465366
0.465732
0.465956
0.46604
0.466015
0.465929
0.465825
0.465726
0.465647
0.465606
0.45795
0.45797
0.458036
0.458142
0.458292
0.458497
0.458766
0.459103
0.459512
0.460001
0.460546
0.461021
0.461332
0.461493
0.461555
0.46156
0.461535
0.461499
0.461464
0.461443
0.452886
0.452894
0.452942
0.453027
0.453157
0.453346
0.453612
0.453975
0.45445
0.455052
0.45574
0.456343
0.456764
0.457027
0.457179
0.457257
0.457291
0.457299
0.457295
0.457287
0.447647
0.447654
0.447692
0.447768
0.447893
0.448088
0.448378
0.448791
0.449359
0.450101
0.450971
0.451753
0.452305
0.452685
0.452924
0.453067
0.453148
0.453188
0.453203
0.453204
0.442201
0.442203
0.442243
0.442325
0.442464
0.442685
0.443022
0.443516
0.44421
0.445136
0.446237
0.447237
0.447974
0.448475
0.448806
0.449014
0.449138
0.449207
0.44924
0.449247
0.436529
0.436529
0.436573
0.436666
0.436829
0.437094
0.437504
0.438112
0.438975
0.440141
0.441538
0.442821
0.443767
0.444424
0.444863
0.445143
0.445314
0.445411
0.445459
0.445471
0.430567
0.430566
0.430618
0.430731
0.430932
0.43126
0.431772
0.432535
0.433624
0.435099
0.436875
0.43851
0.43972
0.440567
0.441135
0.441501
0.441725
0.441855
0.44192
0.441937
0.424248
0.424246
0.424311
0.424453
0.424706
0.425121
0.425768
0.426735
0.428118
0.429993
0.432252
0.434333
0.435874
0.436955
0.437681
0.438149
0.438438
0.438606
0.438691
0.438714
0.417474
0.417471
0.417554
0.417735
0.418057
0.418587
0.419415
0.42065
0.422413
0.424804
0.427678
0.430322
0.432278
0.433651
0.434573
0.435169
0.435537
0.435751
0.43586
0.43589
0.410114
0.410111
0.410217
0.410452
0.410867
0.41155
0.412613
0.414198
0.416457
0.419509
0.423166
0.426521
0.428999
0.430735
0.431902
0.432656
0.433121
0.433391
0.433529
0.433567
0.401995
0.401991
0.40213
0.402435
0.402976
0.403861
0.405237
0.407281
0.410182
0.414083
0.418735
0.422984
0.426114
0.428304
0.429774
0.430724
0.43131
0.431651
0.431825
0.431873
0.392883
0.392879
0.393064
0.393466
0.394174
0.39533
0.397121
0.39977
0.403508
0.408502
0.414415
0.419786
0.42373
0.426485
0.428333
0.429527
0.430263
0.43069
0.430909
0.430968
0.38246
0.382458
0.382705
0.383241
0.38418
0.385706
0.388056
0.391508
0.396341
0.402738
0.410244
0.417014
0.421968
0.425426
0.427745
0.429243
0.430167
0.430702
0.430976
0.43105
0.370284
0.370284
0.370624
0.371351
0.372615
0.374655
0.37777
0.382302
0.388575
0.396774
0.406276
0.414777
0.420976
0.4253
0.428205
0.430083
0.431243
0.431917
0.432261
0.432353
0.355717
0.355725
0.356206
0.357221
0.358958
0.361731
0.36592
0.371927
0.380105
0.390609
0.402588
0.413202
0.420922
0.426317
0.429953
0.432311
0.433773
0.434624
0.43506
0.435177
0.337798
0.337827
0.338545
0.340013
0.342475
0.346343
0.352082
0.360141
0.37085
0.384274
0.399278
0.412428
0.421981
0.428692
0.433248
0.436228
0.438087
0.439177
0.43974
0.439893
0.314982
0.31507
0.316235
0.318482
0.322125
0.327711
0.335771
0.346724
0.360786
0.377856
0.396465
0.412581
0.424303
0.43262
0.438351
0.442159
0.444574
0.446016
0.44678
0.446995
0.284642
0.284927
0.287041
0.290738
0.296477
0.304934
0.316567
0.331602
0.35002
0.371511
0.394276
0.413744
0.42796
0.438212
0.445456
0.45042
0.453679
0.455703
0.456835
0.457185
0.241977
0.242871
0.247335
0.254153
0.263992
0.277417
0.294491
0.315087
0.338926
0.365528
0.392858
0.415945
0.432908
0.445406
0.454557
0.461147
0.46576
0.468864
0.470786
0.471414
0.178368
0.181133
0.192025
0.20623
0.224185
0.245728
0.270457
0.29807
0.328184
0.360311
0.392335
0.41908
0.438877
0.453812
0.465197
0.473903
0.480543
0.485609
0.489217
0.490048
0.0984598
0.105865
0.127268
0.153803
0.182498
0.213334
0.246258
0.281126
0.317634
0.355453
0.392497
0.423455
0.446812
0.465034
0.479592
0.491427
0.501182
0.509405
0.515213
0.517595
0.0203758
0.036351
0.0690133
0.105601
0.143807
0.183368
0.224101
0.265809
0.30827
0.35129
0.392867
0.427517
0.453824
0.474617
0.491515
0.505491
0.517121
0.526824
0.534279
0.53838
-0.0289844
-0.0122959
0.0246301
0.0672229
0.111978
0.158077
0.205027
0.252396
0.299794
0.346965
0.391878
0.428978
0.457045
0.479125
0.496905
0.511393
0.523246
0.53296
0.540299
0.544243
-0.0642275
-0.0471158
-0.00730828
0.0387655
0.0874688
0.137965
0.189455
0.241158
0.292367
0.342646
0.389828
0.428368
0.45728
0.479845
0.497863
0.512431
0.524257
0.533867
0.541214
0.545248
-0.0899691
-0.0729582
-0.0315635
0.0170074
0.0687171
0.122507
0.177407
0.232351
0.286314
0.338597
0.386931
0.425983
0.455103
0.47773
0.495713
0.510181
0.52188
0.531345
0.53866
0.542714
-0.110645
-0.0933215
-0.0504425
3.87277e-05
0.0540411
0.110449
0.16804
0.225452
0.281318
0.334669
0.383196
0.42203
0.450923
0.473382
0.491221
0.505546
0.517108
0.526442
0.533714
0.537788
-0.127432
-0.109764
-0.0655045
-0.0133457
0.0426123
0.101161
0.160928
0.220226
0.277327
0.330913
0.378728
0.41667
0.44503
0.46722
0.48491
0.499134
0.510611
0.519866
0.527082
0.531183
-0.141433
-0.123357
-0.0778219
-0.024131
0.033587
0.0940564
0.155676
0.216469
0.274265
0.327347
0.373547
0.409958
0.437548
0.45949
0.477157
0.491406
0.502901
0.51215
0.519368
0.52354
-0.153439
-0.134951
-0.0881453
-0.032984
0.0264154
0.0886463
0.151955
0.213996
0.272096
0.324007
0.36767
0.401832
0.428456
0.450301
0.468209
0.482735
0.494425
0.503781
0.511054
0.515284
-0.164139
-0.145137
-0.0970535
-0.0403992
0.0206135
0.0845792
0.149505
0.212681
0.270823
0.320976
0.361077
0.392137
0.417597
0.439636
0.45825
0.47347
0.485673
0.495339
0.502789
0.507164
-0.1739
-0.154243
-0.105035
-0.0468374
0.0158194
0.0815273
0.148093
0.212391
0.270471
0.318363
0.353786
0.380613
0.404627
0.427316
0.447378
0.463986
0.477208
0.487503
0.495282
0.499815
-0.183057
-0.162851
-0.112307
-0.0526299
0.0117223
0.0792344
0.147511
0.213042
0.271056
0.316347
0.345841
0.366916
0.388991
0.412973
0.4356
0.454657
0.469693
0.481128
0.489518
0.494367
-0.191913
-0.171134
-0.119236
-0.058037
0.00805167
0.0774518
0.147581
0.214508
0.272631
0.315098
0.33739
0.350665
0.369896
0.395944
0.422774
0.44589
0.463968
0.47729
0.486702
0.492009
-0.200764
-0.179316
-0.12603
-0.0632691
0.00459967
0.0759609
0.148091
0.216661
0.275179
0.314874
0.328666
0.331458
0.346243
0.375177
0.408603
0.438143
0.460968
0.477316
0.488385
0.494377
-0.209668
-0.187499
-0.13285
-0.0684987
0.00119141
0.074586
0.148858
0.219362
0.278697
0.315897
0.320072
0.308958
0.316558
0.349207
0.392463
0.431895
0.461923
0.482845
0.496465
0.503639
-0.2189
-0.195887
-0.139819
-0.0738485
-0.00231175
0.0731682
0.149708
0.222428
0.283106
0.318379
0.312143
0.282935
0.27883
0.315742
0.373058
0.427287
0.468087
0.495829
0.513111
0.521349
-0.228211
-0.204529
-0.147003
-0.0793932
-0.00600458
0.0715893
0.150489
0.225668
0.28826
0.322459
0.305544
0.253291
0.231424
0.272462
0.348749
0.424075
0.48092
0.518374
0.540655
0.550834
-0.237839
-0.21341
-0.154417
-0.0851791
-0.00996052
0.0697343
0.151069
0.228936
0.293981
0.328202
0.300989
0.220494
0.172221
0.213626
0.316336
0.422404
0.503326
0.554556
0.582502
0.593521
-0.247721
-0.222478
-0.162049
-0.0911937
-0.0141879
0.0675533
0.151324
0.232069
0.300089
0.335522
0.299234
0.18555
0.0967151
0.132243
0.272256
0.422423
0.536779
0.607187
0.641006
0.648005
-0.257931
-0.231837
-0.16985
-0.0973875
-0.0187124
0.0650022
0.151202
0.234894
0.306345
0.34428
0.300926
0.14974
0.000921043
0.0167355
0.206441
0.426776
0.58715
0.678614
0.720342
0.712857
-0.268423
-0.24149
-0.177755
-0.103767
-0.0235963
0.0620157
0.150635
0.237386
0.312773
0.354719
0.307025
0.112447
-0.130679
-0.166145
0.10373
0.423419
0.636773
0.747901
0.797255
0.802263
-0.279073
-0.25137
-0.185533
-0.110297
-0.0288749
0.0585383
0.149546
0.239352
0.31909
0.366563
0.318591
0.0765978
-0.318021
-0.492941
-0.118744
0.388372
0.665076
0.782038
0.751009
0.653131
-0.289204
-0.260879
-0.192859
-0.117069
-0.0345866
0.0544173
0.147784
0.240643
0.32497
0.379278
0.336526
0.0489329
-0.589613
-1.0912
-0.563356
0.210189
0.582165
0.649965
0.565566
0.43142
-0.302067
-0.268538
-0.199151
-0.124117
-0.0405655
0.0499325
0.14499
0.241185
0.330229
0.392174
0.360106
0.0369672
-0.911606
-1.91117