/*--------------------------------*- C++ -*----------------------------------*\
  =========                 |
  \\      /  F ield         | OpenFOAM: The Open Source CFD Toolbox
   \\    /   O peration     | Website:  https://openfoam.org
    \\  /    A nd           | Version:  9
     \\/     M anipulation  |
\*---------------------------------------------------------------------------*/
FoamFile
{
    format      ascii;
    class       surfaceScalarField;
    location    "4";
    object      phi;
}
// * * * * * * * * * * * * * * * * * * * * * * * * * * * * * * * * * * * * * //

dimensions      [0 3 -1 0 0 0 0];

internalField   nonuniform List<scalar> 
17370
(
-0.0911805
0.0938525
0.286339
-0.0752419
0.0566973
0.36532
-0.0401593
0.0291526
0.427175
-0.0205069
0.0149749
0.504784
-0.010676
0.00787251
0.602206
-0.00566457
0.00423364
0.720488
-0.00308928
0.00238292
0.863613
-0.00179653
0.00135228
1.03589
-0.0009135
0.000558905
1.24286
-0.000228333
-1.96976e-05
1.49144
0.00028215
-0.000635476
1.49154
0.000991976
-0.00142444
1.24312
0.00184624
-0.00241052
1.0362
0.00307698
-0.0041795
0.864009
0.00559956
-0.00782278
0.721281
0.0106446
-0.0149609
0.603531
0.020504
-0.0291571
0.508092
0.0401671
-0.0567046
0.432706
0.0752462
-0.093854
0.365383
0.0911846
0.197826
-0.128508
0.0923272
0.0361806
-0.365351
0.355343
-0.0659939
0.0760017
-0.447722
0.454062
-0.0746511
0.0683101
-0.521209
0.529129
-0.0610405
0.0531206
-0.612482
0.619972
-0.0458106
0.0383204
-0.726639
0.732502
-0.0320831
0.0262198
-0.867088
0.871319
-0.0215836
0.0173526
-1.03798
1.04106
-0.0140524
0.0109796
-1.24418
1.24662
-0.00847649
0.00603715
-1.49247
1.49466
-0.00393329
0.00174498
-1.49238
1.49433
0.000193943
-0.00214867
-1.24371
1.24577
0.00431838
-0.00638611
-1.0371
1.03961
0.00879634
-0.0112998
-0.865722
0.868999
0.0143212
-0.0175982
-0.72418
0.728795
0.0217929
-0.0264079
-0.608546
0.614752
0.0322786
-0.0384852
-0.514863
0.522162
0.0459572
-0.0532562
-0.440591
0.447853
0.0611621
-0.0684242
-0.375826
0.377154
0.0747448
-0.0760723
-0.257275
0.227433
0.0660407
-0.036198
-0.0765484
0.0706997
0.00584869
-0.0307438
0.0363029
-0.374011
0.368452
-0.0384341
0.038661
-0.450572
0.450346
-0.0376084
0.0362112
-0.525423
0.52682
-0.034238
0.0320816
-0.618967
0.621124
-0.029289
0.0264162
-0.73317
0.736043
-0.0229796
0.0197185
-0.872954
0.876215
-0.0161174
0.0128536
-1.04282
1.04609
-0.00932217
0.00624763
-1.24845
1.25153
-0.0028484
-0.00042757
-1.49681
1.50009
0.00368557
-0.00707187
-1.49732
1.5007
0.0101213
-0.0135752
-1.24967
1.25312
0.0167601
-0.0203254
-1.04479
1.04835
0.0235369
-0.0268705
-0.875854
0.879188
0.0296694
-0.0324214
-0.737241
0.739993
0.0345132
-0.0364315
-0.623932
0.62585
0.0377706
-0.0387747
-0.532216
0.53322
0.0385156
-0.0363803
-0.454854
0.452719
0.0307998
-0.0186731
-0.342004
0.329877
0.00586184
-0.0764987
0.0706369
-0.0692593
0.0694354
-0.000176019
-0.00744563
0.0132576
-0.361788
0.355976
-0.0191648
0.0235576
-0.447235
0.442842
-0.0267667
0.0283796
-0.52671
0.525097
-0.028802
0.0281445
-0.622517
0.623175
-0.0266276
0.0247827
-0.738393
0.740238
-0.022326
0.0197831
-0.879071
0.881614
-0.0167097
0.0137332
-1.04924
1.05221
-0.0103227
0.00695468
-1.25489
1.25826
-0.00305284
-0.000762291
-1.50381
1.50763
0.00454012
-0.00834853
-1.50449
1.50829
0.0116436
-0.0150377
-1.25661
1.26001
0.0179831
-0.0210021
-1.05163
1.05465
0.0234558
-0.0257969
-0.881965
0.884306
0.0275463
-0.0289461
-0.74196
0.74336
0.0295285
-0.0290226
-0.626746
0.62624
0.027335
-0.0240537
-0.531738
0.528457
0.0195938
-0.0135958
-0.447589
0.441591
0.00768593
-0.00216123
-0.320955
0.31543
-0.000140778
-0.0691714
0.0693122
-0.0695458
0.0693559
0.000189919
-0.00311769
0.00594252
-0.351857
0.349032
-0.00939045
0.0123471
-0.438942
0.435985
-0.0150416
0.016907
-0.523004
0.521138
-0.0182839
0.0189549
-0.622779
0.622108
-0.0190403
0.0186716
-0.741255
0.741624
-0.0177297
0.0163903
-0.883667
0.885006
-0.0144529
0.0123094
-1.05489
1.05704
-0.00957034
0.00651899
-1.26159
1.26464
-0.00275452
-0.000933693
-1.51149
1.51518
0.0045907
-0.00824728
-1.51209
1.51574
0.0112225
-0.0139696
-1.26324
1.26599
0.0161498
-0.0180111
-1.05724
1.0591
0.0193032
-0.0202121
-0.886011
0.88692
0.0205091
-0.02021
-0.743629
0.743329
0.0193367
-0.0177571
-0.624681
0.623102
0.0157183
-0.0128461
-0.524996
0.522124
0.00973736
-0.00614374
-0.436659
0.433065
0.00322054
-0.00105938
-0.312157
0.309996
0.000207998
-0.0693961
0.0691881
-0.0691922
0.0691675
2.47313e-05
-0.00113051
0.00241215
-0.347087
0.345805
-0.00416299
0.00583254
-0.433753
0.432083
-0.00756815
0.00897787
-0.519497
0.518087
-0.0102606
0.01115
-0.621272
0.620383
-0.0117503
0.0118989
-0.74166
0.741511
-0.011613
0.0109598
-0.885933
0.886586
-0.00980911
0.00836685
-1.05879
1.06023
-0.00635613
0.00422997
-1.26725
1.26937
-0.0015326
-0.00121296
-1.51844
1.52119
0.00389771
-0.00650134
-1.51896
1.52156
0.00853269
-0.0106297
-1.26839
1.27049
0.0120407
-0.0129739
-1.06044
1.06137
0.0134029
-0.0134431
-0.88731
0.88735
0.0130966
-0.0123304
-0.742723
0.741957
0.0112997
-0.00987206
-0.621563
0.620136
0.00834172
-0.00648766
-0.519789
0.517935
0.00472263
-0.00287177
-0.430467
0.428616
0.00148343
-0.000495713
-0.308518
0.307531
8.96976e-05
-0.0689912
0.0689015
-0.0691689
0.0691352
3.37084e-05
-0.00055054
0.00109922
-0.344981
0.344432
-0.00189589
0.00270756
-0.430895
0.430084
-0.00361691
0.00441762
-0.516985
0.516184
-0.00522069
0.00584527
-0.619587
0.618963
-0.0063509
0.00655961
-0.741292
0.741083
-0.00650963
0.00619811
-0.887033
0.887345
-0.00553827
0.00462518
-1.06139
1.0623
-0.00329812
0.00193772
-1.27107
1.27243
-0.00021797
-0.00158202
-1.52343
1.52523
0.00336542
-0.00496391
-1.52359
1.52519
0.00613434
-0.00730446
-1.27215
1.27332
0.00801314
-0.00839351
-1.06198
1.06236
0.00843345
-0.00819885
-0.887198
0.886963
0.00775709
-0.00706941
-0.741187
0.7405
0.00629678
-0.00533986
-0.618934
0.617978
0.00440873
-0.00336881
-0.516536
0.515497
0.0024434
-0.00151518
-0.427319
0.426391
0.000826621
-0.000312667
-0.306844
0.30633
7.23817e-05
-0.068836
0.0687636
-0.0690872
0.0690544
3.28109e-05
-0.000378839
0.000658201
-0.344046
0.343767
-0.00101976
0.00138185
-0.42954
0.429178
-0.00179659
0.00217553
-0.515625
0.515246
-0.00257003
0.00288793
-0.618506
0.618188
-0.00315423
0.00327483
-0.740914
0.740793
-0.00325404
0.00307402
-0.887572
0.887752
-0.00267268
0.00210556
-1.06302
1.06358
-0.00126393
0.000367088
-1.27353
1.27443
0.000778503
-0.00196355
-1.52668
1.52787
0.00312559
-0.00417824
-1.52648
1.52754
0.00489045
-0.00529083
-1.27405
1.27445
0.00546635
-0.00558431
-1.06259
1.06271
0.00550967
-0.0052433
-0.886702
0.886436
0.00486819
-0.0043559
-0.739905
0.739393
0.00382623
-0.00320966
-0.617216
0.616599
0.00263671
-0.00201885
-0.514705
0.514088
0.00148175
-0.000947457
-0.425699
0.425164
0.00054276
-0.000222595
-0.305929
0.305609
5.71701e-05
-0.0686971
0.0686399
-0.0690433
0.0690491
-5.7451e-06
-0.000105912
0.000228459
-0.343571
0.343449
-0.000385304
0.00053741
-0.428938
0.428786
-0.000707758
0.000860323
-0.514998
0.514845
-0.00101472
0.0011324
-0.617982
0.617864
-0.00121859
0.00123714
-0.740724
0.740705
-0.00117317
0.00102034
-0.887909
0.888062
-0.000729666
0.00034115
-1.06404
1.06443
0.000224793
-0.000842276
-1.27517
1.27578
0.0016257
-0.00241153
-1.52883
1.52962
0.00314771
-0.00378458
-1.52837
1.52901
0.00416564
-0.00425049
-1.27465
1.27473
0.00421884
-0.00415813
-1.06273
1.06267
0.00399907
-0.0037217
-0.886165
0.885888
0.00340144
-0.00300306
-0.738946
0.738548
0.0026156
-0.00218284
-0.61609
0.615657
0.0017927
-0.00138109
-0.513592
0.51318
0.001028
-0.000676694
-0.424739
0.424388
0.000404287
-0.000177069
-0.305345
0.305117
4.94565e-05
-0.0685881
0.0685386
-0.0690665
0.069095
-2.84977e-05
7.70438e-05
-7.13347e-05
-0.34339
0.343384
4.84416e-05
-2.49297e-05
-0.428703
0.428679
2.41224e-06
1.13231e-05
-0.514767
0.514754
-1.38435e-05
-1.7767e-06
-0.617818
0.617833
4.7158e-05
-0.000124503
-0.740736
0.740813
0.000259337
-0.000438969
-0.888224
0.888403
0.000708172
-0.00102595
-1.06478
1.06509
0.00145497
-0.0019079
-1.27631
1.27676
0.0024566
-0.00297265
-1.53026
1.53077
0.00341708
-0.00375358
-1.52948
1.52981
0.00391265
-0.00388065
-1.27474
1.27471
0.003756
-0.00357724
-1.06255
1.06237
0.00335321
-0.00305662
-0.885602
0.885306
0.00275557
-0.00240803
-0.738182
0.737834
0.00208622
-0.00173882
-0.615277
0.614929
0.00143296
-0.00111506
-0.512825
0.512508
0.000844144
-0.000573104
-0.424086
0.423814
0.00035678
-0.000165849
-0.304914
0.304723
4.96779e-05
-0.0684897
0.06844
-0.0691312
0.0691745
-4.33525e-05
0.00020687
-0.000275789
-0.343416
0.343484
0.000349626
-0.000421489
-0.428708
0.42878
0.000508997
-0.000599723
-0.514796
0.514887
0.000713984
-0.000835185
-0.617905
0.618026
0.00099072
-0.00115807
-0.740936
0.741104
0.00137466
-0.00160687
-0.888607
0.888839
0.00190342
-0.00221237
-1.0654
1.06571
0.00258981
-0.00295718
-1.27716
1.27753
0.00336432
-0.00370598
-1.53119
1.53153
0.00395338
-0.00407594
-1.53004
1.53016
0.00406707
-0.00395583
-1.27465
1.27454
0.00376469
-0.00350387
-1.06214
1.06188
0.00322791
-0.00290052
-0.884995
0.884668
0.00259006
-0.0022483
-0.737494
0.737152
0.00194197
-0.00161904
-0.6146
0.614277
0.00133943
-0.00105169
-0.512211
0.511923
0.000807532
-0.000561812
-0.423561
0.423316
0.000360923
-0.000175289
-0.304537
0.304352
5.51545e-05
-0.0683882
0.0683331
-0.0692264
0.0692872
-6.08846e-05
0.000324037
-0.000461686
-0.34359
0.343728
0.000615399
-0.000765504
-0.428891
0.429041
0.000944778
-0.00112399
-0.515022
0.515201
0.00133909
-0.00155439
-0.618194
0.61841
0.00181244
-0.00207007
-0.741315
0.741573
0.00237711
-0.00268045
-0.889104
0.889408
0.00303563
-0.00337614
-1.06603
1.06637
0.00375688
-0.00409526
-1.27788
1.27822
0.00442965
-0.00466566
-1.53181
1.53205
0.0047846
-0.00477029
-1.53021
1.53019
0.00464698
-0.00440973
-1.27436
1.27412
0.00414061
-0.00380152
-1.06158
1.06125
0.00346806
-0.00309062
-0.884319
0.883941
0.00274559
-0.00237529
-0.736801
0.73643
0.00204986
-0.00171117
-0.61395
0.613612
0.00142042
-0.00112335
-0.511634
0.511337
0.000872035
-0.000617956
-0.423069
0.422815
0.000406016
-0.00020312
-0.30416
0.303957
6.58444e-05
-0.0682732
0.0682074
-0.0693575
0.0694378
-8.02847e-05
0.000444929
-0.000646899
-0.343897
0.344099
0.000878904
-0.00110652
-0.42923
0.429457
0.00137685
-0.0016443
-0.515424
0.515692
0.00196123
-0.00227321
-0.618672
0.618984
0.00263981
-0.00299645
-0.741879
0.742235
0.00340938
-0.00380254
-0.889754
0.890147
0.00424427
-0.00464735
-1.06674
1.06714
0.00507251
-0.00542358
-1.27856
1.27891
0.00573455
-0.00591014
-1.53225
1.53243
0.00593823
-0.00581004
-1.53012
1.52999
0.00558139
-0.00523828
-1.27383
1.27349
0.00487203
-0.00443609
-1.06086
1.06042
0.00402273
-0.00356771
-0.883529
0.883074
0.00315972
-0.00272837
-0.736033
0.735602
0.00235331
-0.00196601
-0.613253
0.612865
0.00163541
-0.00129881
-0.511024
0.510688
0.00101434
-0.000725664
-0.422547
0.422258
0.000481938
-0.000244281
-0.303739
0.303501
8.02093e-05
-0.0681347
0.0680545
-0.0695294
0.0696342
-0.000104721
0.00058912
-0.000863031
-0.344336
0.34461
0.00118058
-0.00149257
-0.429726
0.430038
0.0018626
-0.00222775
-0.516006
0.516371
0.00265858
-0.00308008
-0.619349
0.61977
0.00357099
-0.00404374
-0.742647
0.74312
0.00458341
-0.00508918
-0.890593
0.891099
0.00564587
-0.00614094
-1.06759
1.06808
0.00664543
-0.00704232
-1.27928
1.27967
0.00736505
-0.00750873
-1.53258
1.53273
0.00746507
-0.00723217
-1.52981
1.52958
0.00689434
-0.00642974
-1.27309
1.27262
0.00595116
-0.00539533
-1.05993
1.05938
0.0048777
-0.00431519
-0.882569
0.882006
0.00381565
-0.0032915
-0.735128
0.734604
0.00283801
-0.00237216
-0.612443
0.611977
0.00197598
-0.00157323
-0.510321
0.509919
0.00123271
-0.000886337
-0.421943
0.421597
0.000592183
-0.000302448
-0.30324
0.30295
0.000100111
-0.067965
0.0678649
-0.0697533
0.069889
-0.000135718
0.000768318
-0.00112884
-0.344925
0.345285
0.00154824
-0.00196056
-0.430398
0.43081
0.00244912
-0.00293019
-0.516792
0.517273
0.00349637
-0.00404876
-0.620254
0.620806
0.00468998
-0.00530433
-0.74366
0.744274
0.0060015
-0.00664951
-0.891671
0.892319
0.00735522
-0.00797408
-1.06863
1.06925
0.00859246
-0.00906456
-1.2801
1.28058
0.00942708
-0.00955667
-1.53286
1.53299
0.00944973
-0.0091063
-1.52929
1.52895
0.00864617
-0.00803374
-1.27209
1.27148
0.00741568
-0.00670656
-1.05875
1.05804
0.00605267
-0.00534727
-0.881377
0.880672
0.00472432
-0.00407322
-0.734021
0.73337
0.00351171
-0.00293589
-0.61146
0.610884
0.00244665
-0.00194994
-0.509472
0.508975
0.00153033
-0.00110345
-0.421214
0.420787
0.000739738
-0.00037941
-0.302627
0.302267
0.000126017
-0.0677525
0.0676265
-0.0700434
0.070219
-0.000175577
0.000995435
-0.00146404
-0.345697
0.346165
0.00200975
-0.00254619
-0.431281
0.431817
0.00318167
-0.00380701
-0.517822
0.518447
0.00454218
-0.005258
-0.621436
0.622151
0.00608684
-0.00687863
-0.744972
0.745764
0.00777389
-0.00860202
-0.893052
0.89388
0.00949834
-0.0102778
-1.06995
1.07073
0.0110477
-0.0116243
-1.2811
1.28167
0.0120497
-0.0121757
-1.53312
1.53325
0.0120003
-0.0115295
-1.52854
1.52807
0.0109205
-0.010126
-1.27078
1.26998
0.00933249
-0.00842855
-1.05724
1.05633
0.00759978
-0.00670835
-0.879879
0.878988
0.00592373
-0.00510544
-0.732641
0.731823
0.0044013
-0.00367988
-0.61024
0.609519
0.00306735
-0.0024458
-0.508421
0.5078
0.00192101
-0.00138668
-0.42031
0.419775
0.000930453
-0.000477427
-0.301863
0.30141
0.000158484
-0.0674855
0.067327
-0.0704191
0.0706473
-0.000228131
0.00129022
-0.00189672
-0.346698
0.347305
0.00260299
-0.00329714
-0.432428
0.433122
0.00411884
-0.00492668
-0.519158
0.519966
0.00587546
-0.00679833
-0.622964
0.623887
0.0078653
-0.00888265
-0.746662
0.747679
0.0100295
-0.0110868
-0.894816
0.895873
0.0122256
-0.01321
-1.0716
1.07259
0.0141733
-0.014885
-1.28231
1.28303
0.0153941
-0.0155196
-1.53337
1.5335
0.0152627
-0.0146339
-1.52753
1.5269
0.0138399
-0.0128152
-1.26908
1.26806
0.0117984
-0.0106465
-1.05531
1.05416
0.00959292
-0.00846357
-0.877985
0.876856
0.00747077
-0.00643701
-0.730903
0.729869
0.0055479
-0.00463787
-0.608709
0.607799
0.00386585
-0.00308289
-0.507102
0.506319
0.0024218
-0.0017484
-0.419176
0.418502
0.00117313
-0.000601732
-0.300902
0.30033
0.000199633
-0.0671492
0.0669496
-0.0709075
0.0712049
-0.000297404
0.00167532
-0.00246023
-0.347995
0.34878
0.00337365
-0.00427128
-0.433911
0.434809
0.00533303
-0.00637616
-0.520884
0.521927
0.00759984
-0.00878829
-0.624935
0.626123
0.0101599
-0.0114647
-0.748831
0.750136
0.0129318
-0.0142793
-0.897067
0.898415
0.0157248
-0.0169668
-1.07369
1.07494
0.0181725
-0.0190515
-1.28382
1.2847
0.0196623
-0.0197828
-1.53362
1.53374
0.019419
-0.0185873
-1.52618
1.52534
0.0175566
-0.0162381
-1.26689
1.26557
0.0149381
-0.0134697
-1.05286
1.05139
0.012131
-0.0106981
-0.875583
0.87415
0.00944049
-0.00813229
-0.728706
0.727398
0.00700785
-0.00585767
-0.606776
0.605626
0.00488223
-0.00389299
-0.505439
0.50445
0.00305767
-0.00220689
-0.417746
0.416895
0.00148027
-0.000758799
-0.299688
0.298967
0.000251494
-0.0667254
0.0664739
-0.0715454
0.0719356
-0.000390212
0.00218496
-0.00320349
-0.349673
0.350692
0.0043874
-0.00555014
-0.43583
0.436992
0.00692377
-0.00827177
-0.523112
0.52446
0.00985102
-0.0113823
-0.627472
0.629003
0.0131458
-0.0148192
-0.751613
0.753287
0.0166944
-0.0184102
-0.899935
0.901651
0.0202407
-0.0218032
-1.07633
1.07789
0.0233057
-0.0243846
-1.28567
1.28675
0.0251087
-0.025209
-1.53385
1.53395
0.0246985
-0.0236015
-1.52439
1.52329
0.0222661
-0.0205736
-1.26408
1.26239
0.0189126
-0.0170435
-1.04974
1.04787
0.0153431
-0.0135258
-0.872537
0.87072
0.0119327
-0.0102763
-0.725926
0.72427
0.00885382
-0.00739914
-0.604332
0.602878
0.00616589
-0.00491558
-0.503338
0.502088
0.00386005
-0.00278516
-0.415939
0.414864
0.0018672
-0.000956166
-0.298156
0.297245
0.000316314
-0.0661916
0.0658753
-0.0723849
0.0729022
-0.000517287
0.00287163
-0.00419985
-0.351853
0.353182
0.00574068
-0.00725268
-0.438317
0.439829
0.00903593
-0.0107831
-0.525994
0.527741
0.0128257
-0.0148018
-0.630743
0.632719
0.0170713
-0.019217
-0.755182
0.757327
0.0216113
-0.0237902
-0.903585
0.905764
0.0260993
-0.0280533
-1.07964
1.08159
0.0299095
-0.0312166
-1.28794
1.28925
0.0320545
-0.0321029
-1.53403
1.53408
0.0313856
-0.0299385
-1.52203
1.52058
0.0282116
-0.0260424
-1.26047
1.2583
0.0239261
-0.021551
-1.04576
1.04338
0.0193946
-0.017093
-0.868674
0.866372
0.0150768
-0.0129818
-0.722407
0.720312
0.0111834
-0.00934448
-0.601242
0.599403
0.00778564
-0.00620506
-0.500682
0.499101
0.00487074
-0.003512
-0.413655
0.412296
0.00235225
-0.00120266
-0.296222
0.295072
0.000397029
-0.0655215
0.0651245
-0.0735021
0.0741963
-0.000694271
0.00381267
-0.00555979
-0.354699
0.356446
0.00758055
-0.00955963
-0.441555
0.443534
0.0118866
-0.0141604
-0.529734
0.532008
0.0168107
-0.0193663
-0.634967
0.637523
0.022289
-0.0250396
-0.759758
0.762509
0.0280904
-0.0308461
-0.908217
0.910972
0.033739
-0.0361578
-1.08377
1.08619
0.0384173
-0.0399669
-1.29068
1.29222
0.040895
-0.0408327
-1.53409
1.53402
0.0398208
-0.0379116
-1.51892
1.51701
0.0356814
-0.0329104
-1.25585
1.25308
0.0302206
-0.0272132
-1.04071
1.0377
0.0244875
-0.0215813
-0.863784
0.860878
0.0190363
-0.0163923
-0.717957
0.715313
0.0141217
-0.0118
-0.597336
0.595014
0.0098313
-0.00783474
-0.497325
0.495328
0.00614863
-0.00443122
-0.41077
0.409052
0.00296559
-0.00151416
-0.293781
0.29233
0.000498823
-0.0646797
0.0641809
-0.0750119
0.0759656
-0.000953752
0.00515656
-0.00749079
-0.35844
0.360774
0.0101729
-0.0127851
-0.445797
0.448409
0.0158369
-0.0188056
-0.534615
0.537583
0.0222511
-0.0255599
-0.640442
0.64375
0.0293251
-0.0328446
-0.765626
0.769145
0.0367144
-0.0401724
-0.914063
0.917521
0.0437538
-0.0466976
-1.08886
1.09181
0.0493835
-0.0511553
-1.29389
1.29566
0.0521065
-0.0518323
-1.53387
1.5336
0.0504004
-0.0478838
-1.51482
1.5123
0.0450173
-0.0414957
-1.24995
1.24643
0.0380994
-0.0343122
-1.03432
1.03054
0.0308843
-0.02723
-0.857615
0.853961
0.0240299
-0.0207034
-0.712343
0.709017
0.0178457
-0.0149204
-0.592405
0.58948
0.0124372
-0.00991509
-0.493086
0.490564
0.00778165
-0.00560552
-0.407125
0.404949
0.00374779
-0.00191044
-0.2907
0.288863
0.000628304
-0.0636218
0.0629935
-0.0770954
0.0784672
-0.00137181
0.00721974
-0.0104167
-0.363407
0.366604
0.0140267
-0.0174925
-0.451413
0.454879
0.0214971
-0.0253726
-0.541035
0.544911
0.029851
-0.0341335
-0.647561
0.651844
0.038974
-0.0434559
-0.77313
0.777612
0.0483203
-0.0525979
-0.92137
0.925648
0.0569408
-0.0604241
-1.09502
1.0985
0.0634951
-0.0654045
-1.29752
1.29943
0.0662396
-0.0655925
-1.53316
1.53251
0.0635679
-0.0602643
-1.50942
1.50611
0.056605
-0.0521705
-1.24247
1.23804
0.047922
-0.0431985
-1.0263
1.02158
0.0389258
-0.0343681
-0.849867
0.845309
0.0303714
-0.0262105
-0.705279
0.701118
0.0226291
-0.0189564
-0.586187
0.582514
0.0158306
-0.0126455
-0.487731
0.484546
0.00993901
-0.00716567
-0.402517
0.399744
0.00479051
-0.00244134
-0.286806
0.284457
0.000804387
-0.0622898
0.0614854
-0.0800569
0.0821986
-0.00214177
0.01072
-0.0151965
-0.370123
0.374599
0.0200666
-0.0246243
-0.45899
0.463548
0.0298305
-0.0348687
-0.549581
0.55462
0.0406841
-0.0462209
-0.656839
0.662376
0.0524203
-0.0580715
-0.782649
0.7883
0.0640786
-0.0692341
-0.930324
0.93548
0.074319
-0.078255
-1.1022
1.10614
0.0815522
-0.0834094
-1.30132
1.30318
0.0838875
-0.0826289
-1.53159
1.53033
0.0797847
-0.075484
-1.50233
1.49803
0.0708662
-0.0653575
-1.23308
1.22757
0.0601207
-0.0543152
-1.01632
1.01051
0.0490667
-0.0434599
-0.840214
0.834607
0.0385333
-0.0333893
-0.696425
0.691281
0.0289493
-0.0243816
-0.578343
0.573776
0.0204765
-0.0164703
-0.480951
0.476944
0.0130297
-0.00945557
-0.396681
0.393107
0.00634833
-0.00324782
-0.281872
0.278772
0.00108057
-0.0606006
0.0595201
-0.084488
0.088226
-0.00373805
0.0172788
-0.023532
-0.37956
0.385813
0.0299517
-0.0358459
-0.469485
0.475379
0.0425904
-0.0491638
-0.561048
0.567621
0.0567508
-0.063877
-0.668827
0.675954
0.0716801
-0.078593
-0.79445
0.801362
0.0857019
-0.0915905
-0.940881
0.94677
0.0971691
-0.101269
-1.11009
1.11419
0.104432
-0.10589
-1.30482
1.30627
0.10563
-0.103429
-1.52859
1.52639
0.0994867
-0.0939602
-1.49312
1.48759
0.0882269
-0.0815146
-1.22145
1.21474
0.0751957
-0.0682213
-1.0041
0.997125
0.0619211
-0.0551833
-0.828357
0.821619
0.0492466
-0.0430255
-0.68543
0.679209
0.0376331
-0.0320642
-0.568464
0.562895
0.0272719
-0.0223008
-0.472305
0.467334
0.0179519
-0.0132957
-0.389207
0.38455
0.00906744
-0.00470882
-0.275569
0.27121
0.0015918
-0.0584281
0.0568363
-0.0917532
0.0992444
-0.0074912
0.0314404
-0.0400632
-0.393645
0.402268
0.0481821
-0.0557109
-0.484242
0.491771
0.0645185
-0.0730549
-0.576198
0.584734
0.0826727
-0.0913615
-0.683809
0.692498
0.100467
-0.108177
-0.80837
0.81608
0.115763
-0.121751
-0.952495
0.958483
0.12711
-0.130723
-1.11791
1.12152
0.133075
-0.133545
-1.30715
1.30762
0.131978
-0.128377
-1.52343
1.51983
0.122991
-0.115997
-1.48128
1.47429
0.109009
-0.101016
-1.20733
1.19934
0.0935901
-0.0854594
-0.989493
0.981363
0.0781381
-0.0703108
-0.814156
0.806329
0.0634041
-0.0561458
-0.67208
0.664821
0.0498303
-0.0432736
-0.556194
0.549638
0.0375874
-0.031636
-0.461259
0.455307
0.0262974
-0.0201713
-0.379425
0.373299
0.0140372
-0.00725049
-0.267143
0.260356
0.00237587
-0.0555012
0.0531253
-0.107207
0.109562
-0.00235507
0.0182462
-0.0264465
-0.414888
0.423088
0.0348646
-0.0432715
-0.504052
0.512458
0.0533547
-0.0635709
-0.594775
0.604991
0.0746048
-0.0843787
-0.700961
0.710734
0.0951849
-0.104697
-0.823138
0.832649
0.114527
-0.122919
-0.963671
0.972064
0.131224
-0.137838
-1.1242
1.13081
0.143698
-0.14752
-1.30705
1.31087
0.149554
-0.148973
-1.51514
1.51456
0.145661
-0.139997
-1.46634
1.46067
0.133309
-0.124756
-1.19061
1.18206
0.116344
-0.106171
-0.972587
0.962413
0.0967226
-0.0861823
-0.797816
0.787276
0.0766146
-0.066301
-0.656607
0.646293
0.0568899
-0.0471742
-0.541701
0.531985
0.0389304
-0.0300222
-0.447713
0.438805
0.022179
-0.0137653
-0.366491
0.358078
0.00675508
-0.001536
-0.254294
0.249075
-0.000467373
-0.0507828
0.0512502
-0.116867
0.111247
0.00561987
-0.00481033
-0.000686319
-0.435343
0.44084
0.00850878
-0.0161392
-0.523864
0.531494
0.0255044
-0.0342041
-0.615128
0.623828
0.0439579
-0.0528051
-0.720486
0.729333
0.0622021
-0.0706802
-0.841712
0.85019
0.0794522
-0.0866694
-0.980183
0.9874
0.0940001
-0.0995477
-1.13734
1.14288
0.104426
-0.107371
-1.31459
1.31753
0.108366
-0.107138
-1.51349
1.51226
0.103433
-0.0976816
-1.45463
1.44888
0.0909994
-0.0827889
-1.17351
1.1653
0.0749354
-0.0659672
-0.952511
0.943543
0.0575859
-0.0482708
-0.776773
0.767458
0.039941
-0.0313757
-0.635288
0.626723
0.0240932
-0.0166578
-0.520865
0.513429
0.0104649
-0.00454842
-0.427453
0.421536
-7.9638e-05
0.00409817
-0.347394
0.343375
-0.00599249
0.00539662
-0.240676
0.241272
-0.0027851
-0.0489399
0.051725
-0.113094
0.108866
0.00422842
-0.00835547
0.00551753
-0.450412
0.45325
-0.000535275
-0.00524508
-0.540805
0.546585
0.0124122
-0.0194395
-0.632472
0.6395
0.0273715
-0.0346443
-0.737565
0.744838
0.0426054
-0.0496747
-0.85789
0.864959
0.0568041
-0.063019
-0.994368
1.00058
0.0691818
-0.0739473
-1.14805
1.15281
0.0777718
-0.0798791
-1.31998
1.32209
0.0805107
-0.0790225
-1.51069
1.5092
0.0753865
-0.0700897
-1.44305
1.43775
0.0641971
-0.0573428
-1.15762
1.15076
0.0506224
-0.0433649
-0.935054
0.927796
0.0367652
-0.0296221
-0.759285
0.752142
0.0235818
-0.0174174
-0.618742
0.612578
0.0124144
-0.00731473
-0.50559
0.500491
0.00346604
-8.90505e-05
-0.413902
0.410525
-0.00233584
0.00424518
-0.336413
0.334504
-0.00483211
0.0035754
-0.235271
0.236528
-0.00178881
-0.050188
0.0519768
-0.110314
0.107063
0.00325088
-0.00791123
0.00648477
-0.4607
0.462127
-0.00304622
-0.00150967
-0.553381
0.557937
0.00730652
-0.0127574
-0.646041
0.651492
0.0190883
-0.0249423
-0.751663
0.757517
0.0313561
-0.0370926
-0.871436
0.877172
0.0432528
-0.0482768
-1.00629
1.01131
0.0534638
-0.0570505
-1.15715
1.16074
0.0601876
-0.0618302
-1.32407
1.32571
0.062038
-0.0602749
-1.50757
1.5058
0.0570579
-0.0525391
-1.43245
1.42793
0.0475757
-0.0416341
-1.14432
1.13838
0.0362107
-0.0304845
-0.920984
0.915258
0.0252195
-0.0198941
-0.745763
0.740437
0.015099
-0.0104402
-0.606592
0.601933
0.00662648
-0.00302851
-0.495095
0.491497
0.000379373
0.00198266
-0.405078
0.402716
-0.00363819
0.00447292
-0.32924
0.328405
-0.00468358
0.00331147
-0.231444
0.232816
-0.00158556
-0.050283
0.0518685
-0.109181
0.106802
0.00237908
-0.00634024
0.00567906
-0.468195
0.468856
-0.0027322
-0.000811403
-0.563383
0.566926
0.00526233
-0.0099248
-0.656821
0.661483
0.0149874
-0.019925
-0.76288
0.767817
0.0252274
-0.0299856
-0.882423
0.887181
0.0350308
-0.039308
-1.01611
1.02039
0.0434786
-0.0466315
-1.16413
1.16729
0.0491315
-0.050333
-1.32703
1.32824
0.0502479
-0.0484454
-1.50404
1.50224
0.0454631
-0.041279
-1.42315
1.41896
0.0369831
-0.0320719
-1.13286
1.12795
0.0275772
-0.0227638
-0.909773
0.904959
0.0185598
-0.0142268
-0.735352
0.731019
0.0105256
-0.00682427
-0.597443
0.593742
0.00387806
-0.00112279
-0.487336
0.484581
-0.00104406
0.00282972
-0.398643
0.396858
-0.00378347
0.00441846
-0.324235
0.3236
-0.00449647
0.00295597
-0.228495
0.230035
-0.00142562
-0.0503793
0.0518049
-0.109084
0.107019
0.00206442
-0.00523986
0.00441627
-0.474167
0.474991
-0.00217282
-0.001005
-0.570998
0.574176
0.00518525
-0.00905277
-0.665641
0.669509
0.0133013
-0.0174837
-0.772175
0.776357
0.0220662
-0.0261927
-0.891595
0.895721
0.0306718
-0.0342595
-1.02433
1.02792
0.0378351
-0.040496
-1.17008
1.17275
0.042465
-0.0432544
-1.32913
1.32992
0.0428177
-0.0412064
-1.50037
1.49876
0.0382397
-0.0344746
-1.41458
1.41081
0.0305683
-0.0261898
-1.12317
1.11879
0.0224736
-0.0182292
-0.90037
0.896126
0.0146161
-0.0110712
-0.726909
0.723364
0.00799963
-0.00494256
-0.590267
0.58721
0.00248489
-3.29736e-05
-0.48134
0.478888
-0.00156997
0.00297352
-0.393608
0.392205
-0.00393144
0.00431908
-0.320081
0.319694
-0.0041539
0.0027918
-0.226252
0.227614
-0.00130355
-0.0504645
0.0517681
-0.109321
0.107684
0.00163665
-0.00402221
0.00320702
-0.479552
0.480367
-0.000846467
-0.00184699
-0.577931
0.580624
0.00568637
-0.00919853
-0.673236
0.676748
0.0132873
-0.0168799
-0.780344
0.783937
0.0208809
-0.024487
-0.899828
0.903434
0.0286822
-0.0318393
-1.03148
1.03464
0.0348316
-0.0371778
-1.17512
1.17747
0.0390925
-0.0395285
-1.33059
1.33103
0.0388623
-0.0369473
-1.49667
1.49475
0.0341675
-0.0302284
-1.40688
1.40294
0.0266697
-0.0227531
-1.11443
1.11051
0.019269
-0.0156526
-0.892135
0.888518
0.0124421
-0.00918102
-0.71978
0.716519
0.00673345
-0.0040145
-0.584179
0.58146
0.00177477
0.00020387
-0.476193
0.474215
-0.00172537
0.00310283
-0.389595
0.388217
-0.00383429
0.00410058
-0.316854
0.316588
-0.0038406
0.0025935
-0.224434
0.225681
-0.00123494
-0.0505793
0.0518142
-0.110014
0.108675
0.00133909
-0.00293782
0.00210481
-0.484514
0.485347
0.000463483
-0.00318012
-0.584216
0.586933
0.00676283
-0.00997804
-0.680183
0.683398
0.01356
-0.0171237
-0.787651
0.791215
0.020878
-0.0246751
-0.906899
0.910696
0.0282258
-0.031193
-1.03783
1.0408
0.0342205
-0.0361956
-1.17959
1.18156
0.0374199
-0.0379257
-1.33117
1.33168
0.0369815
-0.0348598
-1.49264
1.49052
0.0317736
-0.0279649
-1.39905
1.39524
0.0244299
-0.0206317
-1.10634
1.10254
0.0174062
-0.01403
-0.884906
0.88153
0.0111122
-0.00831888
-0.71345
0.710657
0.00585909
-0.00350844
-0.578756
0.576406
0.00162187
0.000302447
-0.471927
0.470003
-0.00176682
0.00279917
-0.385933
0.384901
-0.00351587
0.00382873
-0.314058
0.313745
-0.003613
0.0024305
-0.222979
0.224161
-0.00118474
-0.0508266
0.0520114
-0.111136
0.109948
0.00118724
-0.00177053
0.000671115
-0.489374
0.490473
0.00188249
-0.00467553
-0.590248
0.593041
0.00803553
-0.0112796
-0.686848
0.690092
0.0148744
-0.0182151
-0.794746
0.798087
0.0222148
-0.0253781
-0.914012
0.917175
0.0289634
-0.0317677
-1.04386
1.04667
0.0346226
-0.0366272
-1.18338
1.18538
0.0378291
-0.0377406
-1.33169
1.3316
0.036532
-0.0341154
-1.48796
1.48554
0.0309354
-0.0267717
-1.39105
1.38689
0.023165
-0.0193376
-1.09876
1.09493
0.0162176
-0.0129401
-0.878022
0.874745
0.0102926
-0.0076064
-0.70778
0.705094
0.00536003
-0.00316555
-0.57402
0.571825
0.00134082
0.000215527
-0.467941
0.466384
-0.00162093
0.00261828
-0.382716
0.381719
-0.00338646
0.00363215
-0.311528
0.311282
-0.0033591
0.0023715
-0.221709
0.222697
-0.0010972
-0.051158
0.0522552
-0.112391
0.111558
0.000832336
-0.000787456
-0.000909599
-0.494342
0.496039
0.00333699
-0.00619172
-0.595867
0.598721
0.00935489
-0.0126422
-0.69334
0.696627
0.0162704
-0.0199022
-0.801453
0.805084
0.0235053
-0.026941
-0.920585
0.92402
0.0305849
-0.0332321
-1.04984
1.05249
0.0361273
-0.0379525
-1.18706
1.18889
0.0389101
-0.0388766
-1.33158
1.33155
0.0374201
-0.0344365
-1.48267
1.47969
0.0306043
-0.0262412
-1.38248
1.37811
0.0225028
-0.0185043
-1.09084
1.08685
0.0152761
-0.0122666
-0.871451
0.868442
0.00942529
-0.00705694
-0.702313
0.699945
0.00499728
-0.00290897
-0.56982
0.567732
0.00137766
0.000157535
-0.464357
0.462821
-0.00137498
0.00248935
-0.380003
0.378888
-0.00310732
0.0033579
-0.309305
0.309055
-0.00324984
0.00231351
-0.220675
0.221612
-0.00108164
-0.0515023
0.0525839
-0.113979
0.113346
0.000632411
2.6561e-05
-0.00173313
-0.499541
0.501248
0.00479825
-0.00747232
-0.601806
0.60448
0.0109149
-0.0142449
-0.699711
0.703041
0.0179341
-0.0213894
-0.80854
0.811995
0.025298
-0.0285973
-0.927525
0.930824
0.0323238
-0.0354396
-1.05553
1.05865
0.0379997
-0.0400203
-1.19061
1.19263
0.0410813
-0.0406793
-1.33107
1.33067
0.0388121
-0.0355785
-1.4763
1.47307
0.0310642
-0.0262231
-1.37309
1.36825
0.0219144
-0.0177159
-1.08267
1.07847
0.0145111
-0.0114247
-0.865109
0.862023
0.00884655
-0.0065751
-0.697288
0.695016
0.00469092
-0.00272985
-0.56572
0.563759
0.00123621
7.76627e-05
-0.46114
0.459826
-0.00134012
0.00234195
-0.377354
0.376352
-0.00298057
0.00326522
-0.307236
0.306951
-0.0030878
0.00218351
-0.219937
0.220841
-0.00101642
-0.0519781
0.0529945
-0.115789
0.115436
0.000352548
0.00122052
-0.00305725
-0.504948
0.506785
0.00595771
-0.00890187
-0.607618
0.610562
0.0123975
-0.0157438
-0.706207
0.709553
0.0197078
-0.0232121
-0.81554
0.819044
0.0271907
-0.030782
-0.934635
0.938227
0.0345727
-0.0377713
-1.06162
1.06482
0.040588
-0.0425762
-1.19443
1.19642
0.0435745
-0.043424
-1.33017
1.33002
0.0411462
-0.0371077
-1.46908
1.46504
0.031952
-0.0260849
-1.36259
1.35672
0.0213398
-0.0169165