/*--------------------------------*- C++ -*----------------------------------*\
  =========                 |
  \\      /  F ield         | OpenFOAM: The Open Source CFD Toolbox
   \\    /   O peration     | Website:  https://openfoam.org
    \\  /    A nd           | Version:  9
     \\/     M anipulation  |
\*---------------------------------------------------------------------------*/
FoamFile
{
    format      ascii;
    class       volVectorField;
    location    "4";
    object      U;
}
// * * * * * * * * * * * * * * * * * * * * * * * * * * * * * * * * * * * * * //

dimensions      [0 1 -1 0 0 0 0];

internalField   nonuniform List<vector> 
8800
(
(0.984393 -0.0882775 0)
(1.00239 -0.0567814 0)
(1.0001 -0.0298663 0)
(1.00078 -0.0153085 0)
(1.00045 -0.00807623 0)
(1.00057 -0.004334 0)
(1.0006 -0.00240928 0)
(1.00049 -0.00139436 0)
(1.00027 -0.000649605 0)
(1.00006 -9.41303e-05 0)
(1.00017 0.000396937 0)
(1.0004 0.00106909 0)
(1.00055 0.00188365 0)
(1.0006 0.00314565 0)
(1.00049 0.00584791 0)
(1.00063 0.0111134 0)
(1.00075 0.0213028 0)
(0.999208 0.0406642 0)
(1.00759 0.0777233 0)
(0.773416 0.0452729 0)
(0.369161 -0.0134335 0)
(1.04839 -0.068506 0)
(1.0888 -0.0617527 0)
(1.04835 -0.0487937 0)
(1.02155 -0.0355767 0)
(1.00853 -0.0246499 0)
(1.00275 -0.0165714 0)
(1.00048 -0.0107244 0)
(1.00004 -0.00622849 0)
(1.00044 -0.00242713 0)
(1.00059 0.000954092 0)
(1.00008 0.00458158 0)
(1.00004 0.00863126 0)
(1.00126 0.0136283 0)
(1.00514 0.0204363 0)
(1.01344 0.0299207 0)
(1.03316 0.0422264 0)
(1.06786 0.055402 0)
(1.09509 0.0660968 0)
(0.845047 0.0507907 0)
(0.25104 -0.000618914 0)
(1.07582 -0.0299404 0)
(1.08905 -0.0335715 0)
(1.05939 -0.0319109 0)
(1.03897 -0.0286955 0)
(1.02543 -0.0240551 0)
(1.01677 -0.0183595 0)
(1.01153 -0.012426 0)
(1.00854 -0.00665344 0)
(1.00715 -0.00102313 0)
(1.00767 0.0045909 0)
(1.00973 0.0101553 0)
(1.01362 0.0159223 0)
(1.02036 0.0217149 0)
(1.03118 0.0268169 0)
(1.04782 0.0307143 0)
(1.07292 0.0330366 0)
(1.09709 0.0331359 0)
(0.969776 0.0248066 0)
(0.250861 0.000626345 0)
(0.239431 0.000435083 0)
(1.03257 -0.00921813 0)
(1.06755 -0.0188904 0)
(1.05136 -0.0241504 0)
(1.03728 -0.0247733 0)
(1.02688 -0.022282 0)
(1.01924 -0.0182096 0)
(1.01401 -0.0131311 0)
(1.01062 -0.00745521 0)
(1.00906 -0.000971318 0)
(1.00952 0.0055599 0)
(1.01187 0.0115007 0)
(1.01613 0.0168447 0)
(1.02243 0.0213134 0)
(1.0314 0.0245151 0)
(1.04352 0.0256279 0)
(1.05948 0.0226738 0)
(1.06637 0.0149109 0)
(0.914569 0.00429258 0)
(0.239056 -0.000423456 0)
(0.240347 -2.08466e-05 0)
(1.01013 -0.00387524 0)
(1.05137 -0.00958196 0)
(1.04666 -0.0140097 0)
(1.03975 -0.0162864 0)
(1.03245 -0.0164003 0)
(1.02594 -0.0148184 0)
(1.02068 -0.0115669 0)
(1.01731 -0.00700132 0)
(1.01548 -0.000769428 0)
(1.01584 0.00549059 0)
(1.01842 0.010943 0)
(1.02273 0.0148198 0)
(1.02853 0.0171872 0)
(1.03533 0.0177807 0)
(1.04239 0.0162347 0)
(1.04896 0.012572 0)
(1.04477 0.00698805 0)
(0.896635 0.00159014 0)
(0.239821 3.31887e-05 0)
(0.239325 1.90458e-05 0)
(0.998618 -0.00148667 0)
(1.03982 -0.00437768 0)
(1.03882 -0.00724157 0)
(1.03553 -0.00935945 0)
(1.03118 -0.010325 0)
(1.02698 -0.00982809 0)
(1.02318 -0.00791059 0)
(1.02077 -0.00459445 0)
(1.01921 -0.000147737 0)
(1.01953 0.00452099 0)
(1.02147 0.00826961 0)
(1.02435 0.0109624 0)
(1.02822 0.0116948 0)
(1.03219 0.0111052 0)
(1.0358 0.00926015 0)
(1.03846 0.0064998 0)
(1.03163 0.00330579 0)
(0.887937 0.00075063 0)
(0.238505 -2.55269e-06 0)
(0.239272 -2.21723e-06 0)
(0.993865 -0.000683815 0)
(1.03422 -0.0020029 0)
(1.0346 -0.003508 0)
(1.03311 -0.00483272 0)
(1.03079 -0.00565238 0)
(1.02818 -0.00555289 0)
(1.02553 -0.00444974 0)
(1.02356 -0.00226395 0)
(1.02222 0.000583159 0)
(1.02226 0.00367201 0)
(1.02426 0.00579259 0)
(1.02566 0.00715552 0)
(1.02803 0.00727025 0)
(1.03029 0.00647294 0)
(1.03206 0.00508073 0)
(1.03308 0.00339264 0)
(1.02552 0.00171256 0)
(0.884008 0.000443622 0)
(0.238041 1.24877e-05 0)
(0.238975 -9.46403e-07 0)
(0.991671 -0.000447967 0)
(1.03162 -0.00104237 0)
(1.03236 -0.00173009 0)
(1.03157 -0.00238198 0)
(1.03031 -0.00281638 0)
(1.02871 -0.00277437 0)
(1.02694 -0.00210428 0)
(1.02538 -0.000712479 0)
(1.02424 0.00118261 0)
(1.02406 0.00318028 0)
(1.02545 0.00445644 0)
(1.02612 0.00479711 0)
(1.02743 0.00469533 0)
(1.02862 0.00402264 0)
(1.02948 0.00306557 0)
(1.02988 0.00202557 0)
(1.02218 0.00105076 0)
(0.881702 0.000306854 0)
(0.237591 1.19556e-05 0)
(0.238897 4.84154e-06 0)
(0.990538 -0.000143944 0)
(1.03046 -0.000401964 0)
(1.03135 -0.000683783 0)
(1.03088 -0.000939016 0)
(1.03011 -0.00107983 0)
(1.02907 -0.000970785 0)
(1.02782 -0.000485339 0)
(1.02655 0.000450954 0)
(1.02552 0.00174402 0)
(1.02516 0.00300805 0)
(1.02576 0.0036959 0)
(1.02614 0.00363345 0)
(1.02679 0.00336463 0)
(1.02737 0.00278939 0)
(1.02777 0.00208739 0)
(1.02789 0.0013791 0)
(1.02014 0.000737656 0)
(0.880175 0.000237086 0)
(0.237232 1.25492e-05 0)
(0.239018 1.38497e-05 0)
(0.990203 6.84452e-05 0)
(1.03006 3.05264e-05 0)
(1.03104 -6.35543e-06 0)
(1.03072 -1.0074e-05 0)
(1.0302 6.58959e-05 0)
(1.02945 0.000290414 0)
(1.02848 0.000737154 0)
(1.0274 0.00144594 0)
(1.02639 0.00234886 0)
(1.0258 0.00311168 0)
(1.02578 0.00342375 0)
(1.0259 0.00318629 0)
(1.02613 0.00278727 0)
(1.02634 0.00224434 0)
(1.0265 0.0016614 0)
(1.02647 0.00110586 0)
(1.01868 0.000613504 0)
(0.878998 0.000216604 0)
(0.236893 1.41681e-05 0)
(0.239269 1.55717e-05 0)
(0.990384 0.000208402 0)
(1.0302 0.000333857 0)
(1.03121 0.000479046 0)
(1.03096 0.000668525 0)
(1.03054 0.000926193 0)
(1.02992 0.00128403 0)
(1.02908 0.00177359 0)
(1.02805 0.00239464 0)
(1.02695 0.00306138 0)
(1.0261 0.00348831 0)
(1.02568 0.00348547 0)
(1.02547 0.00315594 0)
(1.0254 0.00266098 0)
(1.02539 0.00210033 0)
(1.0254 0.00154509 0)
(1.02527 0.00103732 0)
(1.01746 0.000592967 0)
(0.877928 0.000224531 0)
(0.236535 1.70379e-05 0)
(0.239628 2.13987e-05 0)
(0.990997 0.000340695 0)
(1.03074 0.000598318 0)
(1.03176 0.000895811 0)
(1.03152 0.00125219 0)
(1.03113 0.00167931 0)
(1.03054 0.00218671 0)
(1.0297 0.00277174 0)
(1.02861 0.00339638 0)
(1.02733 0.00394013 0)
(1.02616 0.00414459 0)
(1.02539 0.003926 0)
(1.02489 0.00344536 0)
(1.02459 0.00284556 0)
(1.02441 0.00222161 0)
(1.02431 0.00163115 0)
(1.02412 0.0011034 0)
(1.01628 0.000645489 0)
(0.876822 0.000256679 0)
(0.23612 2.12429e-05 0)
(0.240115 2.75939e-05 0)
(0.991975 0.000472562 0)
(1.03165 0.000860347 0)
(1.03265 0.00130877 0)
(1.03241 0.00183367 0)
(1.03199 0.00243988 0)
(1.03134 0.00312119 0)
(1.03042 0.0038472 0)
(1.02916 0.00454274 0)
(1.0276 0.00504432 0)
(1.02606 0.00509321 0)
(1.02492 0.00469084 0)
(1.02414 0.00403533 0)
(1.02363 0.00329072 0)
(1.02331 0.00255266 0)
(1.0231 0.00187259 0)
(1.02286 0.00127189 0)
(1.01499 0.000754205 0)
(0.875562 0.000306973 0)
(0.235618 2.62969e-05 0)
(0.240751 3.57297e-05 0)
(0.993341 0.000628051 0)
(1.03294 0.00115832 0)
(1.03392 0.00177228 0)
(1.03363 0.00248589 0)
(1.03314 0.00329775 0)
(1.03238 0.00418785 0)
(1.03128 0.00510259 0)
(1.02976 0.00592601 0)
(1.02781 0.00644352 0)
(1.02582 0.00637 0)
(1.02427 0.00577448 0)
(1.02319 0.00491744 0)
(1.02246 0.0039842 0)
(1.02199 0.00308002 0)
(1.02169 0.00225844 0)
(1.02139 0.00153835 0)
(1.01347 0.000918401 0)
(0.874052 0.00037898 0)
(0.234998 3.31583e-05 0)
(0.241577 4.61586e-05 0)
(0.995161 0.00082037 0)
(1.03467 0.00152041 0)
(1.03561 0.00233091 0)
(1.03525 0.00326873 0)
(1.03464 0.00432883 0)
(1.03372 0.00547835 0)
(1.03235 0.0066375 0)
(1.03046 0.0076458 0)
(1.02799 0.00822469 0)
(1.02543 0.00804127 0)
(1.02341 0.00722745 0)
(1.02197 0.00611906 0)
(1.02099 0.00493995 0)
(1.02036 0.00381277 0)
(1.01996 0.00279424 0)
(1.0196 0.00190551 0)
(1.01163 0.00114102 0)
(0.872189 0.000474674 0)
(0.234219 4.18492e-05 0)
(0.242646 5.97195e-05 0)
(0.997538 0.00106344 0)
(1.03694 0.00197391 0)
(1.03781 0.00302831 0)
(1.03735 0.00424569 0)
(1.03659 0.00561612 0)
(1.03542 0.00709181 0)
(1.0337 0.00856334 0)
(1.0313 0.00981832 0)
(1.02816 0.0104958 0)
(1.02489 0.0101957 0)
(1.02228 0.00911875 0)
(1.02042 0.00769554 0)
(1.01915 0.00619996 0)
(1.01832 0.00477947 0)
(1.0178 0.00350163 0)
(1.01737 0.00238936 0)
(1.00933 0.00143368 0)
(0.869858 0.000597067 0)
(0.233241 5.26881e-05 0)
(0.244034 7.77586e-05 0)
(1.00062 0.00137804 0)
(1.03988 0.00255602 0)
(1.04067 0.00391954 0)
(1.04008 0.00549054 0)
(1.0391 0.00725439 0)
(1.0376 0.00914488 0)
(1.0354 0.0110141 0)
(1.03233 0.0125845 0)
(1.02833 0.0133939 0)
(1.02415 0.0129545 0)
(1.02082 0.0115477 0)
(1.01844 0.00972398 0)
(1.01681 0.00782386 0)
(1.01576 0.00602674 0)
(1.01509 0.00441445 0)
(1.01458 0.00301127 0)
(1.00644 0.00180751 0)
(0.866923 0.000752818 0)
(0.23201 6.6253e-05 0)
(0.245838 0.000101753 0)
(1.0046 0.00178827 0)
(1.04368 0.0033111 0)
(1.04436 0.00507362 0)
(1.04359 0.00709995 0)
(1.04232 0.00936645 0)
(1.04038 0.0117839 0)
(1.03754 0.014156 0)
(1.03361 0.016121 0)
(1.02849 0.0170904 0)
(1.02318 0.0164689 0)
(1.01894 0.0146415 0)
(1.01592 0.0123074 0)
(1.01386 0.0098913 0)
(1.01251 0.00761441 0)
(1.01167 0.00557572 0)
(1.01105 0.00380319 0)
(1.0028 0.00228178 0)
(0.863216 0.000949774 0)
(0.230457 8.33402e-05 0)
(0.248198 0.000134248 0)
(1.00977 0.0023303 0)
(1.04861 0.00430383 0)
(1.04913 0.00658419 0)
(1.04811 0.00919848 0)
(1.04645 0.0121123 0)
(1.04392 0.0152022 0)
(1.04025 0.0182061 0)
(1.03518 0.0206545 0)
(1.02864 0.0218028 0)
(1.02189 0.0209309 0)
(1.01652 0.0185612 0)
(1.0127 0.0155787 0)
(1.0101 0.0125088 0)
(1.00841 0.009624 0)
(1.00734 0.00704336 0)
(1.00658 0.00480288 0)
(0.998201 0.0028801 0)
(0.858536 0.00119771 0)
(0.228502 0.000104452 0)
(0.251311 0.000179257 0)
(1.01648 0.00305846 0)
(1.05499 0.00562661 0)
(1.05529 0.00858732 0)
(1.05393 0.0119678 0)
(1.05174 0.0157159 0)
(1.04842 0.0196598 0)
(1.04363 0.0234485 0)
(1.0371 0.0264738 0)
(1.02874 0.0278014 0)
(1.02018 0.0265769 0)
(1.01342 0.0235076 0)
(1.00862 0.019704 0)
(1.00535 0.0158098 0)
(1.00321 0.0121589 0)
(1.00187 0.00889566 0)
(1.00094 0.0060637 0)
(0.992383 0.00363311 0)
(0.852629 0.00150747 0)
(0.22605 0.000130845 0)
(0.255465 0.000243112 0)
(1.02524 0.00405401 0)
(1.06329 0.0074221 0)
(1.06328 0.0112851 0)
(1.06145 0.0156691 0)
(1.05851 0.0204946 0)
(1.0541 0.0255175 0)
(1.04782 0.0302637 0)
(1.03937 0.0339491 0)
(1.02872 0.0354187 0)
(1.01793 0.0336906 0)
(1.00946 0.0297209 0)
(1.00344 0.0248845 0)
(0.999332 0.0199606 0)
(0.996642 0.0153517 0)
(0.994956 0.0112331 0)
(0.993817 0.00765611 0)
(0.985037 0.00458512 0)
(0.845176 0.00189938 0)
(0.222968 0.000163868 0)
(0.261107 0.000338816 0)
(1.03672 0.00547273 0)
(1.07412 0.00994339 0)
(1.07367 0.0150067 0)
(1.07114 0.0207038 0)
(1.06713 0.026916 0)
(1.0612 0.0332848 0)
(1.05291 0.0391629 0)
(1.04198 0.0435483 0)
(1.02845 0.0450516 0)
(1.01494 0.0426047 0)
(1.00438 0.0374898 0)
(0.996874 0.0313741 0)
(0.991736 0.0251786 0)
(0.988355 0.0193818 0)
(0.986229 0.0141982 0)
(0.984824 0.00968722 0)
(0.975762 0.00580223 0)
(0.835765 0.00239823 0)
(0.219094 0.000206041 0)
(0.269009 0.000498193 0)
(1.05189 0.00764201 0)
(1.08836 0.0136589 0)
(1.08724 0.0202948 0)
(1.08362 0.0276949 0)
(1.078 0.0356779 0)
(1.06989 0.0436837 0)
(1.05887 0.0508185 0)
(1.04474 0.0558427 0)
(1.02768 0.0571551 0)
(1.01092 0.0536898 0)
(0.997901 0.0471428 0)
(0.988605 0.0394813 0)
(0.982186 0.0317528 0)
(0.977922 0.0245119 0)
(0.975229 0.0180173 0)
(0.973484 0.0123412 0)
(0.964062 0.00741522 0)
(0.823859 0.0030649 0)
(0.214191 0.000264558 0)
(0.280621 0.000798777 0)
(1.07234 0.011267 0)
(1.10757 0.0193783 0)
(1.10528 0.0279822 0)
(1.09978 0.0375881 0)
(1.09158 0.0478138 0)
(1.08027 0.0577089 0)
(1.06554 0.0660796 0)
(1.04735 0.0714885 0)
(1.02606 0.072215 0)
(1.00557 0.0673375 0)
(0.989711 0.0590488 0)
(0.978303 0.0495884 0)
(0.970298 0.0400828 0)
(0.964879 0.0311504 0)
(0.961401 0.0230961 0)
(0.959178 0.0160105 0)
(0.949286 0.00975616 0)
(0.808713 0.00407459 0)
(0.207876 0.000359158 0)
(0.2987 0.00142235 0)
(1.10117 0.0178343 0)
(1.13451 0.0284911 0)
(1.12969 0.0396021 0)
(1.12073 0.0521588 0)
(1.10837 0.0650481 0)
(1.0924 0.0767793 0)
(1.07272 0.0859866 0)
(1.04951 0.0911893 0)
(1.02333 0.0906993 0)
(0.998659 0.0839196 0)
(0.979638 0.0735948 0)
(0.965787 0.0621598 0)
(0.955814 0.0507349 0)
(0.948812 0.0399597 0)
(0.944106 0.0301649 0)
(0.941017 0.0214688 0)
(0.930417 0.0135669 0)
(0.789317 0.00587775 0)
(0.199558 0.000539687 0)
(0.32672 0.00296967 0)
(1.14342 0.0314264 0)
(1.17204 0.0447873 0)
(1.16191 0.059406 0)
(1.14703 0.0753708 0)
(1.12843 0.0904183 0)
(1.10609 0.102955 0)
(1.08017 0.111811 0)
(1.05107 0.115665 0)
(1.01942 0.112996 0)
(0.990251 0.103706 0)
(0.967808 0.0910895 0)
(0.951202 0.077632 0)
(0.938832 0.0643429 0)
(0.929648 0.0517957 0)
(0.922919 0.0403032 0)
(0.918003 0.0299717 0)
(0.90603 0.0202362 0)
(0.764254 0.00900107 0)
(0.189216 0.000828251 0)
(0.369446 0.0126231 3.72052e-20)
(1.19911 0.0609276 3.6609e-20)
(1.21809 0.0773057 -1.38175e-20)
(1.199 0.0948002 0)
(1.1758 0.111879 -4.03481e-34)
(1.14923 0.126619 5.99715e-21)
(1.11938 0.137923 -1.13791e-20)
(1.0865 0.144827 0)
(1.05099 0.146152 2.46005e-34)
(1.01341 0.140537 -1.51692e-20)
(0.979282 0.128386 0)
(0.952925 0.113479 -1.84679e-20)
(0.932962 0.0982438 -5.4758e-20)
(0.917471 0.0835337 -2.59844e-20)
(0.905153 0.0698386 -7.88502e-21)
(0.895159 0.0575461 -4.71031e-21)
(0.886716 0.0466803 0)
(0.872069 0.0370177 3.34351e-21)
(0.730571 0.0240596 3.9094e-21)
(0.178508 0.00555935 7.0157e-20)
(0.387326 0.0344661 1.35807e-20)
(1.25017 0.113532 9.70297e-22)
(1.26064 0.129935 3.21674e-21)
(1.23254 0.145284 0)
(1.20071 0.16003 -1.90509e-20)
(1.16629 0.172444 -2.25006e-20)
(1.12925 0.181426 -1.11578e-20)
(1.08966 0.185876 -4.16104e-20)
(1.04775 0.184639 0)
(1.00384 0.176341 6.43033e-20)
(0.96387 0.161968 6.46588e-20)
(0.932527 0.145678 1.93753e-20)
(0.908161 0.129781 7.17124e-20)
(0.888524 0.114975 1.02089e-19)
(0.87218 0.101684 0)
(0.858118 0.0903259 1.4679e-19)
(0.845531 0.0811683 2.13188e-19)
(0.827419 0.0735538 2.37004e-19)
(0.696878 0.0578782 -2.72444e-19)
(0.17546 0.0155062 -5.00351e-21)
(0.374371 0.0561078 0)
(1.28342 0.184183 9.86433e-22)
(1.29202 0.196462 0)
(1.25755 0.206725 -1.89321e-20)
(1.21932 0.216721 0)
(1.17851 0.224866 -4.20735e-20)
(1.13521 0.229956 2.23309e-20)
(1.08959 0.23079 -8.16903e-20)
(1.0419 0.226144 -2.50619e-21)
(0.992433 0.214724 3.27314e-20)
(0.947652 0.198002 1.41967e-19)
(0.912533 0.180508 -1.14049e-22)
(0.885106 0.164446 -5.20156e-20)
(0.862963 0.150299 -9.56895e-20)
(0.844633 0.138258 1.14692e-19)
(0.829146 0.128461 -2.0372e-19)
(0.815709 0.121044 -2.73131e-20)
(0.798154 0.11529 0)
(0.67836 0.0958601 1.71441e-21)
(0.176832 0.0258183 0)
(0.364004 0.0752131 -6.2554e-20)
(1.29937 0.256367 1.38646e-20)
(1.30912 0.267142 -5.84466e-21)
(1.27166 0.272523 7.81835e-21)
(1.22966 0.277429 -1.43896e-20)
(1.18461 0.280747 8.83216e-20)
(1.13679 0.28133 4.62606e-20)
(1.08649 0.277958 0)
(1.03412 0.269372 -1.59205e-19)
(0.98012 0.25439 0)
(0.931523 0.235092 -7.3155e-20)
(0.893644 0.216292 -9.21735e-20)
(0.864342 0.199887 -5.59966e-20)
(0.840991 0.185962 -6.89988e-20)
(0.822 0.174437 0)
(0.806285 0.165271 0)
(0.792927 0.158403 -1.77285e-19)
(0.775816 0.152807 3.49688e-20)
(0.661459 0.128788 -2.07463e-20)
(0.17494 0.0349088 -2.38174e-20)
(0.357816 0.0931324 6.37956e-20)
(1.30488 0.326529 0)
(1.31584 0.336679 1.43618e-21)
(1.27689 0.337951 2.0113e-20)
(1.23273 0.338525 3.81071e-20)
(1.18489 0.337416 0)
(1.13372 0.333588 4.40384e-20)
(1.07974 0.325881 8.931e-20)
(1.02361 0.313114 8.02786e-20)
(0.966023 0.294261 1.51627e-19)
(0.914626 0.27205 0)
(0.87497 0.251624 -1.95077e-19)
(0.844626 0.234469 -1.18116e-19)
(0.820728 0.220323 -6.94414e-20)
(0.801526 0.208847 4.35413e-19)
(0.785833 0.199739 5.22249e-20)
(0.772671 0.192926 2.49478e-19)
(0.756001 0.187149 -1.19625e-18)
(0.646082 0.158726 7.12639e-19)
(0.172937 0.0433425 -8.45442e-19)
(0.353648 0.110119 7.86195e-20)
(1.30486 0.392799 -9.718e-21)
(1.31619 0.403451 2.89094e-21)
(1.27623 0.401551 -9.17114e-21)
(1.23051 0.398383 -2.63437e-20)
(1.18056 0.393328 3.26832e-21)
(1.12683 0.385399 -4.84674e-20)
(1.06996 0.373481 9.19654e-20)
(1.01084 0.356472 -1.72329e-19)
(0.950478 0.333509 0)
(0.8971 0.308078 -8.75967e-20)
(0.856378 0.285702 -1.57826e-21)
(0.825538 0.267467 -1.27357e-19)
(0.801495 0.252758 0)
(0.782359 0.24098 -9.27066e-20)
(0.766865 0.231664 -2.209e-19)
(0.75397 0.224612 6.01376e-19)
(0.737702 0.218429 -5.9859e-19)
(0.631589 0.185937 8.50876e-19)
(0.170809 0.051146 -8.70284e-19)
(0.350287 0.126141 -1.45507e-21)
(1.30129 0.455664 1.49656e-20)
(1.31209 0.466939 2.63052e-20)
(1.27133 0.462504 -9.56267e-22)
(1.22441 0.456281 -1.39734e-20)
(1.1728 0.447789 0)
(1.11695 0.436124 -4.34502e-20)
(1.05766 0.420153 -9.64716e-20)
(0.99606 0.398868 -8.89835e-20)
(0.933522 0.371585 0)
(0.878828 0.342645 -8.73553e-20)
(0.837613 0.318026 -1.08532e-19)
(0.806738 0.298467 1.34863e-19)
(0.782834 0.282986 -8.36361e-20)
(0.763954 0.270682 -3.91541e-19)
(0.748783 0.260991 2.3649e-19)
(0.736204 0.253582 7.28443e-20)
(0.720407 0.246821 0)
(0.617728 0.210684 -8.00348e-19)
(0.168714 0.0584177 -2.86087e-20)
(0.347804 0.141605 1.43529e-20)
(1.29543 0.515311 -1.85396e-20)
(1.30511 0.527188 -1.32143e-20)
(1.26351 0.520701 1.38521e-20)
(1.21549 0.511901 -4.76143e-20)
(1.16239 0.500447 7.85221e-20)
(1.10469 0.485365 9.72777e-20)
(1.04326 0.46555 -1.55338e-19)
(0.979495 0.439963 5.53063e-20)
(0.915215 0.408129 -3.59994e-19)
(0.859773 0.375363 -9.7686e-20)
(0.81861 0.348275 0)
(0.78805 0.327247 1.42194e-19)
(0.764558 0.310837 1.69629e-19)
(0.74608 0.297951 2.0567e-19)
(0.731289 0.287802 -2.49409e-19)
(0.719106 0.279993 -7.39518e-20)
(0.703791 0.272595 8.89654e-20)
(0.604393 0.233201 0)
(0.166848 0.0652764 -6.07273e-20)
(0.345946 0.156577 -1.73556e-19)
(1.2881 0.571956 9.52818e-20)
(1.29621 0.58435 1.10294e-20)
(1.25371 0.576202 7.21476e-21)
(1.20462 0.565264 -1.9405e-20)
(1.15009 0.55119 -5.30639e-21)
(1.09058 0.533005 -1.10283e-19)
(1.02712 0.509513 -5.67813e-20)
(0.961341 0.479562 -1.54862e-19)
(0.895646 0.442905 -1.95704e-22)
(0.839947 0.405988 -2.95126e-19)
(0.799332 0.37624 2.49644e-19)
(0.769465 0.353658 -1.50577e-19)
(0.746621 0.336303 1.81758e-19)
(0.728665 0.322805 0)
(0.714318 0.312208 -1.29835e-19)
(0.702523 0.304002 -3.70012e-21)
(0.687728 0.296014 -3.71297e-19)
(0.591688 0.253837 -5.56064e-20)
(0.165177 0.0717717 0)
(0.344732 0.170997 0)
(1.27982 0.625726 9.09823e-20)
(1.28613 0.6387 3.66877e-20)
(1.24266 0.629153 -4.71321e-21)
(1.19243 0.616398 -3.29785e-20)
(1.1364 0.600057 0)
(1.07508 0.579028 -4.9392e-20)
(1.00956 0.551982 -2.59486e-22)
(0.941809 0.517634 3.31959e-19)
(0.874843 0.475804 -4.84988e-20)
(0.819347 0.434359 -2.09649e-19)
(0.77981 0.401767 1.27083e-19)
(0.751054 0.377641 -1.0332e-21)
(0.729065 0.359412 1.86469e-19)
(0.711748 0.345363 1.18101e-19)
(0.697887 0.334328 -2.77028e-19)
(0.686525 0.325762 3.30307e-19)
(0.672247 0.317234 9.77778e-20)
(0.579559 0.272641 4.09176e-19)
(0.163678 0.0779289 -1.07366e-18)
(0.344198 0.185233 -4.56766e-20)
(1.2712 0.677021 5.78951e-20)
(1.27533 0.690532 -3.38825e-20)
(1.23087 0.679737 5.6089e-22)
(1.1794 0.665434 0)
(1.1218 0.647092 -3.94274e-20)
(1.05856 0.623456 1.76703e-19)
(0.990865 0.592998 1.29139e-19)
(0.921038 0.554202 0)
(0.852825 0.506808 -6.84957e-19)
(0.797974 0.460307 5.43504e-19)
(0.76014 0.424687 0)
(0.732951 0.399124 1.63931e-19)
(0.712038 0.380193 -8.9882e-22)
(0.695429 0.365697 -3.59017e-19)
(0.682076 0.354342 1.4242e-19)
(0.671083 0.345457 0)
(0.65734 0.336454 5.14734e-19)
(0.568149 0.290001 0)
(0.162481 0.0838821 -4.94498e-19)
(0.344306 0.199252 5.03782e-20)
(1.26269 0.725719 7.1626e-20)
(1.26422 0.740032 -3.12832e-20)
(1.21872 0.728159 0)
(1.16594 0.712491 -3.26263e-20)
(1.10666 0.692403 0)
(1.04138 0.666375 -1.78237e-19)
(0.971294 0.632689 -6.13179e-20)
(0.89915 0.589386 6.01103e-20)
(0.8296 0.535969 -3.36233e-19)
(0.775724 0.48371 5.55756e-20)
(0.740392 0.4448 0)
(0.715407 0.418024 -3.3108e-19)
(0.695811 0.398748 1.18452e-21)
(0.679884 0.384076 0)
(0.66692 0.372519 4.72928e-21)
(0.65627 0.363321 4.52117e-19)
(0.643041 0.353899 -4.37754e-19)
(0.557486 0.305994 1.29572e-19)
(0.161397 0.0895636 0)
(0.34472 0.213156 0)
(1.25397 0.77231 8.06111e-20)
(1.25307 0.787268 4.30913e-20)
(1.20645 0.774536 -4.84911e-21)
(1.15232 0.757711 -8.2618e-21)
(1.09131 0.736066 -1.09643e-19)
(1.02385 0.70791 7.10019e-20)
(0.951123 0.671147 -7.38565e-20)
(0.876268 0.623334 2.6828e-19)
(0.805072 0.563376 -5.28112e-19)
(0.752496 0.504435 6.87533e-21)
(0.720704 0.46185 -1.4033e-19)
(0.698773 0.434226 5.12866e-19)
(0.680723 0.415217 -1.21079e-21)
(0.665332 0.400781 -2.58598e-19)
(0.652476 0.389153 -4.79701e-19)
(0.641979 0.37967 0)
(0.629185 0.369834 0)
(0.547455 0.320919 1.40692e-19)
(0.160196 0.0949202 -7.87911e-20)
(0.34567 0.227186 6.34097e-20)
(1.24543 0.817017 -1.66756e-19)
(1.24212 0.832392 -4.14007e-20)
(1.19431 0.818955 0)
(1.13876 0.801185 -7.52141e-22)
(1.07598 0.778192 -1.08571e-19)
(1.00625 0.748175 1.79165e-19)
(0.930628 0.708541 3.02174e-19)
(0.852557 0.65623 3.5679e-19)
(0.779142 0.589191 -4.3208e-19)
(0.728097 0.522339 -4.15453e-19)
(0.701165 0.475487 3.57256e-19)
(0.683531 0.447603 0)
(0.667351 0.429891 -1.08197e-19)
(0.652048 0.416411 -2.75565e-19)
(0.638687 0.404814 -3.34847e-19)
(0.627968 0.394917 -4.11198e-19)
(0.615502 0.384535 1.23153e-19)
(0.537702 0.334806 -7.34467e-20)
(0.158385 0.0997324 2.07771e-22)
(0.34686 0.241021 0)
(1.2372 0.859911 0)
(1.2315 0.875537 1.44575e-21)
(1.18246 0.861514 0)
(1.12545 0.842975 3.18473e-20)
(1.06082 0.81887 8.23944e-20)
(0.988772 0.78723 0)
(0.910068 0.745037 3.83534e-20)
(0.828239 0.688315 6.15402e-19)
(0.751763 0.613625 -9.84735e-19)
(0.702157 0.53729 0)
(0.681743 0.485104 -2.03507e-19)
(0.670469 0.457731 -4.03151e-21)
(0.656527 0.443106 -5.73519e-21)
(0.640377 0.431572 2.74931e-19)
(0.625367 0.420441 -3.06659e-21)
(0.613695 0.409986 -8.75825e-19)
(0.601392 0.398407 2.68099e-19)
(0.527454 0.347565 7.98285e-20)
(0.15521 0.103559 0)
(0.34817 0.254638 -2.37104e-19)
(1.22934 0.900988 -1.03341e-19)
(1.2213 0.916797 -1.08507e-19)
(1.17104 0.90228 6.13657e-20)
(1.11256 0.883095 5.57276e-20)
(1.04604 0.858095 0)
(0.97155 0.825116 1.27583e-19)
(0.889631 0.780745 -8.81332e-20)
(0.803565 0.719911 2.41474e-21)
(0.722931 0.637062 6.90165e-20)
(0.674214 0.549225 4.9036e-19)
(0.662372 0.489845 -6.8403e-20)
(0.660617 0.464112 -2.56482e-19)
(0.649365 0.455196 -1.06853e-19)
(0.63111 0.447981 1.51401e-19)
(0.613064 0.437316 -3.4353e-21)
(0.598879 0.425784 2.39746e-19)
(0.584873 0.412073 -5.76674e-19)
(0.514134 0.359233 6.9942e-19)
(0.149674 0.105539 9.85635e-20)
(0.349262 0.267875 8.78368e-20)
(1.22186 0.940371 -5.3671e-20)
(1.21155 0.956243 9.48842e-21)
(1.16009 0.941305 3.81777e-20)
(1.10018 0.921595 -5.38051e-21)
(1.03181 0.895879 -1.6915e-19)
(0.954817 0.861868 3.98173e-20)
(0.869477 0.815717 -3.8355e-19)
(0.778735 0.751248 -7.2438e-19)
(0.692698 0.659991 -5.93506e-19)
(0.643704 0.558176 0)
(0.642711 0.488483 -2.44175e-19)
(0.654641 0.465069 3.10836e-19)
(0.648847 0.466811 0)
(0.626444 0.46763 -3.07471e-19)
(0.601056 0.457807 2.04713e-19)
(0.58053 0.444524 -2.5587e-19)
(0.564563 0.425995 -3.25033e-19)
(0.498333 0.368903 -5.76809e-19)
(0.14014 0.104534 -4.44373e-19)
(0.350848 0.281053 -9.57569e-20)
(1.2147 0.978073 5.70662e-20)
(1.20227 0.993915 1.09706e-19)
(1.14967 0.978596 5.84605e-20)
(1.08839 0.95847 2.45805e-20)
(1.01827 0.932245 -1.10421e-19)
(0.938827 0.897479 1.38465e-19)
(0.849842 0.850002 -4.16461e-19)
(0.753896 0.782483 -4.47606e-19)
(0.661114 0.683013 6.37965e-19)
(0.609997 0.564406 9.73457e-19)
(0.621984 0.479894 0)
(0.654613 0.459368 0)
(0.65855 0.478916 -1.16168e-19)
(0.629254 0.493629 0)
(0.591159 0.48751 4.50817e-19)
(0.558381 0.467298 5.73205e-19)
(0.539886 0.442757 0)
(0.474496 0.376725 0)
(0.122629 0.0980362 5.07254e-19)
(0.352167 0.29359 1.07577e-19)
(1.20785 1.01407 7.94872e-20)
(1.19346 1.02983 7.69348e-20)
(1.13979 1.01418 -5.3566e-20)
(1.07725 0.993722 2.37082e-20)
(1.00545 0.967151 1.31888e-19)
(0.923718 0.931954 -2.05159e-19)
(0.831096 0.883626 -1.06815e-20)
(0.729345 0.813763 -2.83144e-21)
(0.62828 0.706633 5.19433e-21)
(0.572362 0.568651 4.78493e-19)
(0.59826 0.46208 0)
(0.66194 0.441964 1.86765e-19)
(0.684962 0.489661 1.8525e-19)
(0.644214 0.528999 6.28094e-19)
(0.577324 0.538152 2.31318e-19)
(0.524594 0.506894 -3.42802e-19)
(0.497251 0.463322 -2.11474e-19)
(0.431694 0.378325 0)
(0.0939557 0.0819568 5.9525e-19)
(0.353977 0.306385 -2.37938e-19)
(1.2013 1.04843 0)
(1.18509 1.06402 8.88709e-20)
(1.13046 1.04804 -4.23071e-20)
(1.06679 1.02734 -2.07461e-20)
(0.993447 1.00058 -1.70262e-19)
(0.909555 0.965224 4.41657e-19)
(0.813436 0.916575 -2.46508e-20)
(0.705562 0.84521 0)
(0.594471 0.731371 -7.52172e-19)
(0.529987 0.572029 -9.94332e-19)
(0.569013 0.433214 2.01237e-20)
(0.677712 0.406643 2.73377e-20)
(0.736351 0.500363 0)
(0.682103 0.580187 3.76143e-19)
(0.567711 0.595449 0)
(0.47424 0.5585 0)
(0.431757 0.483854 -2.60261e-19)
(0.366184 0.361211 0)
(0.0805975 0.056658 1.68159e-19)
(0.355371 0.318458 -2.62772e-19)
(1.19496 1.0813 0)
(1.17708 1.09656 1.505e-19)
(1.12165 1.08032 0)
(1.05699 1.05949 8.79426e-21)
(0.982212 1.03273 0)
(0.896377 0.997568 2.51692e-20)
(0.79684 0.949151 6.69314e-20)
(0.68276 0.87739 6.15707e-20)
(0.559815 0.758385 -8.62199e-19)
(0.481517 0.576159 3.48089e-20)
(0.53024 0.390731 5.52285e-20)
(0.703917 0.341679 -9.07873e-20)
(0.826527 0.499545 -3.36331e-21)
(0.725133 0.682079 2.5849e-19)
(0.527909 0.739003 0)
(0.373561 0.666933 8.39057e-19)
(0.298036 0.506597 -5.33263e-19)
(0.171663 0.297637 6.12255e-19)
(-0.0315394 0.522886 -7.71026e-19)
(0.356919 0.330445 2.17816e-19)
(1.18859 1.11289 3.00133e-19)
(1.1693 1.12772 0)
(1.11327 1.1114 3.54393e-21)
(1.04767 1.09076 -1.3365e-20)
(0.9715 1.06433 2.97741e-19)
(0.883864 1.02987 1.7753e-19)
(0.780893 0.982481 0)
(0.660218 0.911784 4.46268e-19)
(0.522989 0.789955 -5.10366e-20)
(0.421842 0.583733 0)
(0.471655 0.328273 0)
(0.739736 0.212793 -3.47283e-19)
(1.00433 0.420867 7.66293e-20)
(0.871031 0.746575 -1.79688e-19)
(0.557847 0.881032 0)
(0.313411 0.781215 4.64286e-19)
(0.0925425 0.793533 -5.54476e-19)
(0.107175 2.04463 -3.01804e-19)
(0.124162 2.87048 -3.69713e-19)
(0.358336 0.341294 -1.62435e-19)
(1.18194 1.14314 -3.79011e-19)
(1.16171 1.15726 8.42074e-20)
(1.1054 1.14109 4.67e-20)
(1.0389 1.12083 0)
(0.961421 1.09498 2.05083e-19)
(0.872314 1.0617 2.72036e-19)
(0.766062 1.01608 -3.69418e-20)
(0.638753 0.948034 6.89261e-20)
(0.485586 0.826835 9.01532e-19)
(0.351191 0.598944 4.87162e-19)
(0.3794 0.241719 -2.28344e-19)
(0.748197 -0.0224519 -7.89987e-19)
(1.21011 0.409258 8.56916e-19)
(1.07017 0.938094 -6.02153e-20)
(0.65158 1.14484 0)
(0.270465 1.19094 0)
(0.249423 2.5067 2.33375e-19)
(0.240811 3.10858 0)
(0.215816 3.26599 5.17956e-19)
(0.363583 0.351218 0)
(1.17453 1.17181 0)
(1.15422 1.18481 0)
(1.0978 1.16913 1.65129e-20)
(1.03041 1.14943 -2.00399e-20)
(0.951783 1.12447 1.4899e-19)
(0.861715 1.09291 1.88365e-19)
(0.752459 1.04986 -3.81796e-20)
(0.618792 0.986267 6.26779e-19)
(0.448233 0.869873 2.21178e-20)
(0.270081 0.629093 1.04708e-18)
(0.228195 0.163555 8.04881e-20)
(0.591469 -0.034275 -1.66934e-19)
(1.19209 0.665089 -1.90202e-19)
(1.20392 1.34151 8.42671e-20)
(0.691103 1.67241 -3.69723e-21)
(0.393205 2.44592 -8.1546e-19)
(0.409351 3.2026 -3.42548e-19)
(0.316738 3.32501 1.53534e-19)
(0.258887 3.36055 -1.36205e-19)
(0.240314 0.274413 9.01209e-20)
(1.16555 1.19817 0)
(1.14775 1.21083 -1.7524e-19)
(1.09094 1.19608 -1.28479e-19)
(1.02285 1.1772 -5.81888e-21)
(0.943399 1.15328 -1.53074e-19)
(0.852889 1.12256 -2.14588e-19)
(0.741814 1.08258 4.91741e-19)
(0.60381 1.02497 -5.48329e-19)
(0.41854 0.923064 0)
(0.191388 0.702775 5.95521e-19)
(0.0565307 0.271088 2.72503e-19)
(0.315296 0.295494 0)
(0.885759 1.28104 -4.2929e-19)
(1.11664 2.00927 -2.83309e-19)
(0.651072 2.37123 6.03087e-20)
(0.557487 3.34047 -7.75773e-21)
(0.443739 3.44113 -1.85261e-20)
(0.339566 3.44944 5.44106e-20)
(0.278819 3.44696 -6.48255e-21)
(0.437774 0.429639 -1.26976e-19)
(1.14672 1.21595 0)
(1.13884 1.24938 1.84703e-19)
(1.07896 1.23646 1.45587e-19)
(1.0094 1.21902 -1.12021e-20)
(0.92809 1.19687 1.38039e-19)
(0.833484 1.16894 2.80608e-19)
(0.718041 1.1334 4.03983e-20)
(0.570734 1.08412 6.11566e-19)
(0.35992 0.998946 1.0406e-18)
(0.0450725 0.808297 5.23856e-20)
(-0.370814 0.577861 -2.30757e-19)
(-0.396457 1.3148 -2.69628e-19)
(0.411814 2.54039 4.75685e-19)
(0.531262 3.10519 5.58811e-19)
(0.499567 3.57942 -3.67946e-19)
(0.463834 3.64901 4.20857e-19)
(0.393259 3.58437 1.6908e-19)
(0.325939 3.57571 2.45092e-19)
(0.2626 3.53831 1.70816e-20)
(0.431945 0.432287 0)
(1.14752 1.24353 6.57397e-20)
(1.13275 1.27668 -4.11981e-20)
(1.07223 1.26466 -2.04085e-20)
(1.00186 1.24801 -1.52787e-20)
(0.919875 1.22696 -1.28715e-19)
(0.82404 1.20073 -1.79297e-19)
(0.707104 1.16876 3.94161e-20)
(0.556179 1.1269 -6.84284e-19)
(0.33371 1.06182 2.11424e-20)
(-0.0266379 0.942145 -1.72038e-18)
(-0.552622 0.955578 -8.21996e-20)
(-0.711771 1.8684 2.07976e-19)
(0.00601165 3.07167 3.4917e-19)
(0.292358 3.62723 -8.071e-21)
(0.393498 3.75857 3.17457e-20)
(0.404728 3.70866 -1.1426e-18)
(0.368185 3.66396 -6.62427e-19)
(0.305144 3.66282 4.21927e-19)
(0.24708 3.62366 2.42415e-19)
(0.411926 0.428144 1.85604e-19)
(1.14738 1.27579 4.5019e-19)
(1.12702 1.30713 -1.13956e-19)
(1.06546 1.29526 -7.24648e-20)
(0.994299 1.27912 0)
(0.911722 1.25894 -1.45558e-19)
(0.815121 1.23448 -2.47647e-19)
(0.697446 1.20613 3.81047e-20)
(0.544986 1.17297 -7.8135e-20)
(0.317844 1.1329 -1.17712e-18)
(-0.0565918 1.09862 -9.82357e-19)
(-0.593559 1.30292 1.3128e-20)
(-0.767317 2.26937 1.14484e-18)
(-0.167176 3.31857 -1.49786e-18)
(0.187126 3.69201 -1.59253e-18)
(0.343323 3.72581 0)
(0.376814 3.71051 0)
(0.362484 3.72239 4.01394e-19)
(0.299767 3.74612 0)
(0.226142 3.71491 6.07701e-19)
(0.39522 0.427657 -2.91063e-19)
(1.14469 1.31079 -3.95484e-19)
(1.12032 1.33993 0)
(1.0578 1.32758 7.58462e-21)
(0.985935 1.31156 -4.45206e-20)
(0.902976 1.29206 -1.8559e-19)
(0.806106 1.26923 -1.55563e-19)
(0.688584 1.24459 3.0394e-20)
(0.536837 1.22069 -5.79452e-19)
(0.311846 1.20611 6.60814e-20)
(-0.0499021 1.24773 0)
(-0.525436 1.57225 0)
(-0.650052 2.48273 4.62429e-19)
(-0.155739 3.31326 -3.8077e-19)
(0.189636 3.59137 -8.91424e-19)
(0.356689 3.62469 0)
(0.408672 3.69585 8.31261e-19)