/*--------------------------------*- C++ -*----------------------------------*\
  =========                 |
  \\      /  F ield         | OpenFOAM: The Open Source CFD Toolbox
   \\    /   O peration     | Website:  https://openfoam.org
    \\  /    A nd           | Version:  9
     \\/     M anipulation  |
\*---------------------------------------------------------------------------*/
FoamFile
{
    format      ascii;
    class       volScalarField;
    location    "3";
    object      p;
}
// * * * * * * * * * * * * * * * * * * * * * * * * * * * * * * * * * * * * * //

dimensions      [0 2 -2 0 0 0 0];

internalField   nonuniform List<scalar> 
2200
(
0.881588
0.861235
0.846337
0.831992
0.819229
0.808433
0.800411
0.794959
0.790828
0.788325
0.788418
0.791054
0.795173
0.800637
0.808953
0.819828
0.832631
0.84699
0.861892
0.88225
0.804268
0.802878
0.804505
0.802531
0.799069
0.794742
0.789679
0.784418
0.780397
0.778141
0.778256
0.78072
0.784951
0.790322
0.795289
0.799693
0.803207
0.805211
0.803609
0.805008
0.768013
0.768377
0.7699
0.77083
0.772197
0.772304
0.770666
0.76807
0.765596
0.764039
0.764189
0.766018
0.768708
0.77141
0.772895
0.772688
0.771617
0.770772
0.76928
0.768899
0.759972
0.760524
0.762369
0.763005
0.762759
0.761958
0.760987
0.759836
0.75855
0.757721
0.757911
0.759066
0.760606
0.761964
0.763139
0.764065
0.764119
0.763489
0.76171
0.761185
0.760489
0.760898
0.761928
0.762635
0.763041
0.763146
0.763008
0.762703
0.762643
0.762294
0.762509
0.763271
0.763674
0.76426
0.764583
0.764565
0.764109
0.763374
0.762393
0.761974
0.757587
0.757949
0.75853
0.759023
0.759447
0.759775
0.7599
0.759775
0.759511
0.759579
0.759847
0.760348
0.76104
0.761493
0.761628
0.761451
0.761009
0.760499
0.759913
0.759551
0.749528
0.749516
0.74955
0.749715
0.750054
0.750396
0.750683
0.750846
0.750806
0.750978
0.751351
0.75191
0.752465
0.752637
0.752554
0.752424
0.752352
0.752273
0.75221
0.752203
0.74248
0.742457
0.742472
0.742543
0.742622
0.742671
0.742746
0.742845
0.742963
0.743258
0.743739
0.744334
0.744879
0.745285
0.745544
0.745663
0.745694
0.745726
0.745773
0.745806
0.736364
0.736376
0.736405
0.736448
0.736524
0.736634
0.73677
0.736964
0.737256
0.737727
0.738459
0.739103
0.739604
0.73996
0.740216
0.740396
0.740485
0.740521
0.740525
0.740514
0.729991
0.730014
0.730049
0.730094
0.730184
0.730338
0.730562
0.730885
0.731347
0.731994
0.73288
0.733679
0.734273
0.734679
0.734945
0.735109
0.735198
0.735238
0.735246
0.735229
0.723261
0.723278
0.723328
0.723411
0.723532
0.723722
0.724017
0.724457
0.725087
0.725955
0.727009
0.72797
0.728671
0.729146
0.729459
0.729655
0.72977
0.729832
0.72986
0.729859
0.716365
0.716375
0.716424
0.716522
0.716685
0.71694
0.71733
0.717906
0.71873
0.719857
0.721179
0.722344
0.723191
0.723776
0.724164
0.724411
0.724559
0.724642
0.72468
0.724682
0.709269
0.709281
0.709339
0.709455
0.709657
0.709981
0.710482
0.711226
0.712288
0.713734
0.715405
0.716854
0.717907
0.718637
0.719121
0.719429
0.719616
0.71972
0.719769
0.719772
0.701851
0.701865
0.701937
0.702084
0.702339
0.702754
0.703396
0.704352
0.705714
0.707563
0.709681
0.711502
0.712824
0.713737
0.714344
0.71473
0.714965
0.715097
0.715159
0.715163
0.69401
0.694028
0.69412
0.694309
0.694637
0.69517
0.695996
0.697224
0.698972
0.701335
0.704023
0.706322
0.707985
0.709134
0.709896
0.710381
0.710676
0.710842
0.710921
0.710927
0.685629
0.685652
0.685772
0.686016
0.686441
0.68713
0.688195
0.689776
0.69202
0.695041
0.698456
0.701362
0.703459
0.704904
0.705861
0.706472
0.706842
0.707051
0.70715
0.707157
0.676545
0.676576
0.676732
0.67705
0.677603
0.678497
0.679878
0.68192
0.684807
0.688672
0.693011
0.696684
0.699325
0.701142
0.702345
0.703111
0.703576
0.703838
0.703962
0.70397
0.666539
0.666582
0.666789
0.667206
0.667931
0.6691
0.670899
0.673548
0.677272
0.68222
0.687729
0.692361
0.695683
0.697964
0.699473
0.700433
0.701015
0.701343
0.701498
0.701508
0.655305
0.655364
0.655642
0.656198
0.657158
0.658702
0.661066
0.664525
0.669345
0.675682
0.682658
0.688485
0.692651
0.69551
0.6974
0.698602
0.699331
0.699741
0.699934
0.699945
0.642424
0.642512
0.642897
0.643653
0.644945
0.64701
0.650151
0.654701
0.660961
0.66907
0.677871
0.685166
0.690373
0.693948
0.696312
0.697817
0.698729
0.699243
0.699484
0.699497
0.627292
0.627414
0.627945
0.628995
0.630774
0.633598
0.637841
0.64389
0.652049
0.662403
0.673439
0.682514
0.688993
0.693455
0.696421
0.698314
0.699464
0.700111
0.700413
0.700427
0.608898
0.609137
0.609963
0.611498
0.614053
0.61802
0.623855
0.631966
0.64261
0.65576
0.669482
0.680675
0.688682
0.694236
0.697961
0.700359
0.701826
0.702659
0.703057
0.703085
0.586117
0.586432
0.587644
0.59001
0.59382
0.599609
0.607816
0.618789
0.632654
0.649218
0.666081
0.679726
0.689536
0.696435
0.701151
0.704253
0.706187
0.707298
0.707819
0.707844
0.555707
0.556673
0.559126
0.563114
0.569236
0.577933
0.589605
0.604443
0.622353
0.642944
0.663359
0.679751
0.691624
0.700128
0.706096
0.710161
0.712804
0.714403
0.715232
0.715397
0.51588
0.517496
0.521711
0.529073
0.539286
0.552637
0.56932
0.589229
0.612029
0.637176
0.661428
0.680751
0.694885
0.705256
0.712814
0.718234
0.722025
0.72452
0.725919
0.726089
0.461446
0.463275
0.473135
0.487111
0.50391
0.524052
0.547401
0.573522
0.601912
0.63196
0.660114
0.682381
0.698862
0.711272
0.720682
0.727804
0.733173
0.737207
0.739848
0.739836
0.382456
0.393317
0.415746
0.439983
0.465846
0.494443
0.525325
0.5581
0.592292
0.627365
0.659525
0.684941
0.70414
0.71912
0.731081
0.740799
0.7488
0.755597
0.760645
0.76259
0.292165
0.323811
0.359556
0.393189
0.429012
0.466417
0.504871
0.54418
0.583918
0.623645
0.659492
0.687815
0.709514
0.726881
0.741191
0.753208
0.763367
0.771767
0.780208
0.786183
0.234708
0.270327
0.309997
0.351938
0.396305
0.441321
0.486681
0.53201
0.576666
0.620142
0.658484
0.688403
0.711272
0.729614
0.744738
0.757398
0.768094
0.777052
0.784299
0.788964
0.198466
0.232246
0.273802
0.32044
0.370051
0.420368
0.471154
0.52142
0.570087
0.616321
0.655906
0.686073
0.708851
0.726985
0.741831
0.754139
0.764423
0.773153
0.779916
0.784452
0.1704
0.204183
0.247799
0.297657
0.350155
0.404073
0.458882
0.512951
0.564657
0.612621
0.652247
0.681472
0.703177
0.720372
0.73446
0.746176
0.755984
0.764425
0.770937
0.775383
0.146524
0.18161
0.227264
0.279917
0.334681
0.391634
0.44969
0.50677
0.560713
0.609475
0.64802
0.675216
0.695012
0.710701
0.723689
0.734631
0.743886
0.751964
0.758219
0.76256
0.12578
0.162236
0.209736
0.264943
0.321988
0.381855
0.442852
0.502541
0.558221
0.607076
0.643546
0.667669
0.684725
0.698334
0.70986
0.719812
0.728401
0.736048
0.742026
0.746289
0.107371
0.145124
0.194386
0.251873
0.31122
0.373917
0.437732
0.499884
0.557076
0.605578
0.639118
0.659123
0.672547
0.683445
0.693116
0.701852
0.709655
0.716792
0.722404
0.727028
0.0905389
0.129661
0.180652
0.24022
0.301881
0.367336
0.43392
0.498535
0.557218
0.605164
0.635056
0.649859
0.658658
0.666121
0.673503
0.680802
0.687739
0.694388
0.69948
0.704192
0.074632
0.115224
0.167917
0.2295
0.293517
0.361709
0.431088
0.498274
0.558595
0.606003
0.631709
0.640144
0.643179
0.646359
0.650956
0.656574
0.662551
0.668798
0.673497
0.677573
0.0591507
0.101267
0.155659
0.219274
0.285708
0.356656
0.428921
0.498878
0.561132
0.608233
0.629435
0.630242
0.626171
0.624048
0.625318
0.629059
0.633964
0.63989
0.644462
0.648117
0.0437467
0.0874083
0.143516
0.209199
0.278098
0.351841
0.427116
0.5001
0.564706
0.611953
0.628587
0.620442
0.607605
0.598894
0.596251
0.59818
0.601964
0.60778
0.612417
0.616122
0.0281879
0.0734031
0.131251
0.199032
0.270421
0.346997
0.425404
0.501686
0.569156
0.617222
0.629493
0.611119
0.587353
0.570305
0.563069
0.563843
0.567403
0.573073
0.578039
0.581975
0.0123517
0.0591156
0.118724
0.188616
0.262495
0.34193
0.423563
0.503388
0.574277
0.62404
0.632495
0.602762
0.565262
0.53698
0.524626
0.525211
0.530176
0.536614
0.542389
0.547061
-0.00381917
0.0444843
0.105852
0.177845
0.254186
0.336478
0.421389
0.504949
0.579805
0.632315
0.637884
0.595859
0.541251
0.496356
0.479937
0.481734
0.490659
0.500253
0.507771
0.513453
-0.0203258
0.0294928
0.0926008
0.166671
0.245424
0.330545
0.418752
0.506175
0.585479
0.641906
0.646016
0.591168
0.51611
0.447107
0.424442
0.431713
0.44981
0.466891
0.478664
0.48741
-0.0371353
0.0141687
0.0789887
0.155105
0.236197
0.324077
0.415544
0.506888
0.590985
0.652498
0.65695
0.588678
0.488333
0.386071
0.351985
0.370266
0.405822
0.439314
0.459068
0.470361
-0.054155
-0.00142703
0.0650701
0.143177
0.226505
0.317029
0.411669
0.506941
0.596045
0.663741
0.671008
0.590098
0.454686
0.314812
0.253066
0.290068
0.362709
0.427017
0.460783
0.475676
-0.0712776
-0.017183
0.0509189
0.13094
0.216398
0.309429
0.407123
0.506269
0.600489
0.675212
0.687914
0.596367
0.419683
0.216143
0.111792
0.176844
0.318144
0.43493
0.493987
0.509255
-0.0884283
-0.0329978
0.0366375
0.118506
0.205982
0.301359
0.40193
0.504781
0.604086
0.686335
0.707047
0.609605
0.380659
0.0802714
-0.0921031
0.0341669
0.290684
0.485803
0.583165
0.532643
-0.105463
-0.0488648
0.022242
0.105906
0.195227
0.292751
0.395985
0.502351
0.606737
0.697097
0.728928
0.634306
0.341668
-0.11509
-0.43671
-0.217138
0.216859
0.518203
0.743765
0.876055
-0.122054
-0.0647929
0.00769787
0.0930113
0.183926
0.283387
0.38904
0.498687
0.608043
0.706934
0.752356
0.668148
0.305394
-0.369612
-0.987136
-0.680162
-0.112553
0.253208
0.416334
0.480155
-0.138245
-0.0804801
-0.00681622
0.0799149
0.172195
0.273406
0.381176
0.493715
0.607566
0.714603
0.775184
0.700495
0.326536
-0.504124
-1.26841
-1.03115
-0.497661
-0.219583
-0.0820036
0.0620087
-0.154272
-0.0958359
-0.0212049
0.0667296
0.160144
0.262844
0.372352
0.487298
0.604964
0.7192
0.794787
0.739384
0.400405
-0.409015
-1.07647
-0.95168
-0.657147
-0.477225
-0.345597
-0.199131
-0.17014
-0.110945
-0.0355133
0.0534685
0.14777
0.251665
0.362564
0.47944
0.600121
0.719938
0.807143
0.778536
0.492374
-0.163936
-0.687952
-0.663965
-0.54646
-0.505833
-0.463166
-0.360655
-0.186183
-0.126369
-0.050265
0.0396987
0.13478
0.239693
0.351744
0.47012
0.593011
0.716708
0.812571
0.809048
0.58808
0.0877283
-0.344066
-0.438435
-0.450907
-0.50546
-0.536909
-0.503444
-0.203348
-0.143013
-0.0661927
0.0247691
0.120723
0.226592
0.339657
0.459202
0.583593
0.709546
0.810823
0.827869
0.673376
0.309095
-0.0801072
-0.299226
-0.452952
-0.602985
-0.690783
-0.699683
-0.222276
-0.16125
-0.083518
0.00843407
0.105382
0.212211
0.326223
0.446655
0.571832
0.698394
0.801373
0.831715
0.726886
0.462164
0.106495
-0.233576
-0.494625
-0.731379
-0.890719
-0.953924
-0.243088
-0.181187
-0.102334
-0.00936347
0.0886766
0.196517
0.311397
0.432406
0.557704
0.683573
0.785303
0.821603
0.743448
0.524109
0.194995
-0.191145
-0.532539
-0.902907
-1.29406
-1.46
-0.265893
-0.20304
-0.122871
-0.028745
0.0704718
0.179352
0.29501
0.416394
0.541414
0.665834
0.764821
0.802245
0.737809
0.535647
0.21834
-0.16943
-0.560525
-1.04328
-1.75267
-2.38652
-0.290969
-0.226946
-0.145279
-0.0498183
0.0506592
0.160658
0.277141
0.398887
0.523417
0.646005
0.741712
0.777438
0.722435
0.536381
0.22414
-0.187696
-0.61232
-1.03151
-1.82888
-3.84202
-0.318631
-0.253163
-0.169848
-0.0728519
0.0290575
0.1403
0.257699
0.379763
0.503594
0.624086
0.716486
0.749017
0.700066
0.532481
0.235125
-0.172461
-0.606365
-0.864044
-0.959717
-1.62223
-0.349051
-0.281973
-0.196898
-0.098195
0.00526891
0.117763
0.236033
0.358269
0.481245
0.599585
0.689305
0.719221
0.673967
0.530864
0.275947
-0.0653344
-0.475887
-0.736103
-0.724376
-0.845393
-0.382283
-0.313368
-0.22639
-0.125885
-0.0208669
0.0928793
0.212028
0.334444
0.456702
0.573304
0.661397
0.691747
0.652152
0.537073
0.3452
0.064565
-0.306247
-0.644723
-0.759308
-0.746884
-0.418441
-0.347398
-0.258409
-0.15601
-0.0494163
0.0657647
0.185908
0.30869
0.430634
0.546034
0.633936
0.669029
0.642547
0.553913
0.413756
0.21068
-0.044713
-0.314232
-0.398892
-0.353453
-0.457547
-0.384005
-0.292923
-0.188471
-0.0801343
0.0367838
0.158049
0.281449
0.403487
0.518811
0.608571
0.650995
0.645526
0.592131
0.50056
0.383271
0.274588
0.158507
0.121085
0.143034
-0.499099
-0.422711
-0.329517
-0.222799
-0.112479
0.00639689
0.128905
0.2533
0.376269
0.492597
0.586187
0.638554
0.655292
0.642665
0.607863
0.561216
0.545449
0.534774
0.5421
0.56022
-0.54213
-0.462891
-0.367679
-0.258402
-0.145934
-0.0249744
0.0990429
0.22502
0.350006
0.468398
0.567018
0.632346
0.667141
0.686089
0.695885
0.695537
0.715932
0.738105
0.761623
0.781
-0.585288
-0.504037
-0.40682
-0.294742
-0.179986
-0.0568888
0.068969
0.196963
0.324147
0.447079
0.551589
0.628303
0.678666
0.717398
0.750806
0.775672
0.807775
0.837818
0.863097
0.883587
-0.627685
-0.545345
-0.446155
-0.330895
-0.21394
-0.0887532
0.0392819
0.169584
0.298957
0.426916
0.539169
0.625061
0.688976
0.740315
0.784926
0.821851
0.858837
0.89068
0.916464
0.935481
-0.66884
-0.585698
-0.484489
-0.365709
-0.246821
-0.119679
0.0108548
0.143721
0.276
0.407925
0.528983
0.623766
0.697044
0.756659
0.80751
0.850135
0.888572
0.920781
0.947268
0.964105
-0.707482
-0.623584
-0.520333
-0.397912
-0.277697
-0.148508
-0.0152866
0.12006
0.255707
0.391668
0.518979
0.621253
0.701227
0.766439
0.82098
0.866246
0.905115
0.937227
0.963924
0.980468
-0.741494
-0.65715
-0.551776
-0.426253
-0.305342
-0.173775
-0.0382919
0.0989003
0.237288
0.377014
0.508295
0.616114
0.700988
0.769896
0.826621
0.873141
0.912058
0.94482
0.970062
0.986484
-0.767254
-0.684272
-0.576216
-0.449582
-0.328361
-0.193715
-0.0576457
0.0806441
0.22053
0.362901
0.497171
0.60857
0.696343
0.767276
0.825237
0.872359
0.910584
0.943746
0.968625
0.984942
-0.782773
-0.700503
-0.59205
-0.46527
-0.344096
-0.207516
-0.0726789
0.0658743
0.205434
0.348964
0.48474
0.59775
0.686732
0.758256
0.816411
0.864538
0.9016
0.934959
0.95977
0.975913
-0.783563
-0.702922
-0.59497
-0.471028
-0.349864
-0.214339
-0.0825213
0.0554743
0.191373
0.334845
0.469898
0.582419
0.671061
0.742382
0.79971
0.848065
0.88509
0.917507
0.943107
0.958619
-0.76548
-0.687601
-0.580968
-0.463276
-0.342712
-0.213695
-0.0857565
0.0471959
0.181158
0.320009
0.451646
0.56146
0.648022
0.718018
0.774416
0.821551
0.859189
0.890874
0.916417
0.932288
-0.721218
-0.64855
-0.547275
-0.436763
-0.322341
-0.201867
-0.0810624
0.0441938
0.171726
0.303712
0.429175
0.533761
0.616307
0.68319
0.737711
0.783076
0.820259
0.851486
0.876657
0.893058
-0.642577
-0.577745
-0.487052
-0.387721
-0.285559
-0.177201
-0.0676961
0.0465143
0.163905
0.285804
0.401874
0.49838
0.574384
0.635914
0.686432
0.728813
0.764154
0.794445
0.819167
0.836202
-0.523151
-0.471726
-0.398637
-0.315607
-0.230258
-0.139183
-0.0450379
0.0544752
0.158162
0.266534
0.369841
0.455133
0.521564
0.574666
0.617849
0.653687
0.683548
0.709071
0.730383
0.745765
-0.343569
-0.317605
-0.2759
-0.218392
-0.157523
-0.08957
-0.0147336
0.0671615
0.154972
0.248469
0.338426
0.412322
0.468894
0.512922
0.547483
0.574819
0.596421
0.613596
0.626599
0.635909
-0.1565
-0.150312
-0.136593
-0.106153
-0.0738979
-0.0310592
0.0219821
0.084568
0.155708
0.23449
0.3119
0.375645
0.423858
0.460359
0.48776
0.507991
0.522399
0.532636
0.538168
0.541748
-0.0373377
-0.0340546
-0.0300386
-0.0150617
0.000225923
0.0255835
0.0605116
0.105456
0.160318
0.224218
0.288799
0.34219
0.381886
0.410841
0.431375
0.445393
0.454364
0.46008
0.462522
0.464244
0.0293697
0.0309409
0.0338051
0.042633
0.0521604
0.068649
0.0922158
0.124341
0.165783
0.216231
0.26875
0.312421
0.344414
0.367093
0.382601
0.392801
0.399154
0.40313
0.404958
0.406157
0.0684601
0.0689295
0.0707334
0.0763666
0.0836694
0.0958426
0.113204
0.137224
0.168948
0.208581
0.250705
0.285958
0.31165
0.329703
0.341981
0.350073
0.355162
0.358303
0.359796
0.360585
0.0936475
0.0938924
0.0950822
0.098574
0.103941
0.112951
0.126123
0.144608
0.169321
0.20062
0.234294
0.262642
0.283321
0.297853
0.307735
0.314229
0.318281
0.320691
0.321837
0.322404
0.110479
0.110778
0.111723
0.114051
0.117926
0.124441
0.134284
0.148433
0.167691
0.192422
0.219301
0.24204
0.258636
0.270266
0.278124
0.283234
0.286391
0.288235
0.289131
0.289594
0.120889
0.12119
0.121972
0.123693
0.126612
0.131432
0.138817
0.149604
0.16454
0.184006
0.205385
0.223548
0.236791
0.246033
0.252242
0.256257
0.258735
0.260178
0.260891
0.261268
0.126293
0.126643
0.127256
0.128564
0.130815
0.134488
0.140133
0.148427
0.160026
0.175313
0.192256
0.206705
0.217237
0.224573
0.229492
0.23267
0.234632
0.235773
0.236338
0.236636
0.128167
0.128418
0.128904
0.129913
0.131655
0.134487
0.138851
0.145281
0.154323
0.166329
0.179729
0.191196
0.199559
0.205383
0.209286
0.211804
0.213359
0.214261
0.214707
0.214941
0.127305
0.127499
0.127881
0.128661
0.13001
0.132201
0.135584
0.140586
0.147651
0.157085
0.167672
0.176758
0.183389
0.188006
0.191098
0.193092
0.194321
0.195034
0.195386
0.195571
0.124349
0.124498
0.124796
0.125402
0.12645
0.128152
0.130782
0.13468
0.140207
0.14762
0.155976
0.163165
0.168414
0.172068
0.174514
0.176091
0.177063
0.177626
0.177903
0.178049
0.119757
0.119873
0.120107
0.120579
0.121396
0.122721
0.124772
0.127816
0.132143
0.137967
0.144555
0.150235
0.154384
0.157273
0.159207
0.160454
0.161222
0.161667
0.161885
0.162
0.113897
0.113988
0.114171
0.114539
0.115177
0.116211
0.117813
0.120194
0.123584
0.128158
0.133347
0.137829
0.141106
0.143388
0.144916
0.1459
0.146506
0.146857
0.147028
0.147119
0.10705
0.107121
0.107264
0.107551
0.108049
0.108857
0.11011
0.111972
0.114629
0.11822
0.122304
0.125836
0.128421
0.130221
0.131427
0.132203
0.13268
0.132956
0.133091
0.133162
0.0994342
0.0994896
0.0996012
0.0998259
0.100215
0.100846
0.101825
0.103283
0.105363
0.108181
0.111391
0.114172
0.116207
0.117624
0.118573
0.119183
0.119558
0.119775
0.119881
0.119937
0.0912134
0.0912562
0.0913433
0.0915187
0.0918225
0.0923157
0.0930805
0.0942195
0.0958473
0.0980554
0.100575
0.102759
0.104357
0.10547
0.106215
0.106694
0.106989
0.107159
0.107242
0.107286
0.082526
0.0825597
0.0826277
0.0827646
0.0830015
0.0833862
0.0839828
0.084872
0.0861438
0.0878701
0.0898415
0.0915516
0.0928035
0.0936753
0.0942587
0.0946341
0.0948649
0.0949981
0.0950628
0.0950968
0.0734723
0.0734976
0.0735498
0.0736555
0.0738389
0.0741373
0.0746006
0.0752917
0.0762808
0.0776248
0.0791612
0.0804947
0.0814712
0.0821513
0.0826066
0.0828996
0.0830797
0.0831836
0.0832338
0.0832619
0.0641287
0.064149
0.0641899
0.064272
0.0644141
0.0646451
0.0650037
0.0655384
0.0663033
0.0673424
0.068531
0.0695639
0.0703209
0.0708485
0.0712016
0.0714288
0.0715683
0.0716486
0.0716874
0.0717071
0.0545801
0.0545952
0.0546261
0.0546888
0.0547974
0.0549739
0.0552478
0.0556562
0.056241
0.0570364
0.0579465
0.0587366
0.0593152
0.0597181
0.0599875
0.0601606
0.0602667
0.0603277
0.060357
0.0603727
0.0448448
0.0448559
0.044879
0.0449257
0.0450067
0.0451385
0.0453429
0.0456476
0.0460833
0.0466766
0.0473589
0.0479537
0.0483896
0.0486933
0.0488966
0.0490274
0.0491078
0.049154
0.0491759
0.0491871
0.0349956
0.0350064
0.0350255
0.0350615
0.035122
0.035219
0.0353684
0.0355901
0.0359071
0.036337
0.0368275
0.0372554
0.0375695
0.0377884
0.0379346
0.0380281
0.0380851
0.0381176
0.038133
0.0381401
0.0250719
0.0250786
0.0250895
0.0251118
0.0251506
0.0252137
0.0253117
0.0254579
0.0256685
0.0259561
0.0262835
0.0265679
0.0267767
0.0269229
0.0270214
0.0270852
0.0271252
0.0271492
0.0271623
0.0271701
0.0150441
0.0150466
0.0150512
0.0150623
0.0150823
0.0151155
0.0151677
0.0152465
0.0153604
0.0155183
0.0157066
0.0158744
0.0159982
0.016085
0.0161444
0.016184
0.0162096
0.0162253
0.0162331
0.0162402
0.00498873
0.00498964
0.00499117
0.00499613
0.00500392
0.00501585
0.00503416
0.00506194
0.00510248
0.00515929
0.00522563
0.00528063
0.00532056
0.00534879
0.00536773
0.00538008
0.00538782
0.0053924
0.00539399
0.00539556
-1.75407
-0.909916
-0.766734
-0.485014
-0.306169
-0.110831
0.0883553
0.370324
0.706854
0.943159
-0.851822
-0.387223
-0.408479
-0.171546
-0.0329466
0.136082
0.307077
0.506868
0.626569
0.5574
-0.383662
-0.120131
-0.110406
0.0696563
0.169238
0.306971
0.425999
0.535661
0.564921
0.552885
-0.0697935
0.0993269
0.118736
0.249713
0.314591
0.415974
0.478159
0.54214
0.540891
0.559927
0.148671
0.261916
0.27682
0.372299
0.409894
0.489786
0.511039
0.564671
0.554203
0.585343
0.300443
0.382886
0.39542
0.467902
0.490248
0.546102
0.562494
0.597244
0.596138
0.625276
0.423234
0.483239
0.501312
0.548061
0.573594
0.606306
0.624913
0.647643
0.652548
0.677427
0.531857
0.577733
0.597773
0.628684
0.652141
0.67157
0.68801
0.702434
0.71074
0.729717
0.625918
0.65881
0.676788
0.69384
0.710592
0.722879
0.735433
0.747736
0.754269
0.773325
0.70176
0.719893
0.731973
0.742881
0.756001
0.767194
0.779457
0.79338
0.80292
0.821792
0.765294
0.780442
0.7926
0.804559
0.819022
0.832895
0.846876
0.863297
0.873388
0.891525
0.852484
0.86971
0.887151
0.900481
0.914683
0.92863
0.940016
0.949951
0.955911
0.969561
0.968466
0.978729
0.993867
1.00451
1.01171
1.01921
1.02524
1.03082
1.03292
1.04178
1.07196
1.07444
1.08175
1.08625
1.08746
1.08995
1.09555
1.10271
1.10676
1.11807
1.17357
1.16131
1.15462
1.14945
1.14757
1.14909
1.15574
1.16765
1.18217
1.20967
1.29571
1.24156
1.21053
1.19208
1.18431
1.1849
1.19379
1.21361
1.2447
1.313
)
;

boundaryField
{
    wall-4
    {
        type            zeroGradient;
    }
    pressure-outlet-7
    {
        type            fixedValue;
        value           uniform 0;
    }
    velocity-inlet-6
    {
        type            zeroGradient;
    }
    velocity-inlet-5
    {
        type            zeroGradient;
    }
    frontAndBackPlanes
    {
        type            empty;
    }
}


// ************************************************************************* //
