/*--------------------------------*- C++ -*----------------------------------*\
  =========                 |
  \\      /  F ield         | OpenFOAM: The Open Source CFD Toolbox
   \\    /   O peration     | Website:  https://openfoam.org
    \\  /    A nd           | Version:  9
     \\/     M anipulation  |
\*---------------------------------------------------------------------------*/
FoamFile
{
    format      ascii;
    class       volScalarField;
    location    "35";
    object      p;
}
// * * * * * * * * * * * * * * * * * * * * * * * * * * * * * * * * * * * * * //

dimensions      [0 2 -2 0 0 0 0];

internalField   nonuniform List<scalar> 
918
(
0.619735
1.27133
0.0138611
0.61905
0.00979778
1.23838
-0.438569
0.786906
0.59987
-0.0285298
0.0339898
0.594689
1.09894
0.865087
-1.06497
0.0877585
0.737759
-0.318405
0.598873
0.0207865
0.821624
0.606464
0.609498
0.600087
0.661873
0.846609
0.979791
0.00434098
-0.0130415
-0.00798515
0.0759307
0.0619447
0.0592445
1.12202
1.17312
1.1958
0.568255
0.393861
-0.298301
-0.368534
-0.361213
-0.485049
0.778452
0.780664
-0.107263
0.788231
0.797854
0.587096
0.599231
0.600117
0.601222
0.600167
0.601565
0.475982
-0.0342926
-0.0670367
-0.00813795
0.00305896
0.136183
0.0357774
0.0328015
0.0360525
0.0410971
0.519407
0.590634
0.587796
0.599706
0.607862
1.21088
1.18278
1.20893
1.12263
1.13913
1.0769
1.04956
0.885693
0.907512
0.850962
0.839878
-1.50312
-2.46603
-0.468729
-0.214041
-0.017526
0.08743
0.093122
0.728788
0.727752
0.739096
0.751391
1.145
-0.313664
-0.436329
0.599001
0.597797
0.606193
0.606888
0.6029
0.601995
0.0271873
0.032537
0.000580928
0.0173014
0.0161255
0.810903
0.809414
0.600631
0.597652
0.615141
0.635818
0.627667
0.352173
0.665966
0.678762
0.668021
0.835916
0.830579
0.839035
0.953177
0.916936
1.01702
1.04011
-0.023276
-0.0387494
0.0733594
0.0697486
0.0858162
0.564207
0.556971
0.583005
0.571608
0.574014
0.309457
0.174418
0.479601
0.504931
-0.209033
-0.271132
-0.372995
-0.391318
-0.50335
0.668985
0.768586
0.768485
-0.127593
-0.0490758
-0.183941
0.0240283
-0.0361285
0.577516
0.584421
0.579483
0.594847
0.589357
0.591301
0.603456
0.600532
0.602094
0.539621
0.663461
0.401981
0.368652
-0.178901
-0.0864175
-0.181076
0.0151476
0.0206557
0.146176
0.172753
0.125094
0.114364
0.0258852
0.0327498
0.0292453
0.0477402
0.0457347
0.512557
0.502071
0.531637
0.538842
0.581047
0.582132
0.585283
0.583888
1.00025
1.02255
1.03024
1.00405
-3.46775
-6.27191
0.11548
0.254432
-0.0636464
-0.0454403
-0.0362857
0.0690091
-0.000306126
0.00799782
0.0908231
0.0863162
0.0890768
0.0912731
0.713367
0.712554
1.06244
1.06083
1.04564
0.994336
0.587062
0.589186
0.594763
0.590599
0.0432615
0.0337393
0.0423184
0.797737
0.805015
0.804256
0.315565
0.229901
0.400908
0.428321
0.699149
0.683304
0.696605
0.728958
0.766278
1.04755
1.06588
1.06405
1.07256
1.11661
1.13302
1.09838
0.544374
0.553955
0.549135
0.586216
0.583903
0.584848
0.580315
0.581813
0.579578
0.0222508
-0.36151
0.559568
0.57637
0.553887
0.561575
0.747223
0.821272
0.751081
0.760474
0.759678
0.0896952
0.0330357
0.326596
0.291676
0.455092
0.489766
0.469796
0.971456
0.932005
0.982058
0.955268
0.916763
0.942068
-0.313216
-1.82765
-0.938292
0.610109
0.420771
0.509574
0.100653
0.0913738
0.0971995
1.05506
1.13423
0.719924
0.885611
0.895625
0.805592
0.835452
0.890346
0.816438
0.85044
0.885241
0.865784
0.62539
0.57285
0.581593
0.889746
0.944884
0.203962
0.149627
0.105482
0.192643
0.246484
0.221461
1.09934
1.00117
1.07257
0.597399
0.598091
-0.0196364
0.0016145
0.602218
0.602263
0.0689019
0.0835358
0.491898
-0.774766
0.193249
0.590695
0.580974
0.59788
-0.0097829
0.433828
0.0300916
0.132801
0.0915935
0.592116
0.529627
0.490741
-0.00411716
0.0856832
0.0294571
-0.140389
0.595073
0.593383
0.597341
0.598331
0.598988
-0.00920999
-0.00194409
-0.040153
0.0174541
0.0161563
0.0149265
0.562662
0.579775
-0.0935206
0.597458
0.59959
0.599401
0.592556
0.598253
0.596456
0.0791448
0.074873
0.0725889
0.300379
0.420994
0.739268
0.834465
0.704923
0.477872
0.239097
0.638628
0.704446
0.606666
0.765456
0.761643
0.780701
0.256397
0.10908
0.264621
0.206748
0.588561
0.587205
0.579206
0.57632
0.592732
0.590836
0.595383
0.592332
0.595322
0.596738
0.0278423
0.00613698
-0.00854969
-0.0706158
0.390282
0.650998
0.327779
0.359012
0.224087
0.0418948
0.0414185
0.0289684
0.0268519
0.0816743
0.0758608
0.128826
0.134513
0.110882
0.089784
0.0766759
0.073169
0.0663113
0.585888
0.584469
0.590555
0.599267
0.538893
0.542703
0.509078
0.528758
0.514942
0.455669
0.490179
0.465745
0.0475865
0.0315232
0.0273412
0.0799007
0.0856946
0.0280001
0.0159832
0.0159173
0.0296202
0.0305013
0.0411313
0.0430989
-0.0988065
-0.211412
1.04973
0.987762
0.190711
0.584272
0.590688
0.587477
0.592282
0.595383
0.596226
0.593989
0.59057
0.580348
0.582133
0.57853
0.579186
-0.0317658
-0.169062
0.00517557
-0.0627327
0.203541
0.692567
0.433869
0.37401
0.368194
0.590145
0.989699
0.785252
0.780317
0.802836
-0.279113
0.117642
-0.211986
0.406638
0.228822
0.736641
0.78756
0.810151
0.757099
0.708501
-0.0479907
0.612142
0.0165035
0.0620125
0.255235
0.146654
0.781414
0.744989
0.7507
0.768429
0.787693
0.750509
0.73089
0.726125
0.764205
0.768048
0.566055
0.333479
0.288729
0.249693
0.72842
0.606838
0.664294
0.576609
0.583481
0.58628
0.584848
0.567312
0.574646
0.570354
0.576135
0.579355
0.588476
0.588822
0.584229
0.586412
0.0262015
0.0250469
0.0419259
-0.0650467
-0.0536575
-0.113617
0.00378199
0.142907
0.106267
0.300344
0.406699
0.119735
0.00401255
0.0334779
0.065938
0.245087
0.269734
0.148324
0.24238
0.224141
0.210374
0.314016
0.322508
0.0577569
0.0486009
0.0472134
0.0460573
0.102703
0.172691
0.18327
0.0835527
0.0754978
0.0419545
0.0485203
0.0540341
0.0511185
0.0530006
0.0912598
0.00684846
0.0663152
0.084763
0.086118
0.0815182
0.0765169
0.579153
0.581102
0.580885
0.588489
0.605103
0.620401
0.580151
0.560668
0.551639
0.554613
0.528261
0.538179
0.534378
0.547175
0.56751
0.576164
0.574341
0.57685
0.56023
0.561599
0.548947
0.552701
0.528941
0.510565
0.49893
0.0211427
0.0203845
0.0309428
0.0287697
0.0427619
0.0432449
0.0887161
0.102943
0.0851553
0.0865487
0.0778818
0.0437247
0.0474658
-0.00698952
0.0712336
-0.114511
-0.14676
-0.215418
0.953958
1.07364
0.878739
0.654887
0.667273
0.906231
0.992218
0.617463
0.800719
0.824228
0.64145
0.905496
0.5891
0.58868
0.586274
0.585763
0.586999
0.0572076
0.157994
0.166824
0.221188
0.335749
0.448956
0.374606
0.250041
0.383204
0.387918
0.687903
0.703452
0.651412
0.674853
0.672349
0.500327
0.578573
0.633755
0.586088
0.6324
0.654917
0.615592
0.646135
0.591626
0.547918
0.546258
0.493701
0.514543
0.492849
0.474795
0.578623
0.556468
0.566844
0.557873
0.57709
0.602768
0.598492
0.626933
0.637938
0.56197
0.521566
0.531355
0.560072
0.52047
0.533827
0.549537
0.287098
0.186673
0.270583
-0.0215294
0.059413
0.0442674
-0.00282403
0.0427532
0.328753
-0.369812
-0.342613
-0.975481
0.551653
1.0206
0.73482
0.707059
0.783445
0.762275
0.764994
0.787801
0.794753
0.717941
0.736225
0.739721
0.696605
0.720132
0.742903
0.740519
0.586032
0.460176
0.451629
0.411268
0.28574
0.319527
0.522123
0.444678
0.370833
0.374046
0.536652
0.425235
0.491554
0.530109
0.461698
0.416771
0.620714
0.68724
0.677335
0.652507
0.568422
0.581915
0.606989
0.643078
0.670224
0.702283
0.575952
0.581724
0.583006
0.580479
0.577688
0.580607
0.580698
0.583209
0.584065
0.586971
0.585958
0.0346582
0.0463365
0.0355292
0.0278789
0.0520579
0.0469701
0.0918334
0.0787426
0.0668626
0.073915
0.0462278
0.042466
0.0479925
0.0574451
0.166933
0.181264
0.167091
0.127174
0.312723
0.445279
0.514549
0.391608
0.285587
0.31047
0.333955
0.0631508
0.0926197
0.077522
0.118171
0.108219
0.0561221
0.0452321
0.0483611
0.0563958
0.0686828
0.0489787
0.0576246
0.0614286
0.0547688
0.0488655
0.0409353
0.56273
0.556329
0.55744
0.551708
0.550731
0.564137
0.568496
0.570211
0.575518
0.577466
0.568105
0.57347
0.577004
0.0823044
0.0562305
0.0559018
0.0633163
0.0618373
0.0607228
0.0613084
0.184364
0.110406
0.115897
0.0724186
-0.0527575
0.0036108
0.548768
0.546698
0.545493
0.776613
0.627823
0.54729
0.643611
0.749618
0.333488
0.532073
0.365385
0.945425
0.838455
0.983919
0.601724
0.300206
0.454538
0.504774
0.314127
0.386583
0.391506
0.281026
0.312536
0.344295
0.444717
0.323463
0.297902
0.0564248
0.244977
0.360633
0.34178
0.469273
0.531977
0.320828
0.240598
0.195488
0.679946
0.699217
0.719006
0.689056
0.713647
0.638005
0.628594
0.646611
0.654385
0.649521
-0.703971
-0.412037
-1.35601
-0.67119
-0.222036
0.58081
0.54474
0.822898
0.710902
0.775321
0.760686
0.720894
0.68716
0.698639
0.731162
0.42995
0.540647
0.514898
0.5209
0.422738
0.355976
0.655766
0.649906
0.685631
0.709822
0.677575
0.710691
0.573652
0.573287
0.572961
0.569405
0.567799
0.569951
0.129221
0.0998738
0.13207
0.115456
0.0937515
0.0814881
0.0784063
0.0716434
0.0682089
0.0654439
0.0827285
0.0803036
0.226309
0.167935
0.0904563
0.121338
0.0610682
-0.00535743
-0.0236058
0.0760318
0.168816
0.159007
0.464111
0.714922
0.536437
0.70467
0.544222
0.59979
0.535602
0.526482
0.55486
0.439396
0.519162
0.280244
-0.222086
-0.131114
0.837774
0.856421
0.637835
0.451606
0.222879
0.412197
0.612502
0.548536
0.586951
0.65595
0.648102
0.0674192
0.13496
0.393345
0.621364
0.291358
0.28283
0.277868
0.451675
0.376641
)
;

boundaryField
{
    wall-4
    {
        type            zeroGradient;
    }
    velocity-inlet-5
    {
        type            zeroGradient;
    }
    velocity-inlet-6
    {
        type            zeroGradient;
    }
    pressure-outlet-7
    {
        type            fixedValue;
        value           uniform 0;
    }
    wall-8
    {
        type            zeroGradient;
    }
    frontAndBackPlanes
    {
        type            empty;
    }
}


// ************************************************************************* //
