/*--------------------------------*- C++ -*----------------------------------*\
  =========                 |
  \\      /  F ield         | OpenFOAM: The Open Source CFD Toolbox
   \\    /   O peration     | Website:  https://openfoam.org
    \\  /    A nd           | Version:  9
     \\/     M anipulation  |
\*---------------------------------------------------------------------------*/
FoamFile
{
    format      ascii;
    class       surfaceScalarField;
    location    "35";
    object      phi;
}
// * * * * * * * * * * * * * * * * * * * * * * * * * * * * * * * * * * * * * //

dimensions      [0 3 -1 0 0 0 0];

internalField   nonuniform List<scalar> 
1300
(
3.75095
5.62643
-3.09276
3.75095
-6.04737
5.62643
-4.43977
4.43977
-0.961419
0.961419
1.87643
1.87452
-2.94354
2.94354
-2.36105
2.36105
-2.55823
2.55823
-5.24649
5.24649
-5.06895
5.06895
4.6676
-4.6676
-5.97717
5.97717
-1.32045
1.32045
-3.81093
3.81093
3.16979
-3.16979
-2.28324
2.28324
-0.25485
0.25485
-0.553525
4.30448
3.19743
3.19743
-2.0439
2.0439
-4.8637
4.8637
6.21821
-6.21821
4.60528
-4.60528
-1.51252
-2.26714
0.852836
-10.4897
-5.19453
-5.19453
-8.44039
8.44039
-2.81396
2.81247
2.94381
-2.94381
-1.7788
1.7788
-4.37934
-0.0604262
-4.37934
4.43021
0.00955732
4.43021
-1.05616
0.0947367
-1.05616
3.91826
-3.91826
0.830401
0.131018
0.830401
3.06479
-3.06479
-1.87705
3.75348
1.8739
-1.87186
6.17634
-1.87909
3.75362
-5.95824
5.95824
-3.16314
0.219598
-3.16314
2.76413
0.179412
2.76413
-6.74442
6.74442
-2.39928
0.0382286
-2.39928
2.37197
-0.0109202
2.37197
2.86773
-2.86773
-2.65777
0.0995377
-2.65777
2.44951
0.108719
2.44951
0.353536
5.27289
-5.97997
8.79244
-5.27289
0.0264029
5.20843
0.0380569
5.20843
-5.10604
0.0370855
-5.10604
5.01098
0.057968
5.01098
4.75812
-0.0905179
4.75812
-4.78275
0.115157
-4.78275
-3.74245
-5.04811
-6.20897
0.231794
-6.20897
-1.32085
0.000406056
-1.32085
1.27768
0.0427708
1.27768
-3.60738
3.60738
-4.19955
0.388621
-4.19955
3.1242
0.0455829
3.1242
1.8685
1.88245
5.61945
-5.61945
2.44967
-2.32402
0.0407823
-2.32402
-2.31435
-2.29093
2.31435
-0.0311105
-0.516875
0.262026
-0.516875
3.15928
0.038147
3.15928
2.29157
0.157935
-2.29157
0.247675
3.2146
-3.2146
1.39612
0.647777
1.39612
-5.56612
5.56612
4.95367
0.0573093
-4.95367
0.0899754
6.15693
0.0612778
6.15693
-6.19954
-0.0186681
-6.19954
2.15721
-4.42435
-2.71001
5.64508
0.332095
-5.64508
0.450546
2.91423
0.0295775
2.91423
-2.92091
2.92091
-2.98311
0.0393046
-2.98311
-2.18116
0.402364
-2.18116
1.47706
0.301735
1.47706
-4.24658
-0.132757
-4.24658
-4.34589
0.146341
4.34589
0.08432
1.09314
-1.09314
-1.16749
0.111337
-1.16749
-4.07293
-0.173657
4.07293
-0.154666
-3.79126
-0.126997
-3.79126
-3.0235
0.0403912
3.0235
0.0412866
3.1126
0.0466817
-3.1126
0.0478107
-1.87083
3.75328
-1.88012
3.75403
-5.57542
-0.382817
-5.57542
6.26635
-0.30811
6.26635
3.50437
0.306554
-3.50437
0.341237
2.62602
0.138106
2.62602
-6.7165
-0.0279256
-6.7165
6.7148
0.0296258
6.7148
2.50257
0.123453
-2.50257
0.103286
2.3482
0.0237713
2.3482
2.88255
-0.0148164
2.88255
-2.86548
-0.00225026
-2.86548
2.80051
-2.80051
2.7332
0.0673114
-2.7332
0.0754334
-11.133
11.1143
-0.0352731
-11.0977
5.17316
5.17316
4.18711
0.57101
4.18711
-4.99723
0.214477
-4.99723
2.95597
-5.66598
3.97722
-7.71967
5.31319
-15.8029
4.05256
-9.10067
6.54209
-6.54209
6.39342
0.148667
-6.39342
0.184458
-1.34689
0.0260371
-1.34689
-3.00082
-0.606557
-3.00082
4.2609
-0.653518
4.2609
-3.02891
3.02891
-3.07789
0.048982
3.07789
0.0463147
2.35527
-0.00706392
-2.35527
0.0312449
0.678045
0.152356
-0.678045
0.16117
3.40239
-0.187783
3.40239
-3.03601
-0.17859
-3.03601
-1.37037
0.0234796
1.37037
0.0257525
-5.81573
0.249615
-5.81573
-11.1907
0.0929484
-11.1526
-6.10659
-6.10659
2.3338
11.1262
-2.88709
0.0216064
2.88709
0.0271418
2.97602
0.0528847
-2.97602
0.0551127
-2.86265
0.0621392
2.86265
0.0582593
-2.5593
0.378135
-2.5593
-1.06826
1.06826
-1.241
0.172741
1.241
0.236062
1.34676
-0.253611
1.34676
1.23489
0.0427826
-1.23489
0.0674006
-3.68068
-0.110582
-3.68068
6.48956
-0.223208
6.48956
-2.93657
-0.0994475
2.93657
-0.0540184
-0.0332862
11.1476
-5.13988
0.0338391
5.13988
-11.2089
11.2428
-3.23363
0.674334
3.23363
0.953473
5.28781
0.278305
-5.28781
0.290578
6.654
0.0607975
-6.654
0.111908
-2.5112
-0.489624
-2.5112
-4.99147
-0.583958
4.99147
-0.730567
-11.4756
-0.203456
11.679
-11.4176
6.01919
0.137748
-6.01919
11.3805
-1.00832
-0.0848275
1.00832
0.0599454
1.66366
-0.316905
1.66366
3.58011
-0.177728
-3.58011
-0.100566
-6.63388
-0.0826212
6.63388
-0.144316
-2.07298
-0.438218
2.07298
-0.409321
-4.26697
4.30512
1.90936
-2.27684
-2.14751
-4.56777
1.85198
1.9013
4.30165
-10.1317
-5.67113
-9.68119
7.26602
-6.97544
-9.27001
9.1795
7.63641
-7.76341
-5.7853
5.83161
6.48223
-6.44094
1.87864
1.87484
7.89398
-7.67438
-15.6935
15.3107
7.48585
-7.44762
15.8182
-15.8461
-17.8424
17.9032
-5.71871
5.81825
-6.72587
6.72362
-6.94696
6.89294
-3.52468
-4.19498
13.0643
-12.8325
8.02704
-7.98626
-8.51362
8.90224
3.38247
0.922646
3.42916
-1.88229
3.76092
-1.87133
3.7807
2.79242
-6.3171
2.87356
-5.02108
3.69386
4.33318
-3.66275
-0.905019
-5.91912
5.9487
-5.82127
5.87952
8.97518
-9.03561
-1.88519
3.76003
-1.86884
3.77014
-3.42518
-2.36011
3.3796
0.92205
7.88757
5.17676
-8.21967
-1.46152
-7.88275
7.70502
-8.16017
7.98158
-0.44156
5.82033
-5.37877
4.42214
-1.55776
7.37809
5.70826
5.92274
5.86643
-5.58812
1.10902
-6.48778
-6.39781
-2.52844
2.63978
2.4594
-2.32838
5.9902
1.64621
5.83554
-5.59078
-2.17263
-5.70136
3.82115
2.01046
3.87014
4.07674
2.40549
4.11713
3.03084
-3.03577
0.0049215
-3.05634
6.08719
0.724265
-5.41646
-4.49441
4.93937
2.95461
5.11878
-5.47788
-2.1965
-5.13664
-9.5724
-6.12112
-10.1564
10.1282
5.18252
9.82008
-11.9987
11.8544
4.77816
2.70769
4.76724
-4.92872
-2.5189
-4.82544
11.656
-2.5741
-9.0819
-10.3228
-7.51965
10.2931
5.52505
10.9286
6.97462
11.0405
4.42133
7.23466
-9.94638
2.42673
-3.86783
-1.85088
-3.7924
3.69009
2.12815
3.79881
-4.21308
-2.51278
-4.19148
-4.28699
-2.65997
4.3018
2.42181
-4.40123
-3.75893
4.50068
2.39226
4.64185
-10.313
4.45881
-8.6538
-9.17493
-3.65761
-8.99047
3.67901
3.03514
-6.71414
-2.6381
8.56419
-4.23101
7.65917
-4.84009
-3.14617
-4.80885
-6.80806
-1.70556
-6.66172
-8.89595
8.40632
-9.20715
8.55363
12.6408
-5.70771
-6.93305
-3.96817
-2.47277
3.92036
-0.491205
-3.71096
3.71588
0.0499661
3.83066
4.75331
4.2621
-3.88702
-1.93425
-3.83191
3.83212
2.04741
3.89426
6.75641
2.21878
6.76596
-6.46986
-2.56575
-6.60261
9.07001
-8.66765
2.89237
-2.86889
5.30753
2.67405
-5.11975
-2.763
6.20868
-3.15988
-3.04881
-12.2087
10.5572
1.65153
-4.83061
-0.408475
-0.153626
-5.49902
-3.77099
5.38387
0.538873
11.096
7.32506
-5.51213
5.76174
6.16688
6.22419
-0.173618
5.83253
-5.1582
5.31664
-2.43044
-2.88619
5.32405
-5.49771
-1.27856
-5.35386
4.0753
0.337828
1.7228
-1.46078
-1.98823
-0.540209
-1.92083
1.47649
0.982908
1.62885
0.961849
1.67793
-2.95578
0.555719
2.40006
-1.99394
-1.77266
-3.69496
-1.05162
4.74659
5.5997
2.10531
-5.49914
-0.202225
2.67826
-2.63549
-0.764511
-2.93045
2.14588
-2.91039
-3.64947
-1.89891
5.54837
-3.37067
-0.461236
3.31779
0.552349
-3.8255
-2.09362
3.7862
0.330934
-3.12479
6.19046
-3.06567
-5.05904
2.52869
3.5585
4.53915
-4.78984
2.44643
2.34341
-1.23135
4.22348
0.895304
4.36158
-6.75744
4.56094
5.74664
3.1556
-6.05319
0.916547
-5.84089
8.45213
-7.2783
-1.17383
4.07098
4.38115
7.1497
5.49106
-5.71867
12.8684
-1.1573
-6.121
6.99819
-3.84259
4.78363
-8.62622
-10.2747
4.15369
-9.24191
11.0113
-1.76936
-3.62255
-8.37612
12.8645
-1.22075
-11.6437
8.59933
-4.19247
-4.25538
8.44785
-6.76657
6.77428
-1.95693
-4.81735
-10.141
-5.70506
10.2237
1.63069
-9.82678
12.2535
-2.59212
4.06275
0.704498
4.08652
3.24594
-5.39093
2.14499
3.52063
-5.47756
2.06913
-7.46007
-6.82027
12.2164
-5.39613
-10.4779
-9.57116
-0.906726
2.49626
9.75724
-9.47088
7.37246
2.09842
3.30949
0.584769
-3.3768
-0.415598
0.259079
4.53464
-4.79372
4.05789
4.21583
3.34953
1.18512
3.84008
2.10862
-3.86722
-0.324251
-4.1558
1.49583
-1.73398
-3.66883
5.16466
-4.06311
0.394274
-2.73378
-3.50893
6.24271
-4.58466
3.03942
3.15104
5.08683
-4.91267
1.40374
-2.40096
-2.51172
2.65936
-4.39335
1.96385
3.20081
4.35611
0.597174
6.06422
6.15218
-9.09935
0.445558
11.3289
-9.86742
2.50324
8.53726
-9.8757
0.30454
-8.68593
1.30227
-5.53329
-5.41187
5.10796
-6.81351
-3.51826
6.1477
0.61826
-6.23202
-0.429699
-6.04355
-2.85239
-6.48177
-3.06038
-6.14677
-8.77905
-1.65299
-7.12606
6.75333
-6.69847
-3.45789
7.42904
1.12459
-7.40778
7.32296
-7.48876
7.17185
0.0948606
3.62102
4.35696
1.88419
-2.38967
4.27386
-5.091
7.30977
-8.60164
3.51065
4.0559
-6.62165
-4.54574
5.03374
4.03627
5.33547
8.92745
-10.4397
1.51225
-10.7368
12.0691
-1.33229
-16.5126
5.7758
-7.58513
2.6164
0.275976
2.64243
0.634918
2.45779
-3.09271
-2.23398
-2.20822
-2.35837
-3.45265
5.81101
1.16624
-3.45023
2.28399
-3.5079
4.67414
-0.0799714
-3.37026
5.30196
-2.84418
5.57794
-3.58787
1.99007
3.36451
5.72862
-2.36411
4.37302
-1.69897
1.84262
-4.20674
-1.61002
-2.96744
5.09559
-3.27528
3.66955
-0.301866
3.97142
-4.08265
0.922777
-0.733127
3.4827
3.73038
4.28297
-3.09785
2.97257
-4.67155
-1.23416
-4.07437
-0.873563
-0.305908
-3.74992
4.05583
6.02874
-6.33465
-5.25949
9.56337
-4.30388
7.71647
-5.40288
-2.3136
-4.27045
-4.3972
3.89232
1.94022
9.65669
0.208867
-5.61174
-4.94933
-3.99586
3.20904
2.1076
-1.92257
3.5741
2.0762
-0.353391
0.555927
1.07292
1.85668
-1.30075
0.226688
1.62999
-1.23409
1.9646
0.713655
-2.00739
0.0865566
-1.35074
3.49663
1.04932
-2.03223
0.731477
1.0587
-3.48914
4.85843
-2.5008
-2.35763
5.91713
1.16535
-3.66615
4.18851
-3.85068
2.33418
-3.38581
-1.33196
-5.18265
-3.53644
-2.56255
4.84654
-3.24847
5.35378
1.19707
-5.15156
6.34862
-3.5917
1.6928
-3.07985
3.79351
-1.08243
-1.99742
2.82567
2.7227
-2.954
0.0235453
-0.128329
2.33974
-2.46807
-0.570648
-2.56458
-4.57204
4.90298
-2.10731
4.55374
2.16655
-1.91463
6.46837
1.81114
-3.72578
-3.24789
-3.70913
-1.38237
3.15678
-0.568207
-4.25723
-5.38555
4.13378
0.227807
-6.86632
7.67087
-0.804545
-3.91172
-0.649224
4.7202
-5.95161
0.474051
-3.88248
3.78839
4.68369
4.9115
-11.437
-0.206699
-6.25449
1.13932
-7.39381
5.52047
-3.582
7.73569
-10.411
6.95308
-9.28637
6.56185
-0.831958
6.25863
-4.11363
2.82327
-8.52833
-6.89765
5.44051
-2.73282
6.14501
-3.1229
9.26791
-5.71502
5.20474
4.06318
-0.795421
-4.01343
-5.27077
4.47534
-0.0660276
4.02049
4.97361
-2.86499
4.64936
2.25677
-4.65773
-2.13657
-6.49811
1.84038
-3.34707
-1.91679
3.75717
3.17004
3.75481
1.24545
-3.33921
7.30194
-8.20866
-1.90581
-3.50606
5.32229
-0.846942
3.35717
-6.86323
-2.17612
4.85852
-0.794715
-4.0638
0.849195
-4.36745
1.6546
-6.02205
5.15892
-5.58862
2.21243
-9.79756
-5.19535
-5.1354
-2.24993
-5.23883
-7.60631
5.35639
-1.83051
5.49244
-8.5762
7.78148
-3.49287
8.84926
-5.43551
-1.04626
5.84483
1.32702
10.1763
0.162247
-4.70799
-1.87182
3.93711
-2.06528
1.33721
-3.58767
0.34943
2.48154
3.43558
-6.55684
-0.0648084
-4.7728
-3.92109
7.95737
5.64228
11.671
1.23132
9.14913
-1.19176
10.3804
4.14371
4.37978
-3.03172
4.54397
1.02411
4.53475
-0.836838
2.82691
1.8056
1.806
0.829485
2.31874
1.41163
3.24152
0.148813
-2.05941
4.63795
-8.63381
-0.973796
-8.0628
1.1167
5.727
-4.6103
3.09861
-0.991014
1.03333
0.0897895
-1.60811
1.51832
-2.79641
-1.9615
-0.331508
-1.62657
2.35805
1.87006
-2.02654
-0.769866
0.330502
-3.86694
3.0553
-3.03176
-0.309055
6.03957
-2.75606
0.287991
-1.06326
-2.27659
-2.8168
2.73025
6.17737
0.291001
3.11171
5.19398
3.10036
0.235368
3.90542
-5.67478
-3.55465
-5.88148
-0.361011
4.35919
1.79057
7.96667
5.85375
5.00681
-1.85643
-10.0651
6.57808
-2.03411
5.2458
-1.18199
-4.84005
4.98672
2.32305
-5.60498
0.016365
-4.82369
-6.8578
-0.521723
8.30321
-9.65455
8.60829
5.7559
1.37016
-4.40725
-0.728155
4.23451
0.145266
10.5257
-1.12912
-6.81616
7.94528
-4.59788
3.62408
0.833278
2.74082
2.35159
1.36058
-5.45558
-10.0659
-1.9214
-1.56775
-4.27903
0.467556
-2.33761
6.25014
-2.62605
3.93654
5.31923
6.35256
-2.16056
-4.17409
6.46444
-2.5279
3.82466
)
;

boundaryField
{
    wall-4
    {
        type            calculated;
        value           uniform 0;
    }
    velocity-inlet-5
    {
        type            calculated;
        value           uniform -3.75095;
    }
    velocity-inlet-6
    {
        type            calculated;
        value           uniform -5.62643;
    }
    pressure-outlet-7
    {
        type            calculated;
        value           nonuniform List<scalar> 8(3.09276 6.04737 3.77967 9.63684 8.79056 4.86722 6.93319 9.36575);
    }
    wall-8
    {
        type            calculated;
        value           uniform 0;
    }
    frontAndBackPlanes
    {
        type            empty;
        value           nonuniform List<scalar> 0();
    }
}


// ************************************************************************* //
