/*--------------------------------*- C++ -*----------------------------------*\
  =========                 |
  \\      /  F ield         | OpenFOAM: The Open Source CFD Toolbox
   \\    /   O peration     | Website:  https://openfoam.org
    \\  /    A nd           | Version:  9
     \\/     M anipulation  |
\*---------------------------------------------------------------------------*/
FoamFile
{
    format      ascii;
    class       volVectorField;
    location    "35";
    object      U;
}
// * * * * * * * * * * * * * * * * * * * * * * * * * * * * * * * * * * * * * //

dimensions      [0 1 -1 0 0 0 0];

internalField   nonuniform List<vector> 
918
(
(0.985165 -0.000498681 0)
(0.00501201 2.96625 0)
(-0.0263426 0.82375 0)
(0.979702 0.00215025 0)
(-0.0902211 1.61317 -5.14122e-20)
(-0.00704253 2.94879 -2.65565e-18)
(0.831441 1.17485 3.85829e-19)
(0.318185 0.145275 -1.74702e-20)
(0.999908 -0.000287827 0)
(0.0492442 0.834724 0)
(0.000788584 0.64352 0)
(0.734536 -0.0118613 0)
(0.011092 2.9304 0)
(0.00225539 2.79498 0)
(-0.0176634 3.15713 7.22421e-19)
(-0.00844098 1.84903 -8.2313e-20)
(0.391407 0.0451883 1.15161e-18)
(0.190427 1.18486 2.5389e-19)
(0.96279 0.00502376 0)
(-0.004781 0.631458 0)
(0.0756299 0.190739 -8.22966e-19)
(1.00198 -0.00498249 0)
(1.00022 -0.0097964 0)
(0.975719 -0.00644346 0)
(0.585808 -0.0373808 0)
(0.0161216 2.63848 0)
(-0.0149727 2.91007 9.90074e-19)
(-0.0272232 0.812196 0)
(-0.092372 1.00793 0)
(-0.0251521 0.800136 0)
(-0.200652 2.56778 0)
(-0.133529 1.79774 4.07057e-20)
(-0.0836439 1.62597 0)
(-0.0206167 2.9876 -9.60188e-23)
(-0.0166922 3.0053 2.06403e-18)
(0.00210046 3.00019 0)
(0.870558 -0.00948364 0)
(0.403241 0.936516 2.1902e-19)
(0.812319 1.19122 -3.83883e-19)
(0.960447 1.03006 4.5063e-19)
(0.681941 1.28435 -8.85329e-20)
(0.679431 1.27015 5.17442e-19)
(0.359799 0.231633 1.70436e-20)
(0.333464 0.115337 0)
(1.13599 0.55339 0)
(0.325073 0.228917 7.7906e-20)
(0.287055 0.154754 -8.08455e-20)
(0.919709 -0.00745608 0)
(1.00027 0.000138596 0)
(0.999909 0.000328285 0)
(1.00363 -0.00777756 0)
(1.00096 -0.000929835 0)
(1.00017 2.82881e-05 0)
(0.0800396 1.80064 -9.11704e-19)
(0.0332025 1.00127 0)
(0.0870431 0.900398 0)
(0.0170837 0.956374 0)
(0.0355881 0.770635 0)
(0.0227924 1.9996 0)
(0.00316685 0.810297 0)
(0.0235801 0.655821 0)
(-0.00515535 0.809151 0)
(-0.0068541 0.649054 0)
(0.836797 -0.0154727 0)
(0.850065 0.0278245 0)
(0.768137 -0.0020314 0)
(0.822875 0.0366992 0)
(0.702898 -0.017168 0)
(0.0146901 3.0004 9.8705e-19)
(0.0115018 3.00798 0)
(0.00612082 3.00279 0)
(0.0135309 2.99734 1.12392e-23)
(0.00798217 2.95848 -1.467e-18)
(0.0144899 2.98208 0)
(0.0108341 2.9036 0)
(0.0245739 2.93085 2.3046e-24)
(0.00451466 2.82492 0)
(0.0304853 2.9162 0)
(-0.00539377 2.74462 0)
(0.308379 3.55391 0)
(-0.131915 3.63542 0)
(0.139614 3.24759 -6.72296e-19)
(-0.0125051 2.98292 0)
(-0.186256 2.34388 0)
(-0.0458246 2.03051 8.11725e-20)
(0.00711759 1.91012 -8.32233e-20)
(0.480403 0.146641 -3.98475e-19)
(0.389117 0.0253965 -3.8467e-19)
(0.465498 0.169676 -1.20008e-18)
(0.376201 0.0652807 -7.91243e-19)
(0.218236 0.942843 0)
(0.272516 1.32478 -3.21935e-19)
(0.377013 1.26985 5.4304e-19)
(0.987498 0.00856656 0)
(0.941938 0.00587871 0)
(1.0003 0.000577969 0)
(1.00286 0.0093045 0)
(1.00302 0.00846494 -3.06226e-18)
(0.991915 0.00969379 2.31256e-18)
(0.000867263 0.78513 0)
(-0.00910353 0.635072 0)
(0.0134187 0.842136 0)
(-0.0199967 0.787779 0)
(0.0096742 0.628963 0)
(0.11903 0.19731 2.54447e-19)
(0.175194 0.175078 0)
(0.993535 -0.00838333 0)
(0.954401 -0.00652552 0)
(0.774905 0.0454687 0)
(0.712133 0.0557036 0)
(0.661266 -0.0302133 0)
(0.953397 -0.010603 0)
(0.628948 0.0701954 0)
(0.456776 -0.0178844 1.67987e-18)
(-0.0368945 2.86309 7.6876e-19)
(0.0420011 2.90897 0)
(0.0544816 2.88509 0)
(-0.00475911 2.69906 0)
(-0.0131636 2.9853 9.42593e-19)
(-0.0179652 2.89527 0)
(-0.0153355 2.98811 -2.91191e-18)
(-0.0133668 2.92521 9.95027e-19)
(-0.0456582 1.17795 0)
(-0.090007 1.29854 0)
(-0.058774 2.00514 -2.18149e-21)
(-0.0850206 1.91675 0)
(-0.066591 1.74674 0)
(0.937766 -0.00769047 0)
(0.856087 -0.0093645 0)
(0.863543 0.00656771 0)
(0.949055 -0.00797577 0)
(0.883534 -0.00818815 0)
(0.515407 1.13043 -2.74585e-19)
(0.564981 1.18235 0)
(0.367183 0.880385 3.90926e-20)
(0.309519 0.739818 0)
(0.9197 1.06822 -1.19562e-19)
(1.0306 0.87014 2.34559e-19)
(0.372232 1.37564 0)
(0.535606 1.34586 0)
(0.544914 1.29997 0)
(0.112387 0.182534 -3.28339e-19)
(0.393763 0.217624 0)
(0.360283 0.108685 2.23057e-19)
(1.00076 0.924809 0)
(1.06497 0.772562 0)
(1.09015 0.713513 -1.61543e-19)
(1.11619 0.614138 0)
(1.16059 0.397852 5.4616e-20)
(0.957422 -0.00885461 0)
(0.96232 -0.0101315 0)
(0.901406 -0.00795649 0)
(0.984163 -0.0091808 0)
(0.974617 -0.00941156 0)
(0.937027 -0.0063774 0)
(1.00019 0.00233893 0)
(1.00091 0.001391 0)
(0.999913 0.000852809 0)
(0.033444 2.05871 4.99642e-19)
(0.121199 1.74239 0)
(0.0128669 2.1735 7.98815e-19)
(0.0555501 1.86021 -6.87869e-19)
(0.104906 1.18918 -2.06669e-19)
(0.0463619 1.07643 0)
(0.141603 1.04643 0)
(0.0109236 0.909277 0)
(0.0189949 0.729096 0)
(-0.00459121 2.21107 -1.93945e-21)
(0.0308893 1.98888 0)
(-0.00620864 2.18589 -1.04287e-19)
(0.0286481 2.00093 1.97462e-19)
(0.0121968 0.868633 0)
(0.01187 0.833906 0)
(0.0245141 0.692417 0)
(-0.00292455 0.80696 0)
(-0.0182681 0.639849 0)
(0.93457 0.00884022 0)
(0.843758 -0.0146885 0)
(0.924943 -0.000448187 0)
(0.8393 -0.0126138 0)
(0.812594 0.00212186 0)
(0.90244 0.0193065 0)
(0.87958 0.0236343 0)
(0.789474 0.000361437 0)
(0.00578811 3.06488 -9.3137e-21)
(0.0166623 3.05782 0)
(0.0147219 2.96907 0)
(0.00864274 2.87623 0)
(0.925457 3.97036 0)
(1.24016 3.30245 9.20712e-19)
(0.0703032 3.07494 0)
(-0.0280296 2.90581 0)
(0.0366807 1.48844 0)
(-0.0604054 2.10796 0)
(-0.128508 1.84887 0)
(-0.153489 2.50885 5.79164e-20)
(-0.152713 2.44885 0)
(-0.206043 2.49712 0)
(0.019037 1.9781 2.23148e-21)
(-0.0133136 2.10065 7.74142e-20)
(-0.0252942 2.06351 8.48217e-20)
(0.0121081 1.95117 0)
(0.506298 0.12091 5.97702e-19)
(0.405471 0.00472037 -5.87206e-19)
(0.260917 1.56968 0)
(0.266939 0.718969 -3.31967e-19)
(0.177673 1.65424 -1.12031e-18)
(0.227283 1.18711 1.12322e-18)
(0.902292 0.00656277 0)
(0.967532 0.0109884 0)
(0.974621 0.0107591 0)
(0.923471 0.00651901 0)
(-0.0133579 0.812961 0)
(-0.00311071 0.801487 0)
(-0.00674704 0.637942 0)
(0.277844 0.225712 7.17e-19)
(0.228849 0.208745 -8.48029e-19)
(0.240533 0.167735 0)
(1.07514 0.0811236 3.48665e-20)
(1.05617 0.0361276 0)
(0.997265 0.0369407 0)
(0.89537 -0.00873828 0)
(0.531191 0.0958294 0)
(0.564667 0.0750995 -2.68812e-18)
(0.425119 -0.00321094 1.00854e-18)
(0.0091909 2.98147 8.10187e-19)
(-0.0322939 2.86645 4.77628e-20)
(0.00364472 3.05021 -1.96396e-20)
(0.0201626 3.04342 6.97711e-19)
(-0.0150206 2.99657 3.25973e-20)
(-0.0129468 2.94946 -1.31064e-22)
(-0.0172541 3.01196 -6.00429e-19)
(0.0148153 3.02394 4.34228e-19)
(0.00733145 3.03674 -6.89948e-19)
(0.932279 -0.00207455 0)
(0.938333 -0.00394605 0)
(0.843841 -0.00871197 0)
(0.956782 0.0116562 0)
(0.943185 0.0128326 0)
(0.881885 0.00619881 0)
(0.918486 0.0159396 0)
(0.926799 0.0145267 0)
(0.838906 0.00432681 0)
(0.719119 1.40989 -7.96968e-21)
(0.752925 1.51935 0)
(0.190626 0.329931 8.04212e-20)
(0.215956 0.654203 6.4831e-19)
(0.258727 0.71688 -3.74594e-19)
(0.266325 0.536845 7.46165e-19)
(0.329391 0.780924 1.71562e-18)
(0.130078 0.219492 3.94875e-19)
(0.44031 0.191527 8.39651e-19)
(0.417547 0.208142 2.17888e-19)
(0.371471 0.0905389 4.16992e-19)
(1.15021 0.456346 -2.09863e-20)
(1.1611 0.250829 -2.95611e-20)
(0.00213699 2.21223 3.23136e-19)
(0.0547048 1.92396 0)
(0.961906 0.0270117 0)
(0.937791 0.0124974 0)
(0.860502 -0.0185969 0)
(0.0111223 3.07425 0)
(0.0197036 2.94412 1.29239e-18)
(0.0164571 2.95629 0)
(0.00634629 2.85065 -1.28182e-18)
(0.00631602 3.0914 3.14977e-19)
(0.00726667 3.08268 0)
(0.786101 1.82237 -1.4741e-19)
(1.24786 2.50122 3.68229e-19)
(0.768341 1.96239 -1.20067e-18)
(0.0201762 2.98156 -7.10918e-19)
(0.0360814 3.00212 0)
(-0.033609 2.87861 0)
(-0.00918338 2.16194 -7.13684e-21)
(-0.0120368 2.13373 -1.62996e-19)
(0.0225461 1.99606 -4.04811e-21)
(0.27441 1.37604 1.08173e-18)
(0.221915 0.50417 -7.41619e-19)
(0.0627346 1.98375 8.38685e-19)
(0.13753 1.87352 -9.86212e-19)
(0.178599 1.48097 9.03407e-20)
(0.00328209 3.11804 -1.9851e-18)
(0.0172242 3.11796 2.12574e-18)
(-0.00900852 2.98088 8.75492e-19)
(-0.00310177 2.97739 -8.35649e-19)
(-0.021391 2.88167 -8.91662e-19)
(0.00871364 3.09886 -2.34841e-18)
(0.00201317 3.10681 2.29084e-18)
(0.27222 0.679895 0)
(0.233879 0.668592 -1.3386e-18)
(0.0976222 0.221776 5.9231e-19)
(0.345487 0.905692 1.17451e-18)
(0.18495 0.262731 -1.81226e-18)
(1.1554 0.16997 9.75034e-20)
(1.16281 0.305269 0)
(1.14186 0.118451 -4.68386e-20)
(-0.00293613 2.21928 -2.61428e-21)
(-0.00343537 2.22203 0)
(0.0393252 1.96444 0)
(0.338007 1.28381 -3.9016e-19)
(0.364447 1.11505 -8.40931e-19)
(0.19815 0.357939 1.50062e-18)
(1.00587 -0.0108729 0)
(1.00765 -0.00765609 5.65585e-19)
(0.0272627 1.21245 0)
(0.00429381 1.06881 0)
(1.00222 0.00349594 1.79998e-21)
(1.00364 0.00942145 1.15361e-18)
(-0.121876 2.52063 -7.49401e-20)
(-0.0980157 2.52593 0)
(0.0365478 3.17927 4.88667e-19)
(0.39548 3.49257 0)
(1.13885 0.652435 -9.77849e-20)
(1.01292 0.0130742 -2.13159e-21)
(1.0212 -0.0104402 0)
(1.00168 9.53421e-05 6.23489e-23)
(0.0975586 1.35176 0)
(0.148403 2.58283 0)
(0.0194699 1.30571 0)
(-0.00215189 2.62941 1.02884e-19)
(-0.0251884 2.57888 7.82376e-20)
(1.00311 0.02719 2.44228e-21)
(1.06147 0.00331789 0)
(1.09419 0.0216789 0)
(-0.0517907 1.95696 0)
(-0.0295225 2.5657 0)
(0.0328218 1.22661 0)
(0.286974 1.46569 -1.04883e-19)
(1.01125 -0.00965759 0)
(1.0094 -0.0149418 0)
(1.00233 0.000683674 7.22102e-19)
(1.00547 -0.00485317 -8.49485e-19)
(1.00118 -0.00100021 0)
(0.0993958 1.66654 0)
(0.0760563 1.30958 0)
(0.0231617 1.5237 0)
(0.0275685 1.19896 0)
(0.0369856 1.0998 0)
(0.00272604 1.0513 0)
(1.03423 -0.00655718 0)
(1.0208 0.0157151 -9.39837e-22)
(0.796815 1.26297 1.95053e-19)
(1.00229 0.000246013 -7.21937e-19)
(1.00406 0.00523332 8.42297e-19)
(1.00118 0.0020597 0)
(1.01285 0.0102609 7.17143e-19)
(1.00803 0.00826929 -8.67427e-19)
(1.00861 0.0146688 0)
(-0.0575313 2.58308 0)
(-0.08666 2.54854 7.70329e-20)
(-0.0650979 2.56187 -5.87447e-20)
(1.21651 0.254562 7.55119e-19)
(1.15258 0.078102 0)
(0.0454091 3.07768 -1.04032e-18)
(0.0659241 2.85373 -7.53588e-20)
(0.142833 3.19387 1.57319e-18)
(0.137797 3.22271 -2.51154e-19)
(0.136153 3.23539 0)
(0.020176 3.13759 2.72286e-19)
(0.0771446 3.16095 1.02774e-18)
(0.0700217 3.18687 -5.12224e-19)
(0.0229053 3.12966 0)
(0.654334 0.303163 0)
(0.576086 0.348206 0)
(1.10871 0.684931 2.56063e-19)
(1.10453 0.81405 -2.78922e-19)
(1.16737 0.572059 0)
(1.19688 0.512223 0)
(1.01618 0.0132853 -1.33787e-18)
(1.015 0.0142599 1.67938e-18)
(1.02514 -0.0100423 0)
(1.02317 -0.0119897 0)
(1.00648 0.00258758 0)
(1.0104 0.00365675 0)
(1.00461 0.00183368 0)
(1.00988 0.00613694 0)
(1.00781 0.00600695 0)
(1.0045 0.00458258 0)
(0.0873199 1.34835 0)
(0.0791035 1.32281 0)
(0.118535 1.38459 0)
(0.127264 1.39883 0)
(0.1461 2.60693 0)
(0.186962 2.67205 -4.8164e-19)
(0.0994037 2.66441 0)
(0.0882921 2.66679 2.56335e-19)
(0.0389899 2.68614 -2.53694e-19)
(0.034737 1.31142 0)
(0.000782614 1.23645 0)
(0.0293093 1.32385 0)
(0.0413585 1.27018 0)
(-0.00655037 1.98972 -6.29459e-20)
(-0.0279233 2.60725 6.78823e-20)
(-0.015496 2.67116 1.06848e-19)
(-0.0225372 2.6803 0)
(-0.0314384 2.61106 -1.83035e-19)
(-0.0303729 2.60292 -1.1175e-19)
(0.00309852 1.99019 4.82258e-20)
(-0.0205277 2.41343 -9.10348e-20)
(-0.022137 2.43025 -1.21175e-19)
(1.01183 0.0353018 1.35745e-18)
(1.00815 0.0167783 -1.68247e-18)
(1.00448 0.0415392 -1.36383e-18)
(0.982864 0.0218236 1.73266e-18)
(1.06255 0.00698798 0)
(1.04793 -0.00911471 0)
(1.09093 0.0323079 0)
(1.07214 0.0110302 0)
(1.06972 -0.00130432 0)
(1.13494 0.073979 0)
(1.10693 0.0396615 0)
(1.10924 0.0273585 0)
(-0.142044 2.48284 -7.56936e-21)
(-0.0261511 2.23321 0)
(-0.118849 2.39541 0)
(-0.0442036 2.58302 4.31059e-20)
(-0.033483 2.59508 -1.96565e-21)
(0.0598894 1.73814 2.52154e-20)
(0.0550668 1.62464 -2.63075e-20)
(0.0588409 1.41072 0)
(0.0610648 1.41334 0)
(0.0747166 1.40968 0)
(0.0394218 1.25164 0)
(0.0247662 1.11649 0)
(0.377421 1.48056 1.51477e-19)
(0.415614 1.48661 1.04421e-19)
(0.596518 2.45157 -2.52682e-19)
(0.403652 2.54639 7.50408e-19)
(0.355255 2.07106 9.30981e-20)
(1.02092 -0.00826066 0)
(1.01543 -0.0098278 0)
(1.01487 -0.0155584 0)
(1.00747 -0.00122191 0)
(1.0049 -0.000973303 0)
(1.00776 -0.00477392 0)
(1.00923 -0.00376292 0)
(1.01414 -0.00455052 0)
(1.02148 0.0159388 1.31075e-18)
(1.01815 0.0157784 -1.68105e-18)
(1.02197 0.017898 -1.31998e-18)
(1.01978 0.0165621 1.65572e-18)
(0.764411 1.31097 0)
(0.699184 1.36481 1.63776e-19)
(0.87259 1.20864 2.88544e-20)
(0.914978 1.16317 -3.83832e-20)
(1.15602 2.60803 4.21784e-19)
(0.811031 0.098451 6.61057e-19)
(1.1539 0.0964295 0)
(1.19664 0.180941 -6.06274e-19)
(1.18069 0.145314 -2.56095e-20)
(1.00533 0.140297 0)
(0.138178 2.96197 6.23143e-19)
(0.115144 2.86784 -1.31164e-18)
(0.0262967 2.37046 8.8578e-19)
(0.0926215 -0.00125947 -3.99374e-19)
(0.34024 3.42155 -1.69054e-19)
(0.194856 3.31414 0)
(0.237393 3.35643 2.20165e-19)
(0.246542 3.03526 -2.0084e-18)
(0.341093 3.1943 0)
(0.00585913 3.12106 5.20788e-20)
(0.0163572 3.12975 -6.09649e-19)
(0.0143294 3.12576 8.97284e-19)
(0.0355931 3.1401 0)
(0.034142 3.15072 0)
(1.2149 2.60792 0)
(0.530967 0.841067 -5.81161e-19)
(1.03444 0.989226 5.13633e-20)
(0.971594 1.06343 0)
(0.818487 0.963176 -1.46504e-19)
(1.05747 0.877468 2.94598e-20)
(0.369454 0.40766 -1.0266e-18)
(0.700236 0.325843 -2.27842e-20)
(0.672861 0.244512 4.72318e-19)
(0.591681 0.38336 3.48342e-20)
(0.509151 0.359914 -1.40225e-18)
(0.669593 0.342238 0)
(0.702766 0.427298 8.01903e-19)
(0.709783 0.425193 0)
(0.62801 0.369546 0)
(0.604221 0.296415 0)
(0.791507 0.616443 4.85314e-19)
(1.21331 0.277317 -6.39349e-19)
(1.20744 0.416679 0)
(1.21914 0.360513 0)
(0.753774 0.191338 7.04358e-19)
(0.837651 0.536078 -4.39644e-19)
(0.741585 0.511636 7.80067e-19)
(0.940371 0.422236 -8.69716e-19)
(1.01984 0.0145733 9.01644e-19)
(1.0179 0.014163 -9.06254e-19)
(1.01596 0.0155697 0)
(1.03573 -0.00619636 0)
(1.02949 -0.00867676 -8.51919e-19)
(1.02745 -0.0122279 8.43641e-19)
(1.02513 0.00953944 0)
(1.02374 0.013146 0)
(1.01141 0.00401644 0)
(1.01431 0.00893573 0)
(1.01508 0.00392161 0)
(1.01419 0.00273323 0)
(0.059329 1.33232 0)
(0.0620546 1.29396 0)
(0.147302 1.35315 -6.58473e-20)
(0.265082 1.4631 4.94963e-20)
(0.155782 1.43371 9.90953e-20)
(0.186121 1.44237 -1.64451e-19)
(0.159855 1.37836 0)
(0.131172 1.58852 -1.4524e-19)
(0.116085 1.55855 0)
(0.354541 2.02494 -1.35323e-19)
(0.348864 2.35788 7.00466e-19)
(0.184221 1.44163 1.26633e-19)
(0.260671 1.37472 -8.87035e-21)
(0.197823 1.35921 7.19324e-21)
(0.272288 1.31547 -1.75821e-19)
(0.242001 1.5736 0)
(0.26129 1.61541 1.68755e-19)
(0.0293712 2.27647 -6.15238e-20)
(0.0391459 2.67747 0)
(0.0630432 2.4137 2.07815e-19)
(0.0561268 2.43557 0)
(0.0694701 2.67968 -2.83558e-19)
(0.0501954 2.70616 0)
(0.0212997 1.40865 -5.20584e-20)
(0.0301331 1.4599 0)
(0.0323465 1.37663 0)
(0.020829 1.38175 5.87392e-20)
(-0.00455604 2.65873 -2.02157e-20)
(0.0267686 2.70413 2.96032e-19)
(0.00810663 2.72697 2.08415e-21)
(-0.00758108 1.83873 6.34371e-20)
(-0.0179869 1.67672 2.84007e-20)
(0.0124321 1.2956 0)
(0.0163828 1.19415 0)
(0.044565 1.56539 7.83586e-20)
(0.0279996 1.44188 7.27168e-20)
(0.0333277 1.50755 -9.14222e-20)
(0.0367463 1.58946 0)
(-0.0396243 2.2981 -7.74564e-20)
(-0.0622778 2.54211 2.95193e-20)
(-0.02232 2.45251 -2.23524e-20)
(-0.0215803 1.8524 -7.68685e-20)
(-0.0375651 2.49623 -2.89525e-20)
(-0.0290927 2.44321 1.28702e-19)
(1.02004 0.0205674 -8.97075e-19)
(1.01635 0.0257703 8.99611e-19)
(1.01525 0.0162139 0)
(1.01281 0.0651407 1.26221e-18)
(0.993102 0.0555501 -1.41011e-18)
(0.955105 0.0430416 1.57501e-18)
(1.01616 0.101693 -1.68777e-19)
(1.04189 -0.00627013 0)
(1.04998 -0.00212154 8.16416e-19)
(1.0382 -0.010206 -8.17024e-19)
(1.06992 0.0400917 -4.88264e-20)
(1.06341 0.021882 4.20351e-19)
(1.06392 0.0518881 0)
(1.05219 0.0466139 -1.5062e-19)
(1.03309 0.0393362 0)
(1.02628 0.0356082 0)
(1.02775 0.0126594 0)
(1.02445 0.0154926 0)
(1.03924 0.0300885 3.09812e-19)
(1.03941 0.0253814 -6.82437e-19)
(1.05025 0.0322156 -3.29321e-19)
(1.04699 0.0325919 -3.62111e-19)
(1.06759 0.0596583 7.11904e-19)
(1.09309 0.0470045 0)
(1.10067 0.0892439 0)
(-0.062236 2.29457 -3.15443e-20)
(-0.0241996 2.1799 -4.95459e-21)
(-0.00434162 2.12944 0)
(-0.0625923 2.469 3.36944e-20)
(-0.0819841 2.46166 1.17869e-20)
(-0.100134 2.4747 -1.84031e-20)
(-0.0318171 2.61481 9.69682e-20)
(-0.0473725 2.55243 -7.97502e-21)
(-0.0328468 2.51264 3.04236e-20)
(-0.0303569 2.6039 -5.09075e-20)
(-0.0327304 2.60763 6.3037e-20)
(0.0884226 1.58693 2.79493e-21)
(0.0403115 1.7478 5.85996e-20)
(0.366961 1.42021 -5.05446e-20)
(0.36503 1.36369 1.0983e-19)
(0.646249 1.41067 -1.58409e-19)
(0.513607 1.47498 -1.01084e-19)
(0.565648 1.44824 0)
(0.591968 2.42712 2.2621e-19)
(0.658744 2.41867 3.57019e-19)
(0.410822 2.52203 8.26876e-20)
(0.40547 2.55024 -7.07858e-19)
(0.514243 2.4956 6.71778e-19)
(0.551482 2.46527 0)
(0.488835 2.5208 -5.99895e-19)
(0.248849 2.59712 1.28045e-18)
(0.353616 2.57116 -8.39772e-20)
(0.28486 2.65885 -1.73782e-18)
(0.941768 2.37881 8.02838e-19)
(0.834075 2.38365 0)
(1.01091 0.000380442 2.9348e-20)
(1.01521 -0.00557183 -2.38437e-20)
(1.01766 -0.00366867 -4.35781e-19)
(1.01493 -0.00103173 4.37869e-19)
(1.01229 0.000998039 0)
(0.634633 1.28053 0)
(0.652719 1.17518 0)
(0.754375 1.08238 0)
(0.644071 1.14197 0)
(1.18536 2.62251 5.9474e-20)
(1.07407 2.36647 0)
(0.83752 2.18715 4.71034e-21)
(0.826452 2.44957 0)
(0.92207 2.53942 -4.98963e-19)
(0.957613 2.49524 3.32216e-19)
(0.819798 0.14905 0)
(0.789892 0.127949 1.80853e-19)
(0.925172 0.132838 1.05137e-18)
(0.841274 0.127452 -3.94427e-19)
(0.82079 0.0698242 -1.20618e-18)
(1.07401 0.221599 -1.05309e-18)
(0.994655 0.279356 -1.5358e-20)
(0.91895 0.275009 9.83223e-19)
(1.00542 0.207938 8.25901e-19)
(0.952254 0.174082 -1.40378e-18)
(0.918501 0.175306 1.75302e-19)
(0.9501 0.236165 -3.78517e-19)
(0.929092 0.198135 0)
(0.996274 0.173111 6.93612e-19)
(1.04632 0.173387 0)
(1.04504 0.199941 0)
(1.10103 0.106887 3.3507e-19)
(1.07236 0.161947 -1.36787e-20)
(1.06787 0.224107 -1.82355e-19)
(1.09748 0.190338 0)
(1.02302 0.0438181 6.96967e-19)
(1.04117 0.0555779 8.70623e-19)
(1.03319 0.0415301 -6.91017e-19)
(1.04148 0.0609382 -5.83422e-19)
(1.0168 0.0682128 -8.88204e-19)
(0.990442 0.147132 0)
(0.999692 0.0982689 0)
(0.970845 0.0635395 -5.60527e-19)
(0.92304 0.0844635 2.20079e-19)
(1.03789 0.09677 8.07421e-19)
(1.06822 0.109579 -9.64312e-19)
(1.07253 0.142108 8.59977e-19)
(1.03157 0.134193 0)
(1.07352 0.09982 0)
(1.05684 0.0828552 -3.91395e-19)
(1.04484 0.0898252 -6.6195e-19)
(0.578757 1.07801 1.76161e-19)
(0.611403 1.41373 -7.88811e-20)
(1.15591 2.74142 -2.77375e-19)
(1.2227 3.08241 1.18285e-20)
(1.2482 2.72232 -2.40936e-19)
(1.27835 2.70637 1.8048e-20)
(1.2063 2.34557 -1.0086e-20)
(1.20982 2.98608 -1.3554e-19)
(1.22919 2.95102 3.01221e-19)
(1.21383 3.23606 -1.26184e-19)
(1.37505 2.9675 1.74528e-19)
(1.36577 2.88561 0)
(0.537182 0.848714 -5.52954e-20)
(0.138777 1.25977 6.09573e-19)
(0.530228 0.46492 6.62715e-19)
(0.365404 0.215882 7.33117e-19)
(0.530166 0.392094 7.91373e-19)
(0.54219 0.48185 -1.29863e-18)
(0.545149 0.487648 1.06069e-18)
(0.497793 0.412617 -3.99479e-19)
(0.424108 0.349079 9.06754e-19)
(0.75714 0.249379 -4.03497e-19)
(0.719661 0.285426 0)
(0.711111 0.214191 9.84642e-21)
(0.725794 0.514473 4.22592e-19)
(0.696855 0.482028 -1.53948e-18)
(0.614273 0.478867 1.64445e-20)
(0.625021 0.45995 0)
(0.66697 0.735073 4.45925e-19)
(0.817319 0.771417 4.71422e-19)
(0.743782 0.853982 -5.49725e-19)
(0.858979 0.803471 -1.91245e-19)
(0.89252 0.847383 -5.12191e-20)
(0.900875 0.848967 5.24394e-20)
(0.83146 0.64269 -8.05339e-19)
(0.90908 0.69891 1.77624e-19)
(0.96618 0.71342 0)
(0.956893 0.689535 -2.47008e-19)
(1.0197 0.319463 2.54568e-19)
(1.13003 0.289843 3.67273e-19)
(1.05978 0.259064 4.30534e-19)
(1.00379 0.354515 -5.08232e-19)
(1.04249 0.421146 0)
(1.09461 0.406458 0)
(0.906683 0.349688 5.23379e-21)
(0.840695 0.283067 0)
(0.868205 0.275762 4.60261e-19)
(0.902574 0.281204 -5.74414e-21)
(0.932153 0.425329 2.42717e-18)
(0.887915 0.486308 6.27305e-19)
(0.893435 0.450448 -6.59284e-19)
(0.81739 0.434057 7.06207e-19)
(0.799953 0.430467 4.20575e-19)
(0.770401 0.418234 -4.13438e-19)
(1.02719 -0.000481627 7.26797e-19)
(1.01999 -0.000260861 0)
(1.0185 0.000682825 4.73486e-19)
(1.02166 -0.00197493 -1.07285e-18)
(1.02228 0.00403344 5.21087e-19)
(1.02043 0.0109583 -1.09134e-18)
(1.02138 0.0103587 0)
(1.02075 0.0106279 -2.27208e-19)
(1.016 0.00754528 5.69962e-19)
(1.01678 0.0102818 -2.84322e-19)
(1.01748 0.00961844 2.09481e-19)
(0.0309779 1.30925 0)
(0.0395051 1.34522 0)
(0.0432601 1.31093 0)
(0.0508447 1.2755 0)
(0.0686748 1.36755 1.05677e-19)
(0.0767196 1.34025 -2.41903e-20)
(0.111862 1.49761 -5.40673e-20)
(0.0911664 1.3401 3.47826e-20)
(0.0321929 1.4438 -1.00124e-19)
(0.0361215 1.4346 7.75724e-20)
(0.0619429 1.35011 -5.66565e-21)
(0.0555261 1.35135 -5.7735e-20)
(0.0515005 1.33194 -8.74921e-21)
(0.0407485 1.35226 -1.15754e-20)
(0.10671 2.38573 -2.2975e-19)
(0.0956642 2.43 0)
(0.173036 2.06001 1.40197e-19)
(0.108492 1.70866 7.42665e-20)
(0.232391 2.05171 -1.13016e-19)
(0.208533 2.44766 0)
(0.267707 2.39885 -6.88591e-19)
(0.306976 2.39673 4.88229e-19)
(0.234074 2.00991 -3.16388e-19)
(0.15443 2.17546 2.00732e-19)
(0.145753 2.2941 0)
(0.0118141 1.88123 -1.11575e-19)
(-0.00991452 2.41102 -1.81666e-19)
(-0.00171059 2.16401 0)
(0.00977875 2.46946 -1.42417e-20)
(0.019557 2.3172 6.68128e-20)
(0.0145861 1.39304 9.23383e-21)
(0.01228 1.38196 -1.40056e-19)
(0.0145526 1.39038 3.37653e-20)
(0.0122677 1.38925 5.11337e-20)
(0.020384 1.41259 0)
(0.0176613 1.37154 0)
(0.0557663 1.26093 5.89779e-20)
(0.0540639 1.37307 -2.10045e-20)
(0.0192716 1.36505 0)
(0.0353812 1.2746 3.69007e-20)
(0.00877496 1.1492 -7.74207e-20)
(1.03991 0.0109009 0)
(1.04611 0.00715693 -7.65836e-20)
(1.03855 0.0201298 -5.50324e-19)
(1.04767 0.019041 0)
(1.05121 0.0192784 0)
(1.03653 0.0108388 -6.60771e-21)
(1.03105 0.0106182 8.83279e-19)
(1.03202 0.0157009 1.07098e-18)
(1.02599 0.0196498 0)
(1.0233 0.020098 0)
(1.03519 0.0236864 5.49464e-19)
(1.02637 0.0250807 0)
(1.02473 0.0251054 0)
(-0.0473822 2.01864 0)
(0.0240395 1.73367 3.06034e-21)
(-0.0127978 1.8112 2.48185e-21)
(0.0633034 1.37876 0)
(0.0204878 1.59832 4.16174e-20)
(0.0541442 1.50679 -2.25129e-20)
(0.0872045 1.44008 0)
(0.395872 1.6774 0)
(0.366811 1.29288 -1.97107e-19)
(0.307372 1.34105 0)
(0.423633 1.29331 1.67e-19)
(0.466557 1.44878 0)
(0.447657 1.39363 -4.72785e-20)
(1.03441 2.68668 -1.72515e-20)
(0.963688 2.409 -1.00897e-18)
(0.913052 2.18722 1.16674e-18)
(0.847368 2.3754 2.62217e-19)
(0.846234 2.49832 0)
(0.91644 2.49375 0)
(0.92515 2.37224 0)
(0.902891 2.35921 -1.02e-18)
(0.691586 2.4681 -4.59204e-19)
(0.801842 2.45876 -1.11469e-19)
(0.812657 2.43151 8.5075e-20)
(0.693696 2.39302 0)
(0.797411 2.38815 0)
(0.756355 2.40105 -3.89407e-19)
(0.769352 2.48933 0)
(0.611595 1.09822 0)
(0.481528 0.928555 -5.76117e-19)
(0.549054 0.964194 -3.65419e-20)
(0.519156 1.0559 0)
(0.519022 1.00546 8.65083e-19)
(0.767618 0.880466 -1.59635e-19)
(0.778553 1.01312 0)
(0.751953 0.97149 2.40243e-19)
(0.63996 1.03497 0)
(0.644242 0.944344 0)
(1.16405 2.76222 -2.79795e-19)
(1.14154 2.82602 -1.33203e-19)
(0.931071 2.34661 1.6186e-19)
(0.898973 2.32519 -1.02894e-19)
(1.12893 2.73469 0)
(1.08249 2.70469 1.23843e-19)
(1.08876 2.48634 -3.58318e-19)
(0.983534 2.2334 -3.03723e-20)
(0.498358 1.35827 0)
(0.510822 1.07637 -1.55399e-19)
(0.562311 1.16289 0)
(0.860953 0.213073 0)
(0.797378 0.166769 0)
(0.748556 0.140461 0)
(0.855545 0.219195 -7.24467e-19)
(0.77392 0.211195 4.23465e-19)
(0.936687 0.0713348 -4.54601e-19)
(0.950261 0.116123 0)
(0.928795 0.124764 1.95271e-19)
(0.870282 0.100623 7.82278e-19)
(0.847508 0.0601716 -4.89552e-19)
(1.16146 3.36159 -6.8617e-19)
(1.20891 3.2809 0)
(1.16007 3.38958 -1.42564e-18)
(0.647644 3.55048 1.2091e-18)
(0.872489 3.11799 3.1436e-20)
(0.511229 0.85436 6.55682e-19)
(0.429047 0.847151 0)
(0.339629 0.499403 -1.64642e-19)
(0.446191 0.684482 9.4253e-19)
(0.533275 0.471333 -2.28851e-19)
(0.507785 0.523133 2.58828e-19)
(0.658198 0.535217 5.68205e-19)
(0.686168 0.55298 0)
(0.637671 0.618558 0)
(0.596148 0.555687 0)
(0.969173 0.59825 1.32271e-19)
(0.889476 0.535485 -6.10465e-19)
(0.913207 0.568607 4.75788e-19)
(0.949236 0.503876 -4.74596e-19)
(1.05221 0.48013 0)
(1.06077 0.568656 -1.24474e-19)
(0.840881 0.385846 -9.61256e-19)
(0.844822 0.371111 -1.19238e-18)
(0.792675 0.38345 7.49405e-19)
(0.789872 0.351714 -7.63361e-19)
(0.840022 0.307128 -5.979e-19)
(0.793844 0.306388 7.3465e-19)
(1.02673 0.00540723 -5.57711e-19)
(1.02648 0.00562592 1.13756e-18)
(1.02905 -0.000550565 7.05498e-19)
(1.03333 0.000512456 -8.4928e-19)
(1.03297 0.00805233 0)
(1.03003 0.00865725 -1.38259e-18)
(0.0603041 1.64346 4.09782e-20)
(0.0414128 1.56741 0)
(0.0863437 1.69545 2.66198e-19)
(0.093674 1.67498 -2.39078e-19)
(0.0896197 1.51498 1.01474e-19)
(0.0826628 1.49511 0)
(0.000182627 1.69583 0)
(-0.010281 1.50674 -2.31064e-20)
(0.00920665 1.44709 2.08115e-20)
(0.0158226 1.58829 5.98879e-21)
(-0.00693156 1.89128 -4.32573e-20)
(-0.035592 1.93884 2.34589e-20)
(0.4976 1.37416 -3.88899e-19)
(0.49313 1.37873 4.25105e-19)
(0.446519 1.28979 -1.1497e-19)
(0.438281 1.29438 1.38421e-20)
(0.626206 1.2938 0)
(0.543635 1.38085 1.88167e-20)
(0.560996 1.38927 -1.83212e-20)
(0.455784 1.27672 1.10751e-19)
(0.511499 1.23127 0)
(0.564502 1.19832 0)
(0.658753 2.42785 6.74578e-19)
(0.670837 2.46469 1.39267e-18)
(0.716883 2.47713 -9.58728e-19)
(0.61633 2.45455 -2.206e-19)
(0.563613 2.54562 3.16065e-19)
(0.512394 2.51895 -8.35241e-19)
(0.975373 2.37748 -6.53889e-19)
(1.01187 2.39211 0)
(0.921168 2.16592 -7.51826e-19)
(1.05253 2.68385 0)
(1.05466 2.67045 0)
(0.612652 2.27833 -1.57322e-19)
(1.04176 3.16465 9.25059e-20)
(0.913007 3.03499 5.72237e-21)
(0.282517 0.918944 0)
(0.323783 0.78097 -3.43038e-19)
(0.480539 0.734892 -3.53611e-19)
(0.39201 2.02599 0)
(0.468009 2.78707 -2.18836e-20)
(0.424627 2.55115 0)
(0.680084 0.682041 -9.47275e-19)
(0.762525 0.681454 1.30126e-18)
(0.782393 0.623544 -1.28978e-18)
(0.662179 0.644237 -1.22104e-19)
(0.719024 0.598081 -5.07967e-19)
(1.00358 2.76836 -7.03373e-20)
(1.04043 2.82477 -2.28839e-19)
(0.641054 2.15533 7.34986e-19)
(0.596169 1.72032 -5.20121e-19)
(0.699228 1.91034 -4.80489e-19)
(0.989019 2.45124 -1.21513e-19)
(0.993909 2.44535 3.65468e-19)
(0.66083 1.85117 3.27775e-20)
(0.450569 1.33758 1.78281e-19)
)
;

boundaryField
{
    wall-4
    {
        type            noSlip;
    }
    velocity-inlet-5
    {
        type            fixedValue;
        value           uniform (1 0 0);
    }
    velocity-inlet-6
    {
        type            fixedValue;
        value           uniform (0 3 0);
    }
    pressure-outlet-7
    {
        type            zeroGradient;
    }
    wall-8
    {
        type            noSlip;
    }
    frontAndBackPlanes
    {
        type            empty;
    }
}


// ************************************************************************* //
