/*--------------------------------*- C++ -*----------------------------------*\
  =========                 |
  \\      /  F ield         | OpenFOAM: The Open Source CFD Toolbox
   \\    /   O peration     | Website:  https://openfoam.org
    \\  /    A nd           | Version:  9
     \\/     M anipulation  |
\*---------------------------------------------------------------------------*/
FoamFile
{
    format      ascii;
    class       volScalarField;
    location    "3";
    object      p;
}
// * * * * * * * * * * * * * * * * * * * * * * * * * * * * * * * * * * * * * //

dimensions      [0 2 -2 0 0 0 0];

internalField   nonuniform List<scalar> 
8800
(
0.855195
0.808621
0.772548
0.745857
0.726827
0.713245
0.703477
0.696777
0.692494
0.690703
0.691563
0.694729
0.700423
0.708617
0.720239
0.736337
0.758933
0.790277
0.830548
0.886896
0.68879
0.69718
0.70745
0.711693
0.711306
0.707538
0.702224
0.696782
0.692275
0.689229
0.688638
0.690981
0.694928
0.70018
0.705797
0.7106
0.712957
0.71111
0.704217
0.692464
0.676375
0.681671
0.685609
0.688067
0.689162
0.688916
0.687557
0.685424
0.683308
0.682023
0.682698
0.684824
0.687234
0.689238
0.690157
0.689808
0.688096
0.684899
0.680501
0.677503
0.679597
0.680778
0.682396
0.683883
0.684814
0.685125
0.684747
0.683888
0.682887
0.682302
0.682785
0.684028
0.685231
0.686028
0.686159
0.685635
0.684401
0.682813
0.681356
0.680832
0.674438
0.674588
0.674863
0.675194
0.675521
0.675729
0.67574
0.675474
0.675035
0.67483
0.675229
0.675946
0.676625
0.676931
0.676949
0.676754
0.676481
0.676214
0.676038
0.675976
0.669362
0.669483
0.669668
0.669892
0.670111
0.670277
0.670343
0.670296
0.670197
0.670237
0.670595
0.671146
0.671564
0.671769
0.671801
0.671696
0.671516
0.671319
0.67116
0.671087
0.663637
0.663691
0.663768
0.663874
0.664003
0.664141
0.664271
0.664384
0.664511
0.664742
0.665127
0.665523
0.66583
0.666008
0.666059
0.666036
0.665981
0.665917
0.665865
0.665836
0.657721
0.65777
0.657838
0.657928
0.658042
0.658182
0.658349
0.658549
0.658808
0.659173
0.659633
0.660057
0.660351
0.660533
0.660624
0.660655
0.66065
0.660629
0.660605
0.660586
0.651801
0.651827
0.651879
0.651956
0.652065
0.652216
0.652422
0.652701
0.653076
0.65358
0.654147
0.654628
0.654966
0.655188
0.655317
0.655384
0.655413
0.655418
0.655412
0.655401
0.645767
0.645786
0.645828
0.645901
0.646016
0.646191
0.646445
0.646805
0.647301
0.647958
0.648671
0.64925
0.649674
0.649956
0.650132
0.650235
0.650289
0.650312
0.650318
0.65031
0.639578
0.639592
0.639638
0.63972
0.639854
0.640065
0.640382
0.640841
0.64148
0.642324
0.643225
0.64396
0.644489
0.644846
0.645076
0.645216
0.645296
0.645336
0.64535
0.645344
0.633214
0.633227
0.633278
0.633375
0.633539
0.6338
0.634199
0.634782
0.635598
0.636678
0.637825
0.638756
0.639425
0.63988
0.640177
0.640361
0.640468
0.640524
0.640547
0.640542
0.626619
0.626632
0.626694
0.626813
0.627018
0.627348
0.627855
0.628598
0.629641
0.631019
0.632479
0.63366
0.63451
0.635091
0.635472
0.63571
0.635849
0.635924
0.635955
0.63595
0.61973
0.619746
0.619824
0.619975
0.620235
0.620656
0.621302
0.622253
0.623585
0.625344
0.627203
0.628705
0.629784
0.630522
0.631006
0.63131
0.63149
0.631586
0.631628
0.631622
0.612466
0.612485
0.612585
0.612778
0.613111
0.613651
0.61448
0.615698
0.617404
0.619651
0.622018
0.623925
0.625295
0.626232
0.626847
0.627232
0.62746
0.627584
0.627637
0.62763
0.604716
0.604741
0.604869
0.605119
0.60555
0.606245
0.607313
0.608879
0.611065
0.613937
0.61695
0.619371
0.621107
0.622293
0.623071
0.623559
0.623848
0.624004
0.624071
0.624063
0.596334
0.596368
0.596535
0.596859
0.597419
0.598321
0.599702
0.601721
0.604528
0.608197
0.61203
0.615098
0.617293
0.618792
0.619773
0.620388
0.620753
0.620951
0.621036
0.621026
0.587126
0.587172
0.587392
0.587819
0.588551
0.589727
0.591521
0.594133
0.597745
0.602436
0.607305
0.611186
0.613955
0.615843
0.617079
0.617854
0.618313
0.618561
0.618668
0.618655
0.576829
0.576893
0.577186
0.577751
0.578718
0.580265
0.582611
0.586004
0.59066
0.596656
0.602831
0.607727
0.611214
0.613589
0.615142
0.616115
0.616691
0.617003
0.617135
0.617118
0.565076
0.565166
0.565564
0.566325
0.567617
0.569671
0.572765
0.577197
0.583212
0.590869
0.598677
0.604833
0.609206
0.612185
0.614135
0.615358
0.616082
0.616473
0.616639
0.616617
0.551346
0.55148
0.552032
0.553076
0.554835
0.557604
0.561727
0.567554
0.575344
0.585105
0.594934
0.602636
0.608103
0.611832
0.61428
0.615818
0.61673
0.617224
0.617434
0.617405
0.534875
0.535083
0.535875
0.537348
0.539802
0.54361
0.549185
0.556909
0.567015
0.579413
0.591706
0.601279
0.608084
0.612749
0.61583
0.617777
0.618936
0.619565
0.619832
0.619797
0.514484
0.514823
0.51601
0.518182
0.521732
0.527117
0.534795
0.545124
0.558232
0.57388
0.589107
0.6009
0.609323
0.615159
0.619061
0.621557
0.623058
0.62388
0.624231
0.624188
0.488256
0.488837
0.49074
0.494165
0.499586
0.507487
0.518277
0.532173
0.549105
0.568644
0.587253
0.601598
0.61194
0.619242
0.624244
0.627529
0.629552
0.630675
0.631156
0.63111
0.452688
0.453778
0.457316
0.463345
0.472217
0.484247
0.49962
0.518289
0.539918
0.563918
0.586249
0.603405
0.615947
0.625051
0.631542
0.636021
0.638933
0.640627
0.641365
0.641323
0.400068
0.403404
0.411737
0.423653
0.438899
0.457478
0.479288
0.503995
0.531076
0.5599
0.586084
0.606153
0.621077
0.632287
0.64071
0.646976
0.651499
0.654553
0.656111
0.656155
0.315899
0.333809
0.353949
0.376532
0.401375
0.428695
0.458314
0.489806
0.522673
0.556424
0.586478
0.609569
0.627142
0.640883
0.651863
0.660793
0.668176
0.674227
0.679266
0.681521
0.228357
0.264451
0.296965
0.33059
0.365415
0.401476
0.438641
0.476615
0.514998
0.553483
0.587386
0.613595
0.633949
0.650385
0.66404
0.675665
0.68574
0.694563
0.704065
0.707922
0.170266
0.209353
0.249608
0.291381
0.334126
0.377633
0.4215
0.46524
0.508335
0.550477
0.586898
0.614848
0.6366
0.654227
0.668851
0.681164
0.691641
0.700544
0.708972
0.712077
0.130016
0.171239
0.215076
0.261242
0.309156
0.358081
0.407168
0.455529
0.502299
0.546954
0.584611
0.61303
0.634951
0.6526
0.667137
0.679265
0.689484
0.698184
0.706246
0.709364
0.100026
0.142516
0.188905
0.238364
0.29004
0.343026
0.396163
0.448112
0.497531
0.543491
0.581056
0.608752
0.629899
0.646878
0.66087
0.672561
0.682421
0.69076
0.698343
0.701274
0.0760617
0.11984
0.168272
0.220346
0.275129
0.331484
0.387934
0.442701
0.493923
0.54013
0.576407
0.602349
0.62196
0.637756
0.650874
0.661926
0.671307
0.679309
0.686479
0.689321
0.0563404
0.101354
0.151646
0.206019
0.263475
0.322733
0.382025
0.439125
0.491546
0.537109
0.570978
0.594174
0.611523
0.62567
0.637642
0.647899
0.656743
0.664374
0.671166
0.673946
0.0393959
0.0856387
0.13777
0.194276
0.254224
0.316165
0.378059
0.437229
0.490452
0.534662
0.565063
0.584479
0.598835
0.610865
0.621425
0.630765
0.638998
0.646252
0.652704
0.655455
0.0244088
0.0719717
0.125696
0.18433
0.246686
0.311227
0.375667
0.436836
0.490708
0.533047
0.558947
0.573468
0.584004
0.593428
0.602326
0.610631
0.61822
0.625074
0.631187
0.633897
0.0103704
0.0593971
0.114826
0.175556
0.240306
0.307476
0.374519
0.437786
0.492354
0.532539
0.552925
0.56129
0.567042
0.573333
0.580337
0.587541
0.594483
0.600965
0.606776
0.609498
-0.00293649
0.0473681
0.10462
0.167451
0.234636
0.304493
0.374277
0.439886
0.495422
0.5334
0.547348
0.548052
0.547849
0.550411
0.555379
0.561529
0.567919
0.574121
0.579735
0.582502
-0.0161241
0.0356247
0.0946725
0.15963
0.229306
0.30193
0.374643
0.442911
0.499874
0.535913
0.542597
0.533853
0.52616
0.524303
0.527216
0.532612
0.538766
0.54491
0.550481
0.553381
-0.0294315
0.0238303
0.0846946
0.151793
0.223989
0.299486
0.375307
0.446632
0.505641
0.540317
0.539139
0.51878
0.501519
0.494326
0.49541
0.500757
0.507438
0.514002
0.519822
0.522933
-0.0430703
0.0117993
0.0744824
0.143736
0.218456
0.296881
0.375989
0.450742
0.512536
0.546818
0.53755
0.502982
0.473214
0.459151
0.459137
0.46603
0.474589
0.482556
0.489147
0.492702
-0.0572175
-0.000618837
0.0638829
0.135289
0.212532
0.293918
0.376437
0.454965
0.520326
0.555503
0.538485
0.486747
0.440217
0.415982
0.417028
0.428365
0.441355
0.452411
0.460749
0.465092
-0.071963
-0.0134891
0.0528458
0.12638
0.206115
0.290416
0.376419
0.459003
0.528696
0.566352
0.542673
0.470627
0.401296
0.36374
0.366867
0.38721
0.408972
0.426345
0.438105
0.443822
-0.0870274
-0.0268062
0.0413647
0.116989
0.199137
0.286288
0.375745
0.462578
0.537273
0.579153
0.550888
0.455617
0.352041
0.296179
0.303117
0.339766
0.378739
0.408294
0.426935
0.434789
-0.10236
-0.0404793
0.0294848
0.107142
0.191601
0.281485
0.374296
0.465422
0.545652
0.59351
0.563734
0.443537
0.292808
0.203303
0.215258
0.282465
0.353577
0.405891
0.436475
0.448583
-0.118208
-0.0544306
0.017298
0.0969015
0.183544
0.276002
0.372035
0.467377
0.553427
0.60885
0.581545
0.436822
0.22188
0.0694563
0.085395
0.210399
0.34171
0.432539
0.476396
0.488762
-0.13414
-0.0686062
0.00492794
0.0863814
0.175025
0.269877
0.368921
0.468335
0.560266
0.624456
0.60412
0.438446
0.137871
-0.135626
-0.123698
0.107634
0.353579
0.497385
0.561638
0.558764
-0.150426
-0.0828768
-0.00748663
0.0756392
0.166075
0.263137
0.364954
0.468223
0.565982
0.639837
0.631138
0.45216
0.0375105
-0.48773
-0.519946
-0.0548081
0.385009
0.604777
0.702633
0.702367
-0.166886
-0.09709
-0.0198567
0.0645857
0.15655
0.255633
0.360002
0.466878
0.570406
0.654775
0.662856
0.484064
-0.0893226
-1.15101
-1.33914
-0.424788
0.296033
0.619025
0.679843
0.60109
-0.183077
-0.110666
-0.0318947
0.0533738
0.14668
0.247593
0.354114
0.464277
0.573121
0.668131
0.69655
0.536175
-0.183817
-1.80615
-2.31182
-1.05209
-0.129333
0.209822
0.246825
0.231101
-0.198701
-0.122511
-0.0429481
0.0426528
0.137154
0.23955
0.347559
0.460638
0.574203
0.679011
0.728858
0.603472
-0.12328
-1.89449
-2.46613
-1.42324
-0.707053
-0.327321
-0.185506
-0.106635
-0.286358
-0.130993
-0.0539517
0.0315853
0.126884
0.23043
0.340466
0.455816
0.573461
0.686471
0.757552
0.687671
0.136228
-1.31263
-1.83726
-1.27205
-0.810471
-0.548937
-0.465325
-0.381457
-0.159708
-0.14169
-0.0716611
0.0144729
0.110934
0.216216
0.327859
0.446146
0.568477
0.690315
0.780609
0.761697
0.416506
-0.307742
-0.720194
-0.767527
-0.740536
-0.70303
-0.686523
-0.589087
-0.216487
-0.159429
-0.0866684
0.00018473
0.0976089
0.203828
0.317254
0.437236
0.561529
0.686444
0.784353
0.793269
0.577927
0.103784
-0.311571
-0.559168
-0.707584
-0.796976
-0.862182
-0.79274
-0.249766
-0.183798
-0.105806
-0.0170666
0.0818402
0.189419
0.30453
0.425517
0.550359
0.676741
0.778025
0.801655
0.652542
0.305214
-0.103025
-0.450922
-0.727156
-0.934681
-1.10972
-1.05235
-0.283322
-0.209794
-0.126945
-0.0353476
0.0655326
0.174505
0.290652
0.412443
0.538774
0.666295
0.765585
0.790359
0.669594
0.373806
-0.015369
-0.424754
-0.803563
-1.14023
-1.47948
-1.47077
-0.315152
-0.236302
-0.149619
-0.0549816
0.047871
0.158319
0.275816
0.398979
0.524968
0.649368
0.743858
0.765122
0.661091
0.387424
0.0180225
-0.439051
-0.921508
-1.35528
-1.87951
-2.24886
-0.345698
-0.263812
-0.173931
-0.0764452
0.0284768
0.140748
0.259357
0.382508
0.50829
0.63238
0.723094
0.737961
0.642215
0.389176
0.0450237
-0.42522
-1.0051
-1.58675
-1.93974
-2.30614
-0.376268
-0.292477
-0.19998
-0.100006
0.00698404
0.120938
0.240807
0.365154
0.491332
0.612702
0.696904
0.706104
0.614662
0.384869
0.0611874
-0.378271
-0.973419
-1.60414
-1.86678
-1.88686
-0.407375
-0.322397
-0.22779
-0.125583
-0.0164449
0.0994473
0.220483
0.34483
0.469876
0.588888
0.670225
0.679672
0.597851
0.406846
0.114254
-0.282065
-0.818722
-1.42425
-1.72007
-1.6741
-0.439247
-0.353377
-0.257088
-0.153127
-0.0421766
0.0750254
0.197052
0.322249
0.447245
0.564389
0.644174
0.658143
0.595234
0.446169
0.219255
-0.0978764
-0.524267
-0.969259
-1.17767
-1.11265
-0.472257
-0.385602
-0.288208
-0.182632
-0.0697604
0.0492593
0.172671
0.298092
0.422143
0.53805
0.618996
0.641685
0.603956
0.503958
0.357753
0.173068
-0.0435518
-0.200833
-0.255001
-0.227917
-0.506612
-0.419182
-0.320581
-0.213377
-0.098889
0.0213737
0.145689
0.271535
0.395692
0.512336
0.596349
0.63031
0.619484
0.573449
0.508336
0.443252
0.394893
0.385034
0.413448
0.433082
-0.542559
-0.45464
-0.355142
-0.246354
-0.130184
-0.00841981
0.117248
0.244094
0.369177
0.487956
0.576557
0.623527
0.638576
0.635206
0.628759
0.630587
0.651353
0.693838
0.738218
0.752942
-0.581334
-0.492174
-0.390997
-0.280471
-0.16261
-0.0392895
0.087949
0.216435
0.343423
0.465283
0.560739
0.621191
0.65813
0.684069
0.710382
0.742812
0.783588
0.828764
0.865687
0.877298
-0.62258
-0.531705
-0.428374
-0.315846
-0.196038
-0.0706899
0.058635
0.189308
0.31901
0.444783
0.548648
0.621861
0.675393
0.71995
0.762025
0.804028
0.845666
0.884314
0.915296
0.924963
-0.665239
-0.572108
-0.466362
-0.351453
-0.229302
-0.101549
0.0301136
0.163269
0.296082
0.426253
0.538452
0.623291
0.689181
0.745207
0.794851
0.839843
0.879996
0.914456
0.940941
0.951057
-0.707467
-0.611943
-0.50358
-0.386034
-0.261322
-0.131053
0.00301165
0.138796
0.274876
0.410044
0.529939
0.623663
0.698588
0.761353
0.815026
0.86114
0.900386
0.933229
0.958228
0.968012
-0.747112
-0.649288
-0.538333
-0.418195
-0.290981
-0.158335
-0.0219976
0.116341
0.255586
0.395903
0.522138
0.623101
0.703643
0.770214
0.825877
0.872394
0.911094
0.943063
0.967077
0.976651
-0.781538
-0.681919
-0.568705
-0.446286
-0.316971
-0.182362
-0.0441512
0.0963296
0.238369
0.382738
0.513811
0.619779
0.703727
0.772468
0.829036
0.875626
0.913861
0.945267
0.968493
0.978063
-0.807478
-0.707098
-0.59242
-0.468368
-0.337645
-0.201924
-0.0625974
0.0791425
0.222901
0.369827
0.504003
0.612881
0.698812
0.768458
0.825254
0.871611
0.909448
0.940298
0.962804
0.972302
-0.821325
-0.721636
-0.606503
-0.48208
-0.351176
-0.215483
-0.0763578
0.0651501
0.209062
0.356756
0.491792
0.601594
0.688164
0.757878
0.814442
0.860453
0.897906
0.928317
0.950361
0.959993
-0.818918
-0.722138
-0.607673
-0.484379
-0.355121
-0.221452
-0.0845827
0.0547243
0.196588
0.342613
0.47656
0.585097
0.670853
0.739847
0.795809
0.841346
0.878445
0.908555
0.930266
0.940071
-0.796404
-0.702928
-0.591356
-0.471678
-0.346631
-0.217748
-0.0859702
0.0482729
0.18537
0.326825
0.457127
0.562233
0.645582
0.712829
0.767651
0.812461
0.849128
0.878962
0.900519
0.910572
-0.743932
-0.657274
-0.552456
-0.439781
-0.322786
-0.2025
-0.0794048
0.0463904
0.175394
0.308986
0.432221
0.531502
0.610414
0.674477
0.7271
0.770504
0.806334
0.835768
0.857547
0.868161
-0.652336
-0.576941
-0.484092
-0.384321
-0.280841
-0.174035
-0.0639478
0.0494992
0.166742
0.288767
0.401359
0.491727
0.563366
0.621592
0.669738
0.709802
0.743069
0.77061
0.793209
0.803517
-0.515293
-0.457647
-0.382808
-0.303523
-0.22
-0.131989
-0.0393469
0.0579379
0.159909
0.266803
0.365158
0.443126
0.503834
0.552276
0.591733
0.624363
0.650978
0.671784
0.687462
0.694445
-0.304412
-0.280989
-0.243157
-0.196679
-0.141707
-0.0786325
-0.00774094
0.0706531
0.156089
0.24797
0.333386
0.400694
0.45207
0.491587
0.521957
0.545262
0.563746
0.57901
0.590893
0.595477
-0.126194
-0.120941
-0.108963
-0.089133
-0.0602032
-0.0211877
0.0281466
0.0875312
0.156227
0.23305
0.305845
0.363116
0.405962
0.437817
0.461269
0.478123
0.489406
0.496099
0.499564
0.500838
-0.0272013
-0.0263166
-0.0216373
-0.0119041
0.00422384
0.0283254
0.0617775
0.105311
0.158822
0.221278
0.281816
0.329447
0.364434
0.38952
0.406849
0.418262
0.425412
0.42958
0.431518
0.431926
0.0274143
0.0279191
0.0304351
0.0362771
0.0467806
0.0632904
0.0871371
0.119462
0.160834
0.210769
0.260122
0.299037
0.327284
0.347145
0.360654
0.369473
0.374863
0.377817
0.379144
0.379483
0.0629011
0.0634987
0.0654144
0.0694509
0.0766168
0.0881672
0.10545
0.129682
0.161636
0.201207
0.240967
0.272428
0.295128
0.310915
0.321474
0.328224
0.332303
0.334573
0.335647
0.335948
0.0864047
0.0869039
0.0883715
0.0913548
0.0966054
0.10508
0.117901
0.136218
0.160905
0.192089
0.223841
0.24907
0.267219
0.279752
0.288078
0.293381
0.296578
0.298354
0.299198
0.299434
0.101751
0.102165
0.103299
0.10555
0.109472
0.115816
0.125491
0.139478
0.1586
0.183098
0.208317
0.228439
0.242896
0.252852
0.259443
0.263628
0.26615
0.267554
0.268224
0.268412
0.111209
0.111536
0.112412
0.114128
0.117111
0.121931
0.129312
0.140061
0.1549
0.17412
0.194071
0.210051
0.221541
0.229442
0.234663
0.237974
0.239965
0.241075
0.241604
0.241752
0.116252
0.116507
0.117185
0.118505
0.12079
0.124488
0.130163
0.138467
0.150012
0.16508
0.180823
0.193478
0.202582
0.20884
0.212974
0.215596
0.217176
0.218054
0.21847
0.218586
0.117957
0.11815
0.118675
0.119694
0.121459
0.124312
0.128699
0.13514
0.144135
0.155944
0.168347
0.178344
0.185549
0.190504
0.193774
0.195846
0.19709
0.197782
0.198112
0.198203
0.117097
0.117252
0.11766
0.118451
0.119818
0.122029
0.125433
0.130442
0.137461
0.146714
0.156471
0.164358
0.170046
0.173959
0.176544
0.17818
0.179163
0.179709
0.179966
0.180036
0.114272
0.114393
0.11471
0.115324
0.116386
0.118105
0.120754
0.124658
0.130142
0.137394
0.145065
0.151279
0.155763
0.158849
0.160886
0.162176
0.162951
0.163382
0.163587
0.163643
0.109926
0.11002
0.110268
0.110747
0.111573
0.112911
0.114975
0.118021
0.122308
0.127989
0.134012
0.138899
0.142431
0.144864
0.146473
0.147492
0.148102
0.14844
0.148598
0.148641
0.104397
0.104471
0.104663
0.105036
0.10568
0.106725
0.108335
0.110714
0.114066
0.118517
0.123245
0.127086
0.129866
0.131779
0.133043
0.133842
0.134321
0.134586
0.134711
0.134745
0.0979503
0.0980077
0.0981579
0.0984485
0.0989514
0.0997656
0.101022
0.102879
0.1055
0.108985
0.112691
0.115706
0.117889
0.119391
0.120383
0.12101
0.121388
0.121598
0.121696
0.121722
0.0907855
0.0908302
0.0909475
0.0911742
0.0915658
0.0922012
0.0931821
0.0946337
0.0966823
0.0994065
0.102309
0.10467
0.106378
0.107557
0.108337
0.108832
0.109127
0.109289
0.109365
0.109385
0.0830648
0.0830995
0.0831904
0.0833669
0.0836729
0.0841681
0.0849326
0.0860639
0.087662
0.0897901
0.0920596
0.0939078
0.0952462
0.0961698
0.0967788
0.0971627
0.0973931
0.09752
0.0975793
0.097595
0.074908
0.0749352
0.0750063
0.0751438
0.0753815
0.0757665
0.0763608
0.0772399
0.0784834
0.0801414
0.0819084
0.0833496
0.0843962
0.0851166
0.0855913
0.0858915
0.0860705
0.0861693
0.086215
0.086227
0.0664162
0.0664369
0.0664914
0.0665968
0.06678
0.0670785
0.0675404
0.0682236
0.0691885
0.0704747
0.0718457
0.0729618
0.0737685
0.0743235
0.0746907
0.0749233
0.0750635
0.0751408
0.0751768
0.0751861
0.0576603
0.0576764
0.0577188
0.057801
0.0579428
0.0581713
0.0585253
0.0590502
0.0597921
0.0607811
0.0618352
0.0626941
0.0633159
0.0637454
0.0640313
0.0642112
0.0643163
0.0643735
0.0643999
0.0644065
0.0487047
0.0487169
0.0487489
0.0488107
0.0489192
0.0490934
0.0493617
0.04976
0.0503233
0.0510745
0.0518767
0.0525306
0.0530044
0.0533305
0.0535424
0.0536754
0.0537554
0.053799
0.0538186
0.0538244
0.0395974
0.0396061
0.0396295
0.0396747
0.0397537
0.0398842
0.0400863
0.040384
0.0408034
0.0413616
0.0419564
0.0424403
0.0427883
0.0430255
0.043181
0.0432789
0.0433367
0.0433697
0.0433858
0.0433901
0.0303726
0.0303797
0.0303978
0.0304336
0.0304923
0.0305867
0.0307305
0.0309422
0.0312412
0.0316387
0.0320623
0.0324082
0.0326597
0.0328317
0.0329404
0.0330046
0.0330413
0.0330631
0.0330721
0.0330748
0.0210711
0.0210794
0.0210962
0.0211225
0.021162
0.0212246
0.0213205
0.0214592
0.021654
0.0219131
0.0221893
0.0224137
0.0225762
0.0226846
0.0227594
0.022809
0.0228359
0.0228408
0.0228369
0.0228365
0.0117169
0.0117223
0.0117308
0.0117478
0.011774
0.0118083
0.0118573
0.0119306
0.0120348
0.0121757
0.0123262
0.0124456
0.0125274
0.0125869
0.0126262
0.0126452
0.0126541
0.0126639
0.0126666
0.0126681
0.00234911
0.00234601
0.00234293
0.00234354
0.00233725
0.0023398
0.00234859
0.00236176
0.00237991
0.00240444
0.00243624
0.00247178
0.00249866
0.00252055
0.00253065
0.00253833
0.00254607
0.00254532
0.0025365
0.00254471
-1.27842
-1.00379
-0.735907
-0.510854
-0.294145
-0.0662569
0.17374
0.410272
0.58305
0.543096
-0.750192
-0.561457
-0.372976
-0.19457
-0.0178971
0.15186
0.308473
0.434404
0.49569
0.487403
-0.355405
-0.224954
-0.0907602
0.0391072
0.162667
0.274342
0.366028
0.429404
0.461602
0.468962
-0.070629
0.016775
0.109532
0.197744
0.27837
0.347972
0.402181
0.439767
0.465538
0.477812
0.130424
0.188585
0.250031
0.307897
0.360017
0.404195
0.439117
0.465447
0.485331
0.501017
0.274327
0.313465
0.352268
0.3908
0.425313
0.455148
0.479856
0.499868
0.515886
0.527756
0.379998
0.404149
0.431626
0.458635
0.48393
0.506427
0.525325
0.539799
0.549111
0.554181
0.462245
0.480249
0.503315
0.526194
0.54691
0.564348
0.577733
0.584614
0.587019
0.586466
0.525552
0.544444
0.566677
0.586941
0.605679
0.62248
0.635788
0.643765
0.645117
0.64795
0.582807
0.609911
0.640624
0.670486
0.697404
0.71848
0.732044
0.738603
0.735396
0.742474
0.668141
0.717626
0.760321
0.792964
0.816714
0.834075
0.847406
0.856143
0.860226
0.873522
0.8306
0.866215
0.894519
0.917053
0.936746
0.955317
0.972086
0.985928
0.998935
1.01569
1.01944
1.03899
1.05599
1.07391
1.0903
1.10414
1.11577
1.12909
1.14568
1.16449
1.2045
1.21602
1.22902
1.23979
1.24912
1.25853
1.26917
1.28018
1.28948
1.30442
1.41528
1.41728
1.40261
1.38765
1.38099
1.38637
1.40484
1.43506
1.46682
1.49741
1.72051
1.58362
1.50717
1.46491
1.44774
1.452
1.47899
1.53487
1.63844
1.85362
0.750914
0.748736
0.745368
0.737811
0.726991
0.71621
0.707004
0.699632
0.694148
0.691316
0.690939
0.692609
0.697246
0.703861
0.712205
0.722376
0.733465
0.743278
0.747933
0.751078
0.676007
0.681333
0.688149
0.693107
0.695751
0.695733
0.693673
0.690485
0.687357
0.684889
0.684387
0.686428
0.689392
0.692848
0.695797
0.697004
0.695784
0.69187
0.686136
0.678949
0.679051
0.680547
0.683496
0.685878
0.687488
0.688381
0.687938
0.686664
0.685039
0.683635
0.683396
0.684685
0.686579
0.68825
0.689255
0.68914
0.687862
0.685957
0.683189
0.680689
0.677307
0.677433
0.677871
0.678577
0.679323
0.679853
0.680055
0.679834
0.679271
0.678709
0.678717
0.679459
0.680388
0.681015
0.681139
0.680867
0.680267
0.679546
0.678964
0.678712
0.671904
0.67198
0.672205
0.672482
0.67274
0.672932
0.672993
0.672894
0.672638
0.6724
0.672521
0.673084
0.673693
0.674154
0.674351
0.67434
0.674188
0.673965
0.673732
0.673584
0.666582
0.666618
0.666691
0.666814
0.666972
0.667141
0.667281
0.667365
0.6674
0.667475
0.667744
0.66819
0.668598
0.668831
0.668922
0.668886
0.668787
0.668668
0.668562
0.668499
0.660669
0.660698
0.660759
0.660845
0.660953
0.661082
0.661223
0.661374
0.661544
0.66178
0.662144
0.662572
0.66293
0.663166
0.663288
0.663327
0.663317
0.663284
0.663244
0.663214
0.65477
0.654787
0.654836
0.654906
0.655001
0.655127
0.655291
0.655503
0.655778
0.656149
0.656633
0.657127
0.657511
0.657763
0.657911
0.657986
0.658015
0.658017
0.658005
0.657991
0.648802
0.648809
0.648841
0.6489
0.648991
0.649126
0.649318
0.649589
0.64996
0.650463
0.651087
0.651686
0.652136
0.652447
0.652643
0.652758
0.652819
0.652846
0.652852
0.652847
0.642692
0.642696
0.642728
0.642786
0.642883
0.643037
0.643271
0.643612
0.644093
0.644747
0.645545
0.646294
0.646852
0.647242
0.647498
0.647656
0.647747
0.647794
0.647813
0.647815
0.636422
0.636423
0.636454
0.63652
0.636635
0.636823
0.637113
0.637544
0.638158
0.638996
0.640014
0.640963
0.641671
0.642162
0.642488
0.642695
0.642818
0.642887
0.642919
0.642925
0.629949
0.629948
0.629985
0.630064
0.630205
0.630438
0.630802
0.631349
0.632133
0.633204
0.634503
0.635708
0.636603
0.63723
0.637649
0.637916
0.638077
0.638168
0.638212
0.638223
0.623216
0.623214
0.623258
0.623356
0.623534
0.623829
0.624293
0.62499
0.625992
0.627359
0.629015
0.630547
0.631684
0.632481
0.633014
0.633356
0.633564
0.633683
0.633741
0.633756
0.616151
0.616148
0.616204
0.616329
0.616555
0.616932
0.617526
0.618418
0.6197
0.621447
0.623559
0.625508
0.626953
0.627964
0.628641
0.629076
0.629341
0.629492
0.629568
0.629588
0.60866
0.608655
0.608727
0.608888
0.609179
0.609664
0.610427
0.611573
0.613217
0.615453
0.618146
0.620625
0.622457
0.623739
0.624597
0.625148
0.625485
0.625677
0.625774
0.625799
0.600615
0.600609
0.600703
0.600911
0.601288
0.601916
0.602902
0.604379
0.606492
0.609355
0.612789
0.615937
0.618259
0.619882
0.620967
0.621663
0.622088
0.62233
0.622451
0.622484
0.591848
0.591842
0.591964
0.592237
0.592729
0.593546
0.594826
0.596738
0.599461
0.60313
0.607507
0.611501
0.614436
0.616483
0.617851
0.618729
0.619265
0.619571
0.619724
0.619765
0.582134
0.582127
0.58229
0.58265
0.583298
0.58437
0.586042
0.588528
0.592046
0.596754
0.602329
0.607385
0.611089
0.613668
0.615389
0.616493
0.617166
0.61755
0.617742
0.617793
0.571163
0.571156
0.571376
0.571859
0.572721
0.574141
0.576343
0.579594
0.584156
0.590201
0.59729
0.603674
0.608332
0.611572
0.613735
0.615122
0.615968
0.61645
0.61669
0.616753
0.558499
0.558495
0.558798
0.559457
0.560624
0.56253
0.565462
0.569746
0.575686
0.583453
0.592445
0.600472
0.606308
0.610364
0.613076
0.614817
0.615882
0.616488
0.61679
0.616868
0.543519
0.543522
0.543956
0.544877
0.546491
0.549098
0.55306
0.558762
0.566534
0.576509
0.587864
0.597896
0.605173
0.610241
0.613641
0.615831
0.617175
0.617942
0.618325
0.618424
0.525274
0.525299
0.525948
0.527289
0.529594
0.533257
0.538719
0.546406
0.556621
0.569401
0.583641
0.59608
0.605092
0.611404
0.615675
0.61845
0.620163
0.621147
0.621642
0.621772
0.502221
0.502308
0.503365
0.50544
0.508894
0.514237
0.521967
0.532474
0.545936
0.562223
0.579896
0.59514
0.606201
0.614034
0.619419
0.62298
0.625216
0.626523
0.627193
0.627378
0.471609
0.471904
0.473866
0.477385
0.482935
0.491128
0.502384
0.516896
0.534601
0.555137
0.576751
0.595146
0.608552
0.618217
0.625047
0.629718
0.632761
0.634614
0.63562
0.635935
0.428209
0.429224
0.433632
0.44036
0.450058
0.463221
0.479902
0.499925
0.522935
0.548385
0.574298
0.596061
0.612033
0.623825
0.632489
0.638747
0.643128
0.646064
0.647866
0.648543
0.36341
0.366357
0.377643
0.391867
0.40975
0.4311
0.455479
0.482478
0.511622
0.542347
0.572623
0.597732
0.616314
0.6304
0.641216
0.64956
0.655986
0.660934
0.664743
0.665795
0.280109
0.288939
0.312072
0.338925
0.367869
0.398709
0.431323
0.465478
0.500773
0.536772
0.571479
0.600203
0.621868
0.638878
0.652604
0.663879
0.673268
0.681231
0.687287
0.689668
0.201279
0.219452
0.253542
0.290717
0.329272
0.368894
0.409335
0.450269
0.491279
0.531977
0.570426
0.601979
0.625883
0.64492
0.660571
0.673675
0.684695
0.69395
0.701409
0.705507
0.15273
0.17163
0.209998
0.252924
0.297881
0.344014
0.39066
0.437175
0.482886
0.52721
0.568098
0.601075
0.625876
0.645549
0.661629
0.674949
0.68601
0.695185
0.702381
0.70639
0.117967
0.137531
0.178638
0.224922
0.27385
0.324458
0.375763
0.426678
0.47606
0.522947
0.565022
0.598118
0.622639
0.641952
0.657684
0.670693
0.681479
0.690401
0.697508
0.701631
0.0909593
0.110997
0.15407
0.20308
0.255253
0.309451
0.364458
0.418822
0.470947
0.519351
0.561373
0.593365
0.616641
0.634902
0.649812
0.662207
0.672548
0.681138
0.68803
0.692172
0.0688415
0.0896063
0.134563
0.185795
0.240625
0.297826
0.355951
0.413184
0.467396
0.516497
0.557375
0.587141
0.608305
0.624913
0.638625
0.650175
0.659945
0.66815
0.674821
0.678936
0.050228
0.0717066
0.118412
0.171727
0.228965
0.288857
0.34976
0.409499
0.465382
0.514549
0.553315
0.57975
0.597941
0.612305
0.624457
0.63497
0.644058
0.651839
0.658275
0.662343
0.0339658
0.0562414
0.104619
0.159879
0.219403
0.281849
0.345396
0.40749
0.464843
0.513684
0.54947
0.571455
0.585735
0.597244
0.607485
0.616769
0.625094
0.632411
0.638609
0.642655
0.0193216
0.0422774
0.0922401
0.149503
0.211289
0.276256
0.342424
0.406902
0.465729
0.514053
0.546157
0.562494
0.5718
0.579765
0.587733
0.595633
0.603129
0.609956
0.615899
0.619882
0.00542516
0.0292517
0.0807891
0.140029
0.204078
0.271601
0.340471
0.407463
0.467956
0.515825
0.543704
0.553103
0.556175
0.559784
0.565131
0.571549
0.578244
0.58464
0.590363
0.594349
-0.00801839
0.0165957
0.0697963
0.131012
0.197352
0.267488
0.339173
0.408909
0.471416
0.519144
0.542475
0.543527
0.538787
0.537064
0.539456
0.544468
0.550525
0.556663
0.562275
0.566314
-0.021496
0.00407147
0.0589269
0.122108
0.190771
0.263573
0.338214
0.410963
0.475936
0.5241
0.542877
0.534076
0.519489
0.511139
0.510283
0.514212
0.520156
0.526461
0.532244
0.536511
-0.035111
-0.00869362
0.0479172
0.113074
0.184074
0.259584
0.337291
0.413327
0.481307
0.530693
0.545315
0.525152
0.498037
0.481165
0.476752
0.480497
0.487435
0.494733
0.501164
0.50589
-0.0491633
-0.021764
0.0365803
0.103727
0.177061
0.255305
0.336154
0.415715
0.48726
0.538888
0.550216
0.517302
0.474089
0.44589
0.437314
0.442797
0.452838
0.462742
0.470888
0.476379
-0.0636453
-0.035266
0.0248221
0.0939442
0.169603
0.250573
0.334618
0.417875
0.493479
0.548471
0.557952
0.511297
0.447251
0.402595
0.389896
0.400082
0.416815
0.432234
0.44386
0.451096
-0.0787217
-0.0492277
0.0126182
0.0837002
0.161635
0.245266
0.332493
0.419546
0.499635
0.559127
0.56878
0.508187
0.416989
0.346444
0.330574
0.349868
0.379522
0.405743
0.42439
0.435019
-0.0939411
-0.0635968
4.36656e-07
0.0730127
0.15315
0.23935
0.329657
0.42055
0.505419
0.570467
0.582765
0.509285
0.383344
0.278346
0.250776
0.285925
0.340195
0.387329
0.418502
0.433746
-0.109613
-0.0782646
-0.0129463
0.0619365
0.144185
0.232815
0.326045
0.420698
0.510521
0.582014
0.599672
0.516124
0.348186
0.186117
0.136138
0.199307
0.297906
0.382403
0.435581
0.458982
-0.125572
-0.0931792
-0.0261459
0.0505768
0.134813
0.225701
0.321701
0.419905
0.514656
0.593226
0.618974
0.53012
0.313432
0.0597896
-0.0407528
0.0701836
0.255852
0.411871
0.493343
0.521292
-0.141777
-0.108317
-0.0394454
0.0390741
0.125103
0.21806
0.316642
0.418169
0.517635
0.603582
0.639816
0.552244
0.282701
-0.119787
-0.338023
-0.131288
0.208008
0.470787
0.596946
0.620606
-0.158203
-0.123635
-0.0527248
0.0274421
0.114991
0.209824
0.310781
0.415405
0.519478
0.613066
0.662235
0.584571
0.261749
-0.412401
-0.953842
-0.56557
0.125807
0.529408
0.729339
0.751163
-0.174649
-0.13899
-0.0656496
0.0157697
0.104497
0.201005
0.304115
0.411471
0.519914
0.621002
0.684779
0.626987
0.26938
-0.809741
-1.98796
-1.33121
-0.215252
0.357695
0.501855
0.431784
-0.190493
-0.153546
-0.0778292
0.00403545
0.0936432
0.191514
0.296578
0.406429
0.518765
0.626786
0.705394
0.675575
0.311924
-1.00385
-2.56312
-1.9441
-0.798107
-0.239445
-0.0125967
0.0255444
-0.209805
-0.165025
-0.0888012
-0.0077527
0.0826342
0.181743
0.28793
0.400368
0.515974
0.629977
0.722254
0.723313
0.408665
-0.80541
-2.21679
-1.83425
-1.06164
-0.602596
-0.388656
-0.310451
-0.160676
-0.133762
-0.0629414
0.0225747
0.118305
0.222599
0.335379
0.451733
0.570948
0.687115
0.764525
0.710999
0.230898
-0.930975
-1.42375