/*--------------------------------*- C++ -*----------------------------------*\
  =========                 |
  \\      /  F ield         | OpenFOAM: The Open Source CFD Toolbox
   \\    /   O peration     | Website:  https://openfoam.org
    \\  /    A nd           | Version:  9
     \\/     M anipulation  |
\*---------------------------------------------------------------------------*/
FoamFile
{
    format      ascii;
    class       surfaceScalarField;
    location    "3";
    object      phi;
}
// * * * * * * * * * * * * * * * * * * * * * * * * * * * * * * * * * * * * * //

dimensions      [0 3 -1 0 0 0 0];

internalField   nonuniform List<scalar> 
17370
(
-0.0909933
0.0953125
0.284692
-0.0765932
0.0574827
0.365886
-0.0403395
0.0288718
0.427636
-0.0198552
0.0141134
0.504993
-0.00968908
0.00689827
0.602193
-0.00470724
0.00334995
0.720415
-0.00230166
0.00171521
0.863493
-0.00123938
0.000876669
1.03581
-0.000505762
0.000258917
1.24275
-9.9866e-05
1.22736e-05
1.49128
8.78977e-05
-0.000267694
1.49137
0.000545419
-0.000923392
1.24307
0.00126943
-0.00174677
1.03612
0.00231676
-0.00334089
0.863931
0.00469298
-0.00688779
0.721252
0.00968562
-0.0141159
0.603645
0.0198614
-0.0288797
0.508458
0.0403473
-0.0574906
0.433311
0.0765992
-0.0953144
0.365491
0.0909991
0.198012
-0.131038
0.0988945
0.032144
-0.364944
0.356185
-0.0563373
0.0650962
-0.446044
0.449281
-0.0649022
0.061665
-0.52062
0.525782
-0.0575059
0.0523439
-0.612111
0.618354
-0.0468872
0.0406443
-0.726349
0.73215
-0.034848
0.0290474
-0.867166
0.871785
-0.0242054
0.0195865
-1.03832
1.04183
-0.0158799
0.0123775
-1.2446
1.24739
-0.00951336
0.0067237
-1.4928
1.4952
-0.00435128
0.0019461
-1.49279
1.49497
0.000225161
-0.00240144
-1.24404
1.2464
0.00486511
-0.00722329
-1.03748
1.04028
0.00992753
-0.012725
-0.865972
0.869557
0.0160773
-0.0196624
-0.724079
0.728884
0.0241568
-0.0289614
-0.608231
0.614047
0.0348611
-0.0406776
-0.514489
0.519961
0.0469408
-0.0524125
-0.439694
0.443865
0.0575809
-0.061752
-0.374024
0.374199
0.0649801
-0.0651559
-0.259067
0.23485
0.0563753
-0.0321586
-0.0860617
0.0818177
0.00424402
-0.0218733
0.0271374
-0.371372
0.366108
-0.0306328
0.0322931
-0.444316
0.442655
-0.0326089
0.0321506
-0.521603
0.522061
-0.0309377
0.0293759
-0.616988
0.61855
-0.0271577
0.0247754
-0.732569
0.734951
-0.0219146
0.0191666
-0.873183
0.875931
-0.0159851
0.0129871
-1.04347
1.04647
-0.00961647
0.00645626
-1.24916
1.25232
-0.00286115
-0.000579245
-1.49778
1.50122
0.00399708
-0.00752918
-1.49818
1.50171
0.0105985
-0.0139401
-1.2504
1.25375
0.0169158
-0.0201451
-1.04529
1.04852
0.0228776
-0.0256131
-0.875647
0.878383
0.027878
-0.0299664
-0.735865
0.737953
0.031399
-0.032544
-0.620852
0.621997
0.0329199
-0.0325291
-0.526733
0.526343
0.0308148
-0.0273001
-0.448482
0.444967
0.021987
-0.0134371
-0.34666
0.33811
0.0042692
-0.0860131
0.0817439
-0.0815218
0.081873
-0.000351157
-0.00422959
0.00830439
-0.360278
0.356203
-0.0127706
0.0162733
-0.438904
0.435402
-0.0191761
0.0209358
-0.521116
0.519357
-0.0219477
0.0220591
-0.619497
0.619385
-0.0214069
0.0203444
-0.736946
0.738008
-0.018665
0.0167611
-0.878537
0.880441
-0.0143932
0.0120315
-1.04921
1.05157
-0.00922304
0.00622556
-1.25546
1.25846
-0.00266813
-0.000766301
-1.50472
1.50816
0.00414826
-0.00754099
-1.50523
1.50862
0.0104836
-0.0134179
-1.25692
1.25985
0.0159115
-0.0182067
-1.05137
1.05366
0.0200594
-0.0217384
-0.880937
0.882616
0.0227911
-0.0232448
-0.739614
0.740068
0.0229537
-0.0217653
-0.622043
0.620855
0.019877
-0.0168482
-0.523902
0.520873
0.0132316
-0.00863576
-0.439394
0.434798
0.00443933
-0.000918934
-0.331835
0.328314
-0.00032929
-0.0814078
0.0817371
-0.0817494
0.0815041
0.00024525
-0.00226169
0.00391569
-0.353707
0.352053
-0.00588572
0.00765079
-0.432934
0.431169
-0.00941347
0.0108061
-0.517689
0.516297
-0.0120161
0.01281
-0.618727
0.617933
-0.0132768
0.0133051
-0.73823
0.738202
-0.0128638
0.0120508
-0.881588
0.882401
-0.010704
0.0091003
-1.05354
1.05514
-0.00696219
0.00469766
-1.26122
1.26349
-0.00186135
-0.000969705
-1.51147
1.5143
0.00376634
-0.00657141
-1.51192
1.51472
0.00877913
-0.0109108
-1.26235
1.26448
0.0124673
-0.0136629
-1.05539
1.05658
0.0143328
-0.0146032
-0.883295
0.883565
0.0144247
-0.0138069
-0.739683
0.739065
0.0128712
-0.0115093
-0.619377
0.618015
0.00998142
-0.00807914
-0.518368
0.516465
0.00619642
-0.00411783
-0.43175
0.429672
0.00239453
-0.000994764
-0.326265
0.324865
0.000279857
-0.081607
0.0813272
-0.0814085
0.0813838
2.47503e-05
-0.000698795
0.00142972
-0.350933
0.350202
-0.00242764
0.00339921
-0.429836
0.428865
-0.00445411
0.00536349
-0.515131
0.514222
-0.00625343
0.00692711
-0.617152
0.616478
-0.00744888
0.00761629
-0.738082
0.737914
-0.00748648
0.00708422
-0.882991
0.883393
-0.00630942
0.00528559
-1.05644
1.05746
-0.00383193
0.00239869
-1.26529
1.26672
-0.000603079
-0.00127137
-1.51662
1.51849
0.00311981
-0.0048057
-1.51689
1.51858
0.00606108
-0.00752609
-1.26641
1.26787
0.00844257
-0.00896767
-1.05738
1.0579
0.00911917
-0.0089852
-0.883571
0.883437
0.00860787
-0.00795902
-0.738391
0.737743
0.00718785
-0.00619804
-0.61682
0.615831
0.00520995
-0.0040839
-0.514985
0.513859
0.00305888
-0.00199136
-0.42818
0.427113
0.00114465
-0.00045295
-0.323885
0.323194
0.000102455
-0.0811534
0.081051
-0.0813236
0.0812407
8.28304e-05
-0.000597738
0.0009468
-0.349711
0.349362
-0.0013826
0.00181065
-0.42821
0.427782
-0.00229597
0.00273468
-0.513576
0.513137
-0.00318657
0.00354688
-0.615967
0.615606
-0.00384598
0.00397434
-0.737751
0.737622
-0.00394631
0.00374408
-0.883668
0.88387
-0.00330262
0.00268521
-1.05826
1.05888
-0.00177813
0.000833155
-1.26788
1.26882
0.000361832
-0.00160637
-1.52001
1.52126
0.00284167
-0.00396469
-1.51994
1.52106
0.00475647
-0.00527414
-1.26879
1.26931
0.00554713
-0.00575753
-1.05824
1.05845
0.00574803
-0.00553713
-0.883249
0.883039
0.00519767
-0.00470581
-0.737171
0.736679
0.0041807
-0.00355487
-0.615045
0.614419
0.00296402
-0.00231902
-0.513016
0.512371
0.00175016
-0.00116852
-0.42634
0.425758
0.000704084
-0.000307857
-0.322682
0.322286
8.48953e-05
-0.0809562
0.0808713
-0.0811777
0.0811466
3.11105e-05
-0.000315283
0.00049578
-0.349107
0.348927
-0.000694904
0.000881378
-0.4275
0.427314
-0.00109096
0.00128134
-0.512844
0.512654
-0.00147843
0.00163384
-0.615362
0.615207
-0.00175731
0.00180224
-0.737534
0.73749
-0.00175906
0.00161524
-0.884031
0.884175
-0.00132409
0.000925427
-1.05936
1.05976
-0.000339202
-0.000302609
-1.2696
1.27024
0.00112459
-0.00195886
-1.52228
1.52311
0.00275874
-0.00347908
-1.52198
1.5227
0.00394474
-0.00407875
-1.26958
1.26971
0.00408747
-0.00410242
-1.05856
1.05857
0.00399952
-0.00376849
-0.882816
0.882585
0.00347808
-0.00310177
-0.736252
0.735876
0.0027265
-0.00230021
-0.613909
0.613483
0.00191153
-0.00149687
-0.511861
0.511447
0.00113647
-0.00077025
-0.425304
0.424937
0.00047531
-0.000216073
-0.32197
0.321711
6.22283e-05
-0.0807999
0.0807377
-0.081139
0.0811459
-6.93667e-06
-4.35126e-05
0.000101348
-0.348812
0.348754
-0.000171476
0.000235713
-0.427195
0.42713
-0.0003031
0.000358354
-0.512538
0.512483
-0.000406578
0.000432652
-0.615122
0.615096
-0.000431812
0.000393317
-0.737487
0.737525
-0.000296842
0.000147422
-0.884316
0.884465
9.58853e-05
-0.000398357
-1.0601
1.0604
0.00082126
-0.0012789
-1.27078
1.27123
0.00184713
-0.00239814
-1.52379
1.52434
0.00289175
-0.00328982
-1.52324
1.52364
0.00350643
-0.00352055
-1.26977
1.26979
0.00345443
-0.00333777
-1.05851
1.0584
0.00316361
-0.00291351
-0.882344
0.882094
0.00264762
-0.00233215
-0.735536
0.735221
0.00203395
-0.00170761
-0.613116
0.61279
0.00141672
-0.00111201
-0.511098
0.510793
0.000850566
-0.000586276
-0.424632
0.424368
0.000371174
-0.000175964
-0.321491
0.321295
5.34092e-05
-0.080681
0.0806276
-0.081164
0.0811916
-2.76574e-05
9.70155e-05
-0.000122728
-0.348743
0.348769
0.000152884
-0.00018413
-0.427116
0.427147
0.000224657
-0.000269805
-0.512481
0.512526
0.00033159
-0.000403338
-0.615121
0.615193
0.000503762
-0.000621074
-0.737604
0.737721
0.000784147
-0.000970719
-0.884631
0.884817
0.00122209
-0.0014968
-1.06069
1.06096
0.00184643
-0.00220062
-1.27163
1.27199
0.00261008
-0.0029733
-1.52479
1.52515
0.00326099
-0.00344327
-1.52392
1.5241
0.00349649
-0.00344521
-1.26977
1.26972
0.003302
-0.00310058
-1.05823
1.05803
0.00287687
-0.00260233
-0.881833
0.881559
0.00233652
-0.00203859
-0.734919
0.734621
0.00176846
-0.0014806
-0.612489
0.612201
0.00122954
-0.000969989
-0.510517
0.510258
0.000748713
-0.00052469
-0.42413
0.423905
0.000339621
-0.000166259
-0.321115
0.320941
5.23553e-05
-0.0805753
0.0805229
-0.0812267
0.0812703
-4.35479e-05
0.000221824
-0.000311962
-0.348827
0.348917
0.000414534
-0.000516817
-0.427216
0.427318
0.000640616
-0.00076609
-0.512613
0.512738
0.000919025
-0.00107491
-0.615308
0.615464
0.00126576
-0.00146065
-0.737877
0.738072
0.00169922
-0.00194094
-0.885029
0.885271
0.00223289
-0.00252115
-1.06124
1.06153
0.00285504
-0.00316347
-1.27231
1.27262
0.00348468
-0.00373068
-1.52545
1.5257
0.00388224
-0.00392106
-1.5242
1.52424
0.00385572
-0.00369193
-1.26961
1.26945
0.00349087
-0.00322486
-1.0578
1.05753
0.00295494
-0.00264407
-0.881268
0.880958
0.00235549
-0.00204302
-0.734319
0.734006
0.00176598
-0.00147632
-0.611916
0.611627
0.00122691
-0.000971114
-0.510004
0.509748
0.000754091
-0.00053464
-0.423688
0.423468
0.000352142
-0.000177152
-0.32077
0.320595
5.76495e-05
-0.0804686
0.080411
-0.0813227
0.081384
-6.13477e-05
0.000327844
-0.000474791
-0.349036
0.349183
0.000646966
-0.000817668
-0.427455
0.427625
0.00102156
-0.00122423
-0.512902
0.513105
0.00146564
-0.00170461
-0.615661
0.6159
0.00198737
-0.00226489
-0.738307
0.738585
0.0025893
-0.00290258
-0.885546
0.88586
0.00325971
-0.00359187
-1.06183
1.06217
0.00395014
-0.00425517
-1.27292
1.27323
0.00453824
-0.00471648
-1.5259
1.52608
0.00477596
-0.00470695
-1.52423
1.52416
0.00454677
-0.00428774
-1.26924
1.26898
0.00400287
-0.00365667
-1.05723
1.05688
0.00332453
-0.00295492
-0.88062
0.88025
0.00262106
-0.00226595
-0.733676
0.733321
0.00195581
-0.00163475
-0.611324
0.611003
0.00136002
-0.00107982
-0.509483
0.509203
0.000843042
-0.000603729
-0.423242
0.423002
0.000402824
-0.000206359
-0.320411
0.320215
6.84076e-05
-0.0803486
0.0802802
-0.0814551
0.0815367
-8.15584e-05
0.000447297
-0.000654228
-0.349359
0.349566
0.000898202
-0.00113989
-0.427831
0.428072
0.00142734
-0.00171141
-0.513347
0.513631
0.0020472
-0.00237671
-0.616182
0.616512
0.00276193
-0.00313457
-0.738908
0.73928
0.00356254
-0.00396602
-0.886216
0.886619
0.00441394
-0.00481634
-1.06253
1.06293
0.00523244
-0.00556613
-1.27354
1.27388
0.00584813
-0.00598855
-1.52624
1.52638
0.00597959
-0.00581559
-1.52404
1.52388
0.0055609
-0.00520007
-1.26867
1.26831
0.0048225
-0.00437954
-1.05649
1.05605
0.00396387
-0.00350979
-0.879842
0.879388
0.00310529
-0.00267941
-0.732934
0.732508
0.00231046
-0.00193031
-0.610656
0.610276
0.00160631
-0.00127684
-0.508901
0.508572
0.000999043
-0.000718124
-0.422744
0.422463
0.000481312
-0.000247973
-0.320002
0.319769
8.26501e-05
-0.0802054
0.0801227
-0.0816302
0.0817371
-0.000106923
0.000590946
-0.00086726
-0.349806
0.350082
0.00119362
-0.0015168
-0.428353
0.428676
0.00190059
-0.00227923
-0.51396
0.514339
0.00272566
-0.00316177
-0.616892
0.617328
0.00366894
-0.00415606
-0.739708
0.740195
0.00471049
-0.00522796
-0.887076
0.887594
0.00579427
-0.00629435
-1.06338
1.06388
0.00679851
-0.00718906
-1.27424
1.27463
0.0074969
-0.00762032
-1.52651
1.52663
0.00755322
-0.00729598
-1.52367
1.52341
0.00693901
-0.00645759
-1.26789
1.26741
0.00596761
-0.00540183
-1.05555
1.05498
0.00487821
-0.00431114
-0.878881
0.878314
0.00380919
-0.00328362
-0.732036
0.731511
0.00282979
-0.00236374
-0.609857
0.609391
0.00196792
-0.00156587
-0.50821
0.507807
0.0012268
-0.000883646
-0.422154
0.421811
0.00059396
-0.000307373
-0.31951
0.319224
0.000103056
-0.0800303
0.0799273
-0.0818589
0.0819978
-0.000138906
0.000769736
-0.00113109
-0.350399
0.35076
0.00155819
-0.0019809
-0.429047
0.429469
0.00248231
-0.00297621
-0.514772
0.515266
0.00355745
-0.00412438
-0.617826
0.618393
0.00478214
-0.00541177
-0.740749
0.741378
0.00612548
-0.0067874
-0.888179
0.888841
0.00750672
-0.0081351
-1.06444
1.06507
0.00876001
-0.00923325
-1.27505
1.27553
0.00959066
-0.00970929
-1.52675
1.52687
0.00958662
-0.009225
-1.5231
1.52274
0.00874807
-0.00811972
-1.26686
1.26623
0.00748785
-0.0067662
-1.05434
1.05362
0.00610177
-0.00538679
-0.877678
0.876963
0.00475589
-0.0040974
-0.730923
0.730265
0.00352975
-0.00294841
-0.608871
0.60829
0.00245464
-0.00195396
-0.507359
0.506858
0.00153179
-0.00110496
-0.421429
0.421002
0.000744265
-0.000386245
-0.318904
0.318546
0.000129723
-0.0798114
0.0796817
-0.0821557
0.0823354
-0.00017977
0.000996221
-0.0014643
-0.351172
0.35164
0.00201772
-0.00256549
-0.429951
0.430499
0.00321517
-0.00385472
-0.515829
0.516468
0.0046067
-0.00533881
-0.619038
0.61977
0.0061864
-0.00699605
-0.742093
0.742902
0.00791083
-0.00875673
-0.889589
0.890435
0.0096711
-0.0104653
-1.06577
1.06657
0.0112477
-0.0118317
-1.27605
1.27664
0.0122591
-0.0123799
-1.52699
1.52711
0.0121936
-0.0117063
-1.52232
1.52183
0.0110813
-0.010268
-1.26552
1.2647
0.0094583
-0.00853698
-1.05281
1.05188
0.00769364
-0.00678748
-0.876158
0.875252
0.00599061
-0.00515987
-0.729526
0.728695
0.00444542
-0.00371359
-0.607638
0.606906
0.00309243
-0.00246214
-0.506298
0.505667
0.00193111
-0.00139382
-0.420524
0.419987
0.000939155
-0.000487347
-0.318144
0.317692
0.000163598
-0.0795365
0.0793729
-0.0825405
0.082774
-0.000233525
0.00129003
-0.00189517
-0.352172
0.352777
0.00261037
-0.00331802
-0.431121
0.431829
0.00415658
-0.00498158
-0.517194
0.518019
0.00595066
-0.00689338
-0.620601
0.621543
0.00798341
-0.00902254
-0.74382
0.744859
0.0101943
-0.0112742
-0.891391
0.892471
0.0124372
-0.0134418
-1.06746
1.06847
0.0144243
-0.0151488
-1.27729
1.27801
0.0156654
-0.0157897
-1.52723
1.52736
0.0155236
-0.0148788
-1.52127
1.52062
0.0140664
-0.0130196
-1.26378
1.26273
0.011982
-0.0108071
-1.05084
1.04967
0.0097335
-0.00858265
-0.874232
0.873081
0.00757178
-0.00651936
-0.72776
0.726708
0.00561461
-0.00468871
-0.606083
0.605157
0.00390339
-0.0031074
-0.504959
0.504163
0.00243699
-0.0017587
-0.419383
0.418705
0.00118457
-0.000614102
-0.317185
0.316614
0.000205863
-0.0791895
0.0789837
-0.0830404
0.0833449
-0.000304543
0.00167444
-0.00245702
-0.353465
0.354248
0.00338128
-0.00429564
-0.432633
0.433548
0.00537847
-0.00644293
-0.518957
0.520021
0.00769217
-0.00890587
-0.622613
0.623827
0.0103071
-0.0116403
-0.746036
0.747369
0.0131395
-0.0145168
-0.89369
0.895068
0.0159941
-0.0172633
-1.0696
1.07087
0.0184952
-0.0193929
-1.27882
1.27972
0.020016
-0.020138
-1.52748
1.5276
0.0197652
-0.0189146
-1.51988
1.51903
0.0178616
-0.0165155
-1.26155
1.2602
0.0151886
-0.0136909
-1.04834
1.04684
0.0123254
-0.0108646
-0.871784
0.870323
0.00958224
-0.00824877
-0.725523
0.72419
0.0071026
-0.00593031
-0.604115
0.602943
0.0049363
-0.003929
-0.503268
0.50226
0.00308058
-0.00222241
-0.417942
0.417084
0.00149651
-0.00077566
-0.315973
0.315252
0.000259947
-0.0787523
0.0784924
-0.0836933
0.0840926
-0.000399249
0.0021813
-0.00319633
-0.355139
0.356154
0.00439427
-0.00557868
-0.434588
0.435772
0.00697996
-0.00835602
-0.521231
0.522607
0.00996881
-0.0115329
-0.625204
0.626768
0.0133349
-0.0150452
-0.748879
0.750589
0.0169625
-0.0187171
-0.896623
0.898377
0.0205896
-0.0221883
-1.07229
1.07389
0.0237255
-0.0248295
-1.28071
1.28182
0.0255708
-0.0256742
-1.52772
1.52782
0.0251532
-0.0240331
-1.51806
1.51694
0.0226695
-0.0209413
-1.25867
1.25695
0.0192456
-0.0173375
-1.04515
1.04325
0.0156021
-0.0137476
-0.868677
0.866822
0.0121221
-0.0104322
-0.722688
0.720998
0.00898115
-0.00749748
-0.601624
0.60014
0.0062399
-0.00496562
-0.501127
0.499853
0.00389255
-0.00280722
-0.416119
0.415033
0.00188925
-0.000978051
-0.314442
0.313531
0.000327023
-0.0782005
0.0778734
-0.0845518
0.0850805
-0.000528711
0.00286224
-0.0041849
-0.357311
0.358634
0.00574373
-0.0072837
-0.437122
0.438662
0.00910325
-0.0108876
-0.524173
0.525957
0.012975
-0.0149954
-0.628545
0.630566
0.0173167
-0.0195119
-0.752527
0.754722
0.0219625
-0.0241927
-0.900356
0.902586
0.0265571
-0.0285579
-1.07568
1.07768
0.0304596
-0.0317992
-1.28303
1.28437
0.032659
-0.032711
-1.52791
1.52796
0.0319797
-0.0305022
-1.51565
1.51417
0.0287385
-0.0265232
-1.25499
1.25277
0.0243617
-0.0219363
-1.04109
1.03867
0.0197343
-0.017384
-0.864734
0.862384
0.0153256
-0.013187
-0.719097
0.716959
0.0113514
-0.00947478
-0.598471
0.596595
0.0078843
-0.00627263
-0.49842
0.496808
0.00491559
-0.00354341
-0.413812
0.41244
0.00238325
-0.00123262
-0.312507
0.311356
0.000411611
-0.0775072
0.0770956
-0.0856919
0.0864012
-0.000709318
0.00379271
-0.00552889
-0.360147
0.361883
0.00757171
-0.00958678
-0.440421
0.442436
0.0119634
-0.0142888
-0.527993
0.530318
0.0170019
-0.0196185
-0.632864
0.635481
0.022612
-0.0254293
-0.757209
0.760027
0.0285548
-0.0313787
-0.905097
0.907921
0.0343435
-0.0368235
-1.07991
1.08239
0.0391409
-0.0407314
-1.28584
1.28743
0.041686
-0.0416264
-1.52796
1.5279
0.0405945
-0.038644
-1.51248
1.51053
0.0363654
-0.0335334
-1.25027
1.24744
0.0307852
-0.0277122
-1.03594
1.03286
0.0249277
-0.0219588
-0.859741
0.856772
0.0193593
-0.0166587
-0.714555
0.711854
0.0143397
-0.011969
-0.594485
0.592114
0.00995956
-0.00792337
-0.494996
0.49296
0.00620848
-0.004474
-0.410897
0.409163
0.00300746
-0.00155357
-0.310063
0.308609
0.000517706
-0.0766344
0.0761167
-0.0872304
0.0882006
-0.00097016
0.00510479
-0.00741241
-0.363876
0.366183
0.0101186
-0.012778
-0.444747
0.447406
0.0159035
-0.0189507
-0.53298
0.536028
0.0224913
-0.0258904
-0.638464
0.641864
0.0297564
-0.0333679
-0.763218
0.76683
0.0373382
-0.0408853
-0.91109
0.914638
0.0445604
-0.047582
-1.08514
1.08816
0.0503406
-0.052162
-1.28914
1.29096
0.0531427
-0.0528669
-1.52775
1.52748
0.0514043
-0.048831
-1.50829
1.50571
0.0458988
-0.042298
-1.24424
1.24064
0.0388247
-0.0349528
-1.02941
1.02554
0.031448
-0.0277122
-0.853439
0.849703
0.0244404
-0.0210396
-0.708821
0.70542
0.0181181
-0.0151284
-0.589451
0.586461
0.012592
-0.0100191
-0.490672
0.488099
0.00785042
-0.00565517
-0.407213
0.405018
0.00379865
-0.00195953
-0.306975
0.305136
0.000651726
-0.0755363
0.0748846
-0.0893532
0.0907281
-0.00137485
0.00706761
-0.0101999
-0.368832
0.371965
0.0138396
-0.0173877
-0.450473
0.454021
0.0215303
-0.0255475
-0.539541
0.543559
0.0301868
-0.0346092
-0.645754
0.650176
0.039594
-0.0441994
-0.770916
0.775522
0.0491931
-0.0535832
-0.918593
0.922983
0.0580413
-0.0616188
-1.09146
1.09504
0.0647745
-0.0667382
-1.29287
1.29484
0.0675999
-0.0669398
-1.52703
1.52637
0.0648665
-0.0614822
-1.50276
1.49937
0.0577343
-0.0531934
-1.23659
1.23205
0.0488446
-0.0440102
-1.02121
1.01637
0.0396371
-0.034971
-0.845522
0.840856
0.0308774
-0.0266134
-0.701607
0.697343
0.0229425
-0.0191786
-0.583102
0.579338
0.0159794
-0.0127282
-0.485206
0.481955
0.00998179
-0.00719571
-0.402552
0.399766
0.00483458
-0.00249371
-0.30307
0.300729
0.000829605
-0.0741511
0.0733214
-0.092377
0.0944778
-0.00210075
0.0103471
-0.0147316
-0.37553
0.379914
0.0197056
-0.0244701
-0.45818
0.462945
0.029973
-0.0352745
-0.548273
0.553574
0.0413484
-0.0470814
-0.655271
0.661005
0.0534583
-0.0592495
-0.780708
0.786499
0.065399
-0.0706766
-0.927813
0.93309
0.0758839
-0.0799175
-1.09886
1.10289
0.0832961
-0.0851978
-1.2968
1.2987
0.0856799
-0.0843789
-1.52543
1.52413
0.0814519
-0.0770317
-1.4955
1.49108
0.0722917
-0.0666409
-1.22697
1.22132
0.0612717
-0.0553219
-1.011
1.00505
0.0499409
-0.0441885
-0.835655
0.829903
0.0391271
-0.0338348
-0.692565
0.687272
0.0292603
-0.0245504
-0.575098
0.570388
0.0205292
-0.0164218
-0.478289
0.474182
0.0129298
-0.00936027
-0.396642
0.393072
0.00630849
-0.00326151
-0.298111
0.295064
0.00108972
-0.072386
0.0712963
-0.0968945
0.100597
-0.00370292
0.016682
-0.0229319
-0.38488
0.39113
0.0296917
-0.0360271
-0.468846
0.475181
0.0432704
-0.0502183
-0.560034
0.566982
0.0581022
-0.0654229
-0.667639
0.67496
0.0733917
-0.080439
-0.7929
0.799947
0.0876907
-0.093704
-0.938723
0.944736
0.099402
-0.10359
-1.10702
1.11121
0.106813
-0.108283
-1.30042
1.30189
0.107982
-0.105686
-1.52237
1.52007
0.101603
-0.0958977
-1.48604
1.48034
0.0899928
-0.0830885
-1.21505
1.20815
0.0765965
-0.0694351
-0.998487
0.991326
0.0629655
-0.0560385
-0.823533
0.816606
0.0499224
-0.0434951
-0.681339
0.674912
0.0379074
-0.0321207
-0.565023
0.559236
0.0271442
-0.0220091
-0.469475
0.464339
0.017578
-0.0129589
-0.389069
0.38445
0.00887531
-0.00465801
-0.291764
0.287547
0.0015836
-0.0701012
0.0685176
-0.104264
0.112029
-0.00776579
0.0311124
-0.0397008
-0.398801
0.40739
0.0482862
-0.0563807
-0.483997
0.492091
0.0657141
-0.0745953
-0.575728
0.58461
0.0844778
-0.0933645
-0.683173
0.69206
0.102677
-0.11059
-0.807304
0.815217
0.118389
-0.124551
-0.950739
0.956901
0.130069
-0.133781
-1.11512
1.11883
0.136191
-0.136646
-1.30284
1.3033
0.134995
-0.13124
-1.51704
1.51328
0.125648
-0.118409
-1.47385
1.46661
0.11119
-0.102956
-1.20055
1.19232
0.095316
-0.0869613
-0.983521
0.975166
0.079443
-0.0714067
-0.809004
0.800967
0.064306
-0.0568248
-0.667694
0.660213
0.0502952
-0.0435025
-0.552489
0.545696
0.0376143
-0.0314659
-0.458197
0.452048
0.0260486
-0.0201237
-0.379125
0.3732
0.0142802
-0.00759181
-0.283331
0.276643
0.00254561
-0.0670335
0.0644878
-0.120403
0.122566
-0.00216286
0.0178203
-0.0260622
-0.420368
0.42861
0.0351033
-0.0442226
-0.504444
0.513563
0.0549384
-0.0656087
-0.595013
0.605683
0.077065
-0.087208
-0.700934
0.711077
0.0984003
-0.108245
-0.822606
0.832451
0.118405
-0.127076
-0.962339
0.97101
0.135638
-0.142453
-1.12164
1.12846
0.148455
-0.152349
-1.30273
1.30662
0.15434
-0.153633
-1.50842
1.50772
0.150105
-0.144153
-1.45839
1.45244
0.137198
-0.128343
-1.18332
1.17447
0.119672
-0.109228
-0.966171
0.955726
0.0995496
-0.0887676
-0.79228
0.781498
0.0789876
-0.0684446
-0.651875
0.641332
0.0588366
-0.0489154
-0.537656
0.527735
0.0405224
-0.0315215
-0.444317
0.435316
0.0237397
-0.0154869
-0.36609
0.357837
0.00825777
-0.00231693
-0.270652
0.264711
-0.000338377
-0.0619812
0.0623196
-0.130298
0.124643
0.00565502
-0.00375863
-0.00235965
-0.441268
0.447387
0.0105962
-0.0186417
-0.525242
0.533288
0.0284312
-0.0374801
-0.616171
0.62522
0.0476075
-0.0567971
-0.721206
0.730395
0.0665702
-0.0753975
-0.841893
0.850721
0.0845445
-0.0920937
-0.979486
0.987036
0.0997578
-0.105555
-1.13526
1.14106
0.110634
-0.113663
-1.31046
1.31349
0.114649
-0.113262
-1.50653
1.50514
0.109287
-0.103172
-1.44609
1.43998
0.096126
-0.0875257
-1.16558
1.15698
0.0793289
-0.070027
-0.945522
0.93622
0.0613766
-0.0518032
-0.770776
0.761202
0.0432705
-0.0345001
-0.630219
0.621449
0.0270531
-0.019448
-0.51661
0.509005
0.0131532
-0.00717682
-0.42394
0.417963
0.00252478
0.0016598
-0.346905
0.342721
-0.00416366
0.00466708
-0.255587
0.255084
-0.00282678
-0.0592228
0.0620495
-0.127389
0.123352
0.00403695
-0.00607642
0.00251242
-0.45711
0.460674
0.00296379
-0.00911132
-0.542593
0.548741
0.0166184
-0.0239409
-0.634136
0.641458
0.0322194
-0.0398456
-0.739015
0.746642
0.0482294
-0.055692
-0.858838
0.866301
0.063255
-0.0698479
-0.994387
1.00098
0.0763843
-0.0814261
-1.14651
1.15155
0.0854725
-0.0876707
-1.31604
1.31824
0.0882531
-0.0865522
-1.50339
1.50169
0.0825663
-0.0768074
-1.43372
1.42796
0.0704586
-0.0630981
-1.14885
1.14149
0.0559406
-0.0482276
-0.927336
0.919623
0.0412418
-0.0337038
-0.752726
0.745188
0.0273293
-0.0208171
-0.613282
0.60677
0.0155039
-0.0100689
-0.501128
0.495693
0.00593241
-0.00225922
-0.410339
0.406666
-0.000370288
0.00254765
-0.335444
0.333267
-0.00374172
0.00346406
-0.248492
0.24877
-0.00191406
-0.0596778
0.0615918
-0.126224
0.123217
0.00300702
-0.00539933
0.0030699
-0.468208
0.470538
0.000980629
-0.00595888
-0.555574
0.560553
0.0121656
-0.0179946
-0.648274
0.654103
0.0247712
-0.0310594
-0.753846
0.760135
0.0379702
-0.0441837
-0.873219
0.879432
0.0508766
-0.0563659
-1.00712
1.01261
0.0620224
-0.065977
-1.15623
1.16018
0.0694094
-0.0711859
-1.32033
1.32211
0.0713455
-0.0693283
-1.49982
1.4978
0.0656695
-0.0605537
-1.42211
1.41699
0.0550048
-0.0484089
-1.13444
1.12785
0.0424039
-0.036065
-0.912254
0.905915
0.0302801
-0.0244227
-0.738335
0.732477
0.0191758
-0.0140422
-0.600416
0.595282
0.00981226
-0.00575997
-0.490033
0.485981
0.00270665
7.03439e-05
-0.401005
0.398228
-0.00204352
0.00326105
-0.327702
0.326485
-0.00400477
0.00338772
-0.243351
0.243968
-0.00176097
-0.0593121
0.061073
-0.126599
0.124199
0.00239966
-0.00446527
0.00276821
-0.476917
0.478614
0.0010067
-0.00514698
-0.566279
0.570419
0.0101899
-0.0153839
-0.659869
0.665063
0.0210439
-0.0265608
-0.766028
0.771545
0.0325293
-0.0379166
-0.885248
0.890635
0.0436487
-0.0485363
-1.01796
1.02285
0.0533251
-0.0569681
-1.16401
1.16765
0.0598734
-0.0612754
-1.3236
1.325
0.0611628
-0.0590688
-1.49573
1.49364
0.0555532
-0.0506333
-1.41151
1.40659
0.0456039
-0.0398757
-1.12156
1.11583
0.0346507
-0.0290769
-0.899716
0.894142
0.024223
-0.0192257
-0.726776
0.721778
0.0149609
-0.0106825
-0.590286
0.586008
0.00723501
-0.0039466
-0.481445
0.478157
0.0013138
0.00095793
-0.393864
0.391592
-0.00230765
0.00335748
-0.321988
0.320938
-0.00392583
0.00305513
-0.239356
0.240226
-0.00159836
-0.0590989
0.0606973
-0.127452
0.125393
0.00205903
-0.00361388
0.0017764
-0.484364
0.486201
0.00133178
-0.0051923
-0.574973
0.578834
0.0100888
-0.0146324
-0.669827
0.674371
0.0196568
-0.0245786
-0.77657
0.781492
0.0300017
-0.0349102
-0.895757
0.900666
0.0402501
-0.0446077
-1.02749
1.03185
0.0489779
-0.0522766
-1.17102
1.17432
0.0547866
-0.0558749
-1.32613
1.32721
0.0554548
-0.0535168
-1.49143
1.4895
0.0499131
-0.045245
-1.40135
1.39668
0.0404418
-0.035056
-1.11009
1.10471
0.0304466
-0.0252821
-0.888676
0.883511
0.0208856
-0.0165477
-0.716914
0.712576
0.0128185
-0.00909342
-0.581912
0.578187
0.00606752
-0.00302832
-0.474446
0.471407
0.000907931
0.00103984
-0.388004
0.386056
-0.00244935
0.00328852
-0.317083
0.316244
-0.00359772
0.00287734
-0.236153
0.236873
-0.00146624
-0.058937
0.0604033
-0.12858
0.12699
0.00158989
-0.00252767
0.000745376
-0.491236
0.493018
0.00252179
-0.00596305
-0.583201
0.586642
0.0106264
-0.0149267
-0.678841
0.683142
0.0199327
-0.0244054
-0.786299
0.790772
0.0294117
-0.0339636
-0.905649
0.910201
0.0392007
-0.0433
-1.03628
1.04037
0.0472804
-0.0504381
-1.17741
1.18057
0.0530641
-0.0539113
-1.32823
1.32908
0.0533348
-0.0510729
-1.48702
1.48476
0.0475432
-0.042519
-1.39168
1.38666
0.0378547
-0.0327154
-1.09918
1.09404
0.0281511
-0.023425
-0.878457
0.873731
0.0192899
-0.0151114
-0.708102
0.703923
0.0118981
-0.0084264
-0.574436
0.570965
0.00556023
-0.0029335
-0.468161
0.465535
0.000866775
0.00107703
-0.383045
0.381101
-0.00229338
0.00304926
-0.313041
0.312285
-0.00327676
0.00266835
-0.233409
0.234017
-0.00141025
-0.0588519
0.0602621
-0.130127
0.128865
0.00126206
-0.00155648
-0.000276555
-0.497649
0.499482
0.00375914
-0.00729683
-0.590949
0.594487
0.0117961
-0.0159
-0.68743
0.691534
0.0205166
-0.0250813
-0.79544
0.800005
0.029979
-0.034867
-0.914701
0.919589
0.0396486
-0.0437423
-1.0446
1.0487
0.0479614
-0.0509369
-1.18358
1.18656
0.0530884
-0.0541734
-1.32969
1.33078
0.0534348
-0.050966
-1.48225
1.47978
0.0470087
-0.0418854
-1.38149
1.37637
0.0370028
-0.0316955
-1.08844
1.08313
0.0271552
-0.0224489
-0.868849
0.864142
0.018442
-0.0145814
-0.69982
0.695959
0.0112625
-0.00807229
-0.567447
0.564256
0.00549903
-0.00289635
-0.462625
0.460022
0.000866689
0.000754741
-0.378362
0.376741
-0.00196891
0.00279466
-0.309377
0.308551
-0.00307812
0.00251942
-0.231033
0.231591
-0.00138639
-0.0589773
0.0603637
-0.1321
0.130995
0.00110494
-0.000494129
-0.00173309
-0.503937
0.506164
0.00518614
-0.00883571
-0.598592
0.602241
0.0131847
-0.017389
-0.695938
0.700143
0.0221083
-0.0265476
-0.804614
0.809053
0.0318282
-0.0362216
-0.924081
0.928475
0.0412074
-0.0453203
-1.053
1.05712
0.0495956
-0.0528353
-1.1895
1.19274
0.0552198
-0.0559352
-1.33145
1.33217
0.055114
-0.0523863
-1.47682
1.47409
0.0482206
-0.0424711
-1.37065
1.3649
0.0371917
-0.0314958
-1.07758
1.07188
0.0267483
-0.0218647
-0.859109
0.854226
0.0179148
-0.0139874
-0.691889
0.687962
0.0107725
-0.00766617
-0.560966
0.557859
0.00512065
-0.00285772
-0.457293
0.45503
0.000885469
0.000684335
-0.37408
0.37251
-0.00193805
0.00269223
-0.305959
0.305204
-0.00290916
0.0025142
-0.22885
0.229245
-0.00133082
-0.0592837
0.0606145
-0.134177
0.133456
0.000721042
0.000520141
-0.00326872
-0.510461
0.51321
0.00662682
-0.0103936
-0.605905
0.609672
0.0145977
-0.0188992
-0.704416
0.708718
0.0237206
-0.0285323
-0.813601
0.818413
0.0335216
-0.0383145
-0.933209
0.938002
0.043528
-0.0476665
-1.0617
1.06584
0.0522338
-0.0555495
-1.19579
1.19911
0.0580128
-0.0590716
-1.33306
1.33412
0.0582756
-0.055107
-1.47089
1.46772
0.0501874
-0.0439219
-1.35864
1.35237
0.0380984
-0.0317328
-1.0656
1.05924
0.0264622
-0.0214385
-0.849055
0.844031
0.0170303
-0.0132103
-0.683788
0.679968
0.0100576
-0.00697882
-0.554864
0.551785
0.00470194
-0.00248319
-0.452323
0.450104
0.00072997
0.000904413
-0.370323
0.368689
-0.00196308
0.00268598
-0.302899
0.302176
-0.00302668
0.00260215
-0.226964
0.227389
-0.00140241
-0.0597231
0.0611255
-0.136573
0.13607
0.00050265
0.00138281
-0.00406243
-0.51719
0.519869
0.00806378
-0.0116599
-0.613639
0.617235
0.0161757
-0.0205649
-0.712881
0.71727
0.025505
-0.0301953
-0.823136
0.827826
0.0355877
-0.0403494
-0.942961
0.947723
0.0458057
-0.0506002
-1.07052
1.07531
0.0550837
-0.0588939
-1.20248
1.20629
0.061826
-0.0628938
-1.33491
1.33597
0.0620634
-0.0588941
-1.46418
1.46101
0.0532794
-0.0461562
-1.34513
1.33801
0.0392513
-0.0320137
-1.05224
1.045
0.0261683
-0.0205087
-0.83834
0.83268
0.0159653
-0.0119533
-0.675673
0.671661
0.00881827
-0.00581138
-0.548716
0.545709
0.00357726
-0.0016337
-0.447765
0.445822
-6.19534e-05
0.00146563
-0.366754
0.36535
-0.0024405
0.00309485
-0.300139
0.299485
-0.00326976
0.00274735
-0.225519
0.226041
-0.00148737
-0.0605005
0.0619879
-0.139184
0.13897
0.000214299
0.00241452
-0.00527533
-0.524007
0.526868
0.0091153
-0.0129809
-0.621276
0.625142
0.0175677
-0.0220052
-0.72154
0.725977
0.0272709
-0.0320617
-0.832696
0.837487
0.037592
-0.0427359
-0.953101
0.958245
0.0484035
-0.0534539
-1.08011
1.08516
0.0584461
-0.0625199
-1.21009
1.21416
0.0658277
-0.0676113
-1.33716
1.33895
0.0669393
-0.0633378
-1.45718
1.45357
0.0571824
-0.0487329
-1.32975
1.3213
0.0407256
-0.0323476
-1.03684