/*--------------------------------*- C++ -*----------------------------------*\
  =========                 |
  \\      /  F ield         | OpenFOAM: The Open Source CFD Toolbox
   \\    /   O peration     | Website:  https://openfoam.org
    \\  /    A nd           | Version:  9
     \\/     M anipulation  |
\*---------------------------------------------------------------------------*/
FoamFile
{
    format      ascii;
    class       volVectorField;
    location    "3";
    object      U;
}
// * * * * * * * * * * * * * * * * * * * * * * * * * * * * * * * * * * * * * //

dimensions      [0 1 -1 0 0 0 0];

internalField   nonuniform List<vector> 
8800
(
(0.977873 -0.0881346 0)
(1.00703 -0.058152 0)
(1.00157 -0.0296198 0)
(1.00078 -0.0146264 0)
(1.00046 -0.0071988 0)
(1.00019 -0.00352096 0)
(0.999851 -0.00178793 0)
(0.999679 -0.000943076 0)
(0.999606 -0.000334805 0)
(0.999667 -3.83808e-05 0)
(0.999619 0.000137996 0)
(0.999645 0.000653716 0)
(0.999748 0.00134553 0)
(1.00001 0.00242534 0)
(1.00032 0.00503328 0)
(1.00062 0.0102906 0)
(1.00104 0.0208701 0)
(1.00281 0.0412313 0)
(1.00964 0.079029 0)
(0.771379 0.0454252 0)
(0.386962 -0.0117887 0)
(1.04922 -0.0599609 0)
(1.08125 -0.0545273 0)
(1.04695 -0.047267 0)
(1.02202 -0.0373633 0)
(1.00841 -0.0272344 0)
(1.00266 -0.0186935 0)
(1.0004 -0.012094 0)
(0.999636 -0.00694548 0)
(0.999249 -0.00268129 0)
(0.999175 0.00113217 0)
(0.999408 0.00518162 0)
(0.999851 0.00971623 0)
(1.00119 0.015293 0)
(1.00488 0.0226298 0)
(1.01396 0.0322353 0)
(1.03306 0.0425669 0)
(1.06389 0.0515297 0)
(1.0869 0.0555196 0)
(0.861166 0.0439574 0)
(0.286957 -0.000285581 0)
(1.06862 -0.0217459 0)
(1.07175 -0.0274698 0)
(1.05014 -0.0281111 0)
(1.03469 -0.0261448 0)
(1.02402 -0.0224498 0)
(1.01675 -0.0177375 0)
(1.01224 -0.012476 0)
(1.00961 -0.00691419 0)
(1.00859 -0.000970237 0)
(1.0089 0.00495755 0)
(1.0106 0.0105778 0)
(1.01399 0.0159836 0)
(1.01968 0.0209441 0)
(1.02851 0.0250503 0)
(1.04146 0.0277264 0)
(1.05971 0.028428 0)
(1.07981 0.0257252 0)
(0.98945 0.0172136 0)
(0.28677 0.000296666 0)
(0.282328 0.000412127 0)
(1.0301 -0.00550203 0)
(1.04774 -0.0128265 0)
(1.03948 -0.0175791 0)
(1.03093 -0.0191825 0)
(1.02324 -0.0181227 0)
(1.01734 -0.0153365 0)
(1.01288 -0.0114185 0)
(1.01006 -0.00672029 0)
(1.00867 -0.000798432 0)
(1.00901 0.00503616 0)
(1.01107 0.0103011 0)
(1.01475 0.0148062 0)
(1.01978 0.0181046 0)
(1.02647 0.0200556 0)
(1.03449 0.0195358 0)
(1.04336 0.0162404 0)
(1.04742 0.00975982 0)
(0.948952 0.00216117 0)
(0.28188 -0.000408552 0)
(0.28248 -5.41925e-05 0)
(1.01757 -0.0026708 0)
(1.03853 -0.00592425 0)
(1.03632 -0.00883459 0)
(1.03266 -0.0108455 0)
(1.02782 -0.0115761 0)
(1.02333 -0.0108273 0)
(1.01947 -0.00858817 0)
(1.01726 -0.00505831 0)
(1.01582 -0.000383515 0)
(1.01612 0.00442324 0)
(1.01798 0.00857776 0)
(1.02095 0.0113839 0)
(1.02504 0.0125892 0)
(1.02941 0.0123183 0)
(1.03347 0.010656 0)
(1.03656 0.00791357 0)
(1.03507 0.00451149 0)
(0.938801 0.00135955 0)
(0.281977 7.45521e-05 0)
(0.281631 4.24236e-06 0)
(1.01065 -0.000887214 0)
(1.03137 -0.00254357 0)
(1.03063 -0.00428716 0)
(1.02882 -0.0057533 0)
(1.02616 -0.00658801 0)
(1.02334 -0.00635043 0)
(1.0206 -0.00506041 0)
(1.01874 -0.00267909 0)
(1.0175 0.00027916 0)
(1.01762 0.00350884 0)
(1.01947 0.00579801 0)
(1.02103 0.00762643 0)
(1.02367 0.00789417 0)
(1.02622 0.00722694 0)
(1.0283 0.0058412 0)
(1.02971 0.0040561 0)
(1.02728 0.00219497 0)
(0.932781 0.000650197 0)
(0.280582 1.15096e-05 0)
(0.281233 -2.00685e-05 0)
(1.00789 -0.000670278 0)
(1.02833 -0.00138569 0)
(1.02819 -0.00219094 0)
(1.02731 -0.00293491 0)
(1.02593 -0.00341972 0)
(1.02422 -0.00336216 0)
(1.02238 -0.00262377 0)
(1.02085 -0.00113008 0)
(1.01978 0.000847887 0)
(1.01969 0.0029695 0)
(1.02133 0.00437508 0)
(1.022 0.00489698 0)
(1.02349 0.00492695 0)
(1.02486 0.00431651 0)
(1.02588 0.00337087 0)
(1.02649 0.00229882 0)
(1.02367 0.00126674 0)
(0.929893 0.000417795 0)
(0.279957 1.98206e-05 0)
(0.280809 -7.26561e-07 0)
(1.00643 -0.000358954 0)
(1.02698 -0.000684911 0)
(1.02701 -0.00103225 0)
(1.02648 -0.00135736 0)
(1.02566 -0.00155797 0)
(1.02457 -0.00148155 0)
(1.0233 -0.000994745 0)
(1.02208 -2.27083e-05 0)
(1.02114 0.00133158 0)
(1.0209 0.00270035 0)
(1.02169 0.00352721 0)
(1.02215 0.00354723 0)
(1.02294 0.00338438 0)
(1.02364 0.00286512 0)
(1.02414 0.00218614 0)
(1.02442 0.00148117 0)
(1.02147 0.000826773 0)
(0.928064 0.000287868 0)
(0.279461 1.59119e-05 0)
(0.280753 4.48683e-06 0)
(1.00576 -6.36389e-05 0)
(1.0264 -0.000178275 0)
(1.02654 -0.000289356 0)
(1.02619 -0.000368557 0)
(1.02565 -0.000366148 0)
(1.0249 -0.000204207 0)
(1.02396 0.00020237 0)
(1.02295 0.000901398 0)
(1.02206 0.00183668 0)
(1.02164 0.00268208 0)
(1.02181 0.00307906 0)
(1.02204 0.00294791 0)
(1.02238 0.00264265 0)
(1.02269 0.00216501 0)
(1.02291 0.00162562 0)
(1.02302 0.00109817 0)
(1.02 0.000622765 0)
(0.926791 0.000229043 0)
(0.279069 1.52785e-05 0)
(0.280875 1.25748e-05 0)
(1.00569 9.65464e-05 0)
(1.02633 0.000145632 0)
(1.02653 0.000212788 0)
(1.02628 0.000315739 0)
(1.02587 0.000482603 0)
(1.02529 0.000753565 0)
(1.02451 0.00116953 0)
(1.02359 0.00174617 0)
(1.02266 0.00241756 0)
(1.02202 0.00291142 0)
(1.02178 0.00303292 0)
(1.02172 0.00278032 0)
(1.02177 0.00237954 0)
(1.02184 0.00189923 0)
(1.0219 0.00141006 0)
(1.02191 0.000953513 0)
(1.01885 0.000552303 0)
(0.925746 0.000213282 0)
(0.278706 1.59479e-05 0)
(0.281121 1.59708e-05 0)
(1.00603 0.000231141 0)
(1.02666 0.000403156 0)
(1.02688 0.000608808 0)
(1.02666 0.000862229 0)
(1.02631 0.00117879 0)
(1.02578 0.00157231 0)
(1.02505 0.00205401 0)
(1.02412 0.00260218 0)
(1.02306 0.00312521 0)
(1.02216 0.00338478 0)
(1.0216 0.00326781 0)
(1.02127 0.00291305 0)
(1.0211 0.00242903 0)
(1.021 0.00190799 0)
(1.02095 0.00140581 0)
(1.02089 0.000953541 0)
(1.0178 0.000558309 0)
(0.924756 0.000224023 0)
(0.27833 1.85925e-05 0)
(0.281483 2.18732e-05 0)
(1.00672 0.000347374 0)
(1.02731 0.00063483 0)
(1.02754 0.000972664 0)
(1.02732 0.00137301 0)
(1.02696 0.00184042 0)
(1.02642 0.00237691 0)
(1.02564 0.00296484 0)
(1.02461 0.00355159 0)
(1.02334 0.00400958 0)
(1.02213 0.0041121 0)
(1.02126 0.00383158 0)
(1.02068 0.00332145 0)
(1.02031 0.00272262 0)
(1.02008 0.00211931 0)
(1.01994 0.00155653 0)
(1.01983 0.00105845 0)
(1.01671 0.000626928 0)
(0.923696 0.000258142 0)
(0.277897 2.28216e-05 0)
(0.281976 2.86409e-05 0)
(1.00773 0.000476605 0)
(1.0283 0.000882861 0)
(1.02851 0.00136 0)
(1.02827 0.00191588 0)
(1.02787 0.00255363 0)
(1.02725 0.00325968 0)
(1.02635 0.00399546 0)
(1.02512 0.00467559 0)
(1.02355 0.00512783 0)
(1.02197 0.0051123 0)
(1.02076 0.00466367 0)
(1.01992 0.00398846 0)
(1.01936 0.0032396 0)
(1.019 0.00250713 0)
(1.01878 0.00183835 0)
(1.01862 0.00124924 0)
(1.01547 0.000744947 0)
(0.922466 0.000309078 0)
(0.277379 2.78142e-05 0)
(0.282624 3.72983e-05 0)
(1.00912 0.00063059 0)
(1.02966 0.00117434 0)
(1.02983 0.00181094 0)
(1.02954 0.00255075 0)
(1.02906 0.00338916 0)
(1.02831 0.0043037 0)
(1.02722 0.00523454 0)
(1.0257 0.00605711 0)
(1.02373 0.00654928 0)
(1.02169 0.00643507 0)
(1.02008 0.00580505 0)
(1.01895 0.00492662 0)
(1.01818 0.00398197 0)
(1.01769 0.00307351 0)
(1.01738 0.0022515 0)
(1.01716 0.00153144 0)
(1.01398 0.000914874 0)
(0.920977 0.000382624 0)
(0.27674 3.48798e-05 0)
(0.283468 4.8434e-05 0)
(1.01095 0.000822284 0)
(1.03144 0.00153325 0)
(1.03157 0.0023651 0)
(1.03121 0.00332809 0)
(1.03061 0.00441559 0)
(1.02968 0.00559249 0)
(1.02831 0.00677394 0)
(1.02639 0.00779209 0)
(1.02389 0.00836174 0)
(1.02128 0.00815127 0)
(1.01919 0.0073082 0)
(1.01771 0.00617568 0)
(1.0167 0.00497794 0)
(1.01604 0.00383658 0)
(1.01564 0.00280682 0)
(1.01537 0.00191101 0)
(1.01214 0.00114225 0)
(0.91913 0.000480395 0)
(0.275938 4.39571e-05 0)
(0.284563 6.27239e-05 0)
(1.01333 0.00106425 0)
(1.03376 0.00198562 0)
(1.03383 0.00306338 0)
(1.03337 0.00430843 0)
(1.0326 0.00571048 0)
(1.03142 0.0072188 0)
(1.02968 0.00872031 0)
(1.02724 0.0099958 0)
(1.02405 0.0106751 0)
(1.02071 0.0103557 0)
(1.01804 0.00924972 0)
(1.01613 0.00779658 0)
(1.01483 0.00627457 0)
(1.01398 0.0048321 0)
(1.01345 0.00353519 0)
(1.01311 0.00240712 0)
(1.00984 0.0014413 0)
(0.916807 0.000605552 0)
(0.27493 5.56002e-05 0)
(0.285984 8.16422e-05 0)
(1.0164 0.00137771 0)
(1.03676 0.00256867 0)
(1.03676 0.00395942 0)
(1.03615 0.00556475 0)
(1.03516 0.00736634 0)
(1.03364 0.00929798 0)
(1.03141 0.0112071 0)
(1.02829 0.0128084 0)
(1.02421 0.0136284 0)
(1.01995 0.013173 0)
(1.01654 0.0117344 0)
(1.01411 0.00987354 0)
(1.01245 0.00793644 0)
(1.01137 0.00610569 0)
(1.0107 0.00446542 0)
(1.01027 0.0030377 0)
(1.00693 0.00181911 0)
(0.913877 0.000763668 0)
(0.273659 6.97735e-05 0)
(0.287831 0.000106956 0)
(1.02038 0.00178744 0)
(1.04064 0.0033259 0)
(1.04052 0.00512215 0)
(1.03973 0.00719062 0)
(1.03845 0.00950671 0)
(1.03648 0.0119777 0)
(1.0336 0.0144022 0)
(1.02959 0.0164095 0)
(1.02438 0.0173975 0)
(1.01895 0.0167604 0)
(1.01462 0.0148933 0)
(1.01154 0.0125113 0)
(1.00944 0.0100475 0)
(1.00807 0.00772621 0)
(1.00721 0.00564821 0)
(1.00668 0.00384203 0)
(1.00326 0.00229871 0)
(0.910175 0.000965033 0)
(0.272057 8.80287e-05 0)
(0.290247 0.000141008 0)
(1.02553 0.00232663 0)
(1.04565 0.00432143 0)
(1.04539 0.00664465 0)
(1.04435 0.00931518 0)
(1.04267 0.0122927 0)
(1.0401 0.0154521 0)
(1.03636 0.0185255 0)
(1.0312 0.0210304 0)
(1.02453 0.0222042 0)
(1.01763 0.021314 0)
(1.01216 0.0188955 0)
(1.00826 0.01585 0)
(1.00561 0.0127167 0)
(1.00388 0.0097735 0)
(1.0028 0.00714076 0)
(1.00213 0.00485672 0)
(0.998616 0.00290413 0)
(0.905495 0.00121771 0)
(0.270035 0.000110327 0)
(0.293431 0.000188161 0)
(1.03222 0.00304987 0)
(1.05216 0.00564552 0)
(1.05169 0.00866136 0)
(1.05031 0.0121165 0)
(1.04809 0.0159509 0)
(1.04471 0.019988 0)
(1.03983 0.0238674 0)
(1.03316 0.0269657 0)
(1.02463 0.0283262 0)
(1.0159 0.0270775 0)
(1.009 0.0239436 0)
(1.00409 0.0200601 0)
(1.00076 0.016083 0)
(0.998576 0.0123551 0)
(0.997213 0.00902474 0)
(0.996379 0.0061355 0)
(0.992741 0.00366655 0)
(0.899584 0.00153511 0)
(0.267497 0.000138747 0)
(0.297673 0.00025524 0)
(1.04097 0.0040344 0)
(1.06065 0.00743711 0)
(1.05988 0.0113739 0)
(1.05801 0.0158616 0)
(1.05503 0.0208046 0)
(1.05054 0.025952 0)
(1.04414 0.0308168 0)
(1.03552 0.0345952 0)
(1.02463 0.0361037 0)
(1.01361 0.0343416 0)
(1.00495 0.0302867 0)
(0.998803 0.025345 0)
(0.994615 0.0203146 0)
(0.991873 0.015607 0)
(0.990156 0.0114004 0)
(0.98911 0.00774938 0)
(0.985315 0.00463038 0)
(0.892117 0.00193642 0)
(0.2643 0.000173916 0)
(0.303421 0.00035421 0)
(1.05249 0.00541948 0)
(1.07178 0.00992651 0)
(1.07057 0.015098 0)
(1.06799 0.0209536 0)
(1.06392 0.0273328 0)
(1.05788 0.0338675 0)
(1.04942 0.0398985 0)
(1.03824 0.0444004 0)
(1.0244 0.045946 0)
(1.01058 0.0434461 0)
(0.999785 0.038218 0)
(0.992116 0.0319658 0)
(0.986869 0.0256321 0)
(0.983415 0.0197052 0)
(0.981243 0.0144065 0)
(0.979925 0.00979906 0)
(0.975927 0.00585412 0)
(0.882681 0.00244381 0)
(0.260279 0.000218592 0)
(0.31142 0.000512011 0)
(1.06776 0.00747992 0)
(1.08647 0.0135391 0)
(1.08459 0.0203883 0)
(1.08092 0.0280534 0)
(1.07522 0.0362743 0)
(1.06695 0.0444937 0)
(1.05569 0.051817 0)
(1.0412 0.056974 0)
(1.02371 0.0583219 0)
(1.00655 0.0547742 0)
(0.993213 0.048073 0)
(0.983702 0.0402323 0)
(0.977137 0.0323232 0)
(0.972773 0.0249071 0)
(0.970007 0.0182496 0)
(0.968327 0.0124394 0)
(0.964065 0.00744618 0)
(0.870747 0.00311041 0)
(0.255194 0.000278775 0)
(0.323084 0.000800775 0)
(1.0883 0.0108755 0)
(1.10615 0.0191519 0)
(1.10313 0.0282357 0)
(1.0976 0.0382645 0)
(1.08932 0.0487813 0)
(1.0778 0.0589118 0)
(1.06273 0.0674785 0)
(1.04406 0.0730142 0)
(1.0222 0.0737368 0)
(1.00116 0.0687191 0)
(0.984899 0.060218 0)
(0.973211 0.0505229 0)
(0.965013 0.0407795 0)
(0.959453 0.0316038 0)
(0.955864 0.0233073 0)
(0.953677 0.0160092 0)
(0.949058 0.00966503 0)
(0.855592 0.00406854 0)
(0.248667 0.000368452 0)
(0.341368 0.00144448 0)
(1.11688 0.0171798 0)
(1.13338 0.0284561 0)
(1.12794 0.0404001 0)
(1.11899 0.0534281 0)
(1.10648 0.0665906 0)
(1.0902 0.0785575 0)
(1.07005 0.0879538 0)
(1.04624 0.0932434 0)
(1.01935 0.0926747 0)
(0.994022 0.0856567 0)
(0.974523 0.0750324 0)
(0.960346 0.0632894 0)
(0.950152 0.051561 0)
(0.942992 0.0404628 0)
(0.938177 0.0303167 0)
(0.935146 0.0212811 0)
(0.929957 0.0132386 0)
(0.83625 0.00579845 0)
(0.240044 0.000546614 0)
(0.370364 0.00318578 0)
(1.15888 0.0308095 0)
(1.17197 0.0452023 0)
(1.16096 0.0606214 0)
(1.14574 0.0770083 0)
(1.12668 0.0924131 0)
(1.1038 0.105294 0)
(1.07724 0.114398 0)
(1.04738 0.118331 0)
(1.01493 0.115509 0)
(0.985057 0.105871 0)
(0.962138 0.0928553 0)
(0.94522 0.0790211 0)
(0.932642 0.0653816 0)
(0.923329 0.052487 0)
(0.916539 0.0406073 0)
(0.911767 0.0299192 0)
(0.905163 0.0199586 0)
(0.811061 0.00937196 0)
(0.228987 0.00092587 0)
(0.414324 0.0139446 8.78641e-20)
(1.21713 0.0610336 8.23007e-20)
(1.22007 0.0779997 -2.93518e-20)
(1.19968 0.0965499 0)
(1.17569 0.114351 -7.36372e-34)
(1.1483 0.129632 1.07029e-20)
(1.11754 0.141312 -1.88612e-20)
(1.08365 0.148417 0)
(1.04709 0.149711 3.77373e-34)
(1.00849 0.143771 -2.22888e-20)
(0.973577 0.131103 0)
(0.946739 0.115679 -2.59179e-20)
(0.926492 0.100007 -7.6057e-20)
(0.910811 0.0849327 -3.58298e-20)
(0.898367 0.0709375 -1.07276e-20)
(0.888275 0.0583578 -6.37015e-21)
(0.87988 0.0473666 0)
(0.869841 0.0378581 4.48868e-21)
(0.77678 0.0261594 5.24123e-21)
(0.217162 0.00686414 9.4243e-20)
(0.433093 0.0393091 6.32629e-20)
(1.27069 0.117535 9.74611e-22)
(1.26457 0.132787 7.94314e-21)
(1.23474 0.148723 0)
(1.20192 0.163929 -3.78226e-20)
(1.16641 0.176799 -4.26324e-20)
(1.12816 0.186141 -1.91694e-20)
(1.08723 0.190787 -6.68929e-20)
(1.04387 0.189432 0)
(0.998539 0.180642 9.4767e-20)
(0.957479 0.165495 9.29383e-20)
(0.92552 0.148435 2.73128e-20)
(0.900849 0.1319 9.87519e-20)
(0.881088 0.116631 1.38419e-19)
(0.864708 0.103002 0)
(0.850678 0.0914176 1.959e-19)
(0.838297 0.0820891 2.82996e-19)
(0.824897 0.0750976 3.14224e-19)
(0.737626 0.0626266 -3.58341e-19)
(0.211146 0.0193221 -6.50876e-21)
(0.423224 0.0641606 0)
(1.3059 0.191184 1.33017e-20)
(1.29637 0.201481 0)
(1.2603 0.212002 -5.20237e-20)
(1.22104 0.222381 0)
(1.17905 0.230954 -8.52361e-20)
(1.13438 0.236387 3.95146e-20)
(1.08718 0.237322 -1.35966e-19)
(1.03777 0.232397 -2.36313e-21)
(0.986608 0.220203 4.90347e-20)
(0.940555 0.202376 2.01541e-19)
(0.904744 0.183823 2.05425e-23)
(0.877043 0.166899 -7.10081e-20)
(0.854873 0.15207 -1.28045e-19)
(0.836663 0.139487 1.52322e-19)
(0.821411 0.129254 -2.69466e-19)
(0.808363 0.1215 -3.57893e-20)
(0.794791 0.116063 0)
(0.713863 0.101219 1.99195e-21)
(0.209727 0.0308511 0)
(0.417779 0.0871202 1.64115e-19)
(1.32346 0.265409 -9.18064e-20)
(1.31367 0.273506 -7.11011e-20)
(1.27497 0.279318 2.55538e-20)
(1.23209 0.284809 -4.31627e-20)
(1.18578 0.28865 1.80833e-19)
(1.13629 0.289636 8.30958e-20)
(1.08401 0.28634 0)
(1.02947 0.277346 -2.49668e-19)
(0.973314 0.261273 0)
(0.923148 0.240435 -1.04967e-19)
(0.884485 0.220169 -1.27379e-19)
(0.854919 0.202546 -7.5878e-20)
(0.831582 0.18766 -9.16194e-20)
(0.812752 0.175382 0)
(0.797268 0.165585 0)
(0.784284 0.15818 -2.30343e-19)
(0.770995 0.152982 4.52677e-20)
(0.693336 0.135236 -2.68023e-20)
(0.20608 0.0413345 -3.07709e-20)
(0.415475 0.108801 -8.10799e-20)
(1.3322 0.337264 0)
(1.32204 0.343848 1.64327e-19)
(1.2815 0.345949 7.71511e-20)
(1.23617 0.347429 9.9782e-20)
(1.18674 0.347144 0)
(1.13355 0.343904 8.37009e-20)
(1.07714 0.33635 1.51724e-19)
(1.0183 0.323053 1.2901e-19)
(0.958044 0.302736 2.25514e-19)
(0.904731 0.27846 0)
(0.864164 0.256061 -2.69201e-19)
(0.833556 0.237281 -1.59608e-19)
(0.809726 0.221877 -9.30702e-20)
(0.790746 0.209405 5.69815e-19)
(0.775351 0.199503 6.76682e-20)
(0.762582 0.192034 3.22426e-19)
(0.749635 0.186579 -1.53903e-18)
(0.674855 0.165944 9.10711e-19)
(0.202694 0.0509264 -1.0816e-18)
(0.413672 0.129403 -5.75786e-20)
(1.33555 0.405847 2.04389e-20)
(1.32458 0.411778 -2.19349e-20)
(1.28267 0.410986 -9.03698e-20)
(1.23541 0.409123 -9.23249e-20)
(1.18347 0.405202 3.34333e-21)
(1.12719 0.398073 -9.10214e-20)
(1.06729 0.386407 1.59358e-19)
(1.00475 0.368717 -2.77073e-19)
(0.941025 0.343847 0)
(0.885275 0.315675 -1.22906e-19)
(0.843504 0.290688 -9.59453e-22)
(0.812451 0.270358 -1.70502e-19)
(0.78857 0.254041 0)
(0.769757 0.241043 -1.20608e-19)
(0.754649 0.230756 -2.84857e-19)
(0.742231 0.222938 7.6786e-19)
(0.729671 0.217011 -7.61766e-19)
(0.657444 0.193721 1.07781e-18)
(0.199362 0.0597736 -1.10298e-18)
(0.412393 0.149078 -2.04283e-21)
(1.33522 0.471353 -1.70053e-20)
(1.32312 0.476842 -7.94312e-20)
(1.27995 0.473815 4.2338e-20)
(1.23106 0.469207 -4.93088e-20)
(1.17694 0.462158 0)
(1.11797 0.451533 -8.92554e-20)
(1.0549 0.435915 -1.69193e-19)
(0.989028 0.413818 -1.45583e-19)
(0.922248 0.384097 0)
(0.864622 0.35156 -1.25672e-19)
(0.822238 0.323532 -1.49617e-19)
(0.791249 0.301304 1.79595e-19)
(0.767695 0.283813 -1.08843e-19)
(0.749315 0.270038 -5.03594e-19)
(0.73466 0.25927 3.00613e-19)
(0.722663 0.250964 9.07941e-20)
(0.710565 0.244491 0)
(0.640754 0.218752 -1.00284e-18)
(0.196255 0.0679868 -3.57469e-20)
(0.411719 0.168187 -4.82703e-21)
(1.33246 0.533854 1.53582e-20)
(1.31896 0.539206 4.31203e-20)
(1.27461 0.534348 1.52741e-19)
(1.22415 0.527461 -1.98444e-19)
(1.168 0.517714 2.00945e-19)
(1.10648 0.503947 1.96123e-19)
(1.04042 0.484591 -2.73096e-19)
(0.971396 0.458072 8.52766e-20)
(0.901782 0.423186 -5.43691e-19)
(0.842673 0.385746 -1.372e-19)
(0.800219 0.354242 0)
(0.769753 0.329806 1.8818e-19)
(0.746915 0.310965 2.2026e-19)
(0.729206 0.296377 2.63265e-19)
(0.715143 0.284984 -3.12982e-19)
(0.703697 0.276233 -9.19488e-20)
(0.692084 0.269208 1.10878e-19)
(0.624645 0.24125 0)
(0.193632 0.0757356 -7.48201e-20)
(0.411479 0.186785 2.75924e-20)
(1.32813 0.593576 -4.77855e-20)
(1.31301 0.598943 -4.87368e-20)
(1.26746 0.592587 1.05738e-19)
(1.21547 0.583806 -9.97133e-20)
(1.15732 0.571749 -5.47644e-21)
(1.09332 0.555136 -2.16941e-19)
(1.02431 0.532288 -9.91862e-20)
(0.952084 0.501348 -2.54012e-19)
(0.879661 0.46095 5.39876e-22)
(0.819328 0.41803 -4.25847e-19)
(0.777297 0.382511 3.367e-19)
(0.747918 0.355597 -1.96124e-19)
(0.726228 0.335307 2.30924e-19)
(0.709469 0.31988 0)
(0.696167 0.307989 -1.59952e-19)
(0.685294 0.298882 -4.03768e-21)
(0.674236 0.291363 -4.52547e-19)
(0.609289 0.261581 -6.78794e-20)
(0.191533 0.0831312 0)
(0.411755 0.204708 0)
(1.32284 0.650626 -6.09612e-20)
(1.30589 0.656198 -8.97462e-20)
(1.25912 0.648589 -1.0948e-19)
(1.2056 0.63824 -1.193e-19)
(1.14545 0.624187 0)
(1.07893 0.605049 -1.06306e-19)
(1.00693 0.578964 3.61943e-22)
(0.931338 0.54367 5.48176e-19)
(0.8559 0.497439 -7.61049e-20)
(0.794471 0.448288 -3.02667e-19)
(0.753365 0.408116 1.75822e-19)
(0.725712 0.378451 1.15179e-21)
(0.705683 0.35668 2.36929e-19)
(0.690265 0.340548 1.43325e-19)
(0.677912 0.328277 -3.3684e-19)
(0.667761 0.318931 3.95774e-19)
(0.657258 0.311135 1.15858e-19)
(0.594821 0.279851 4.85408e-19)
(0.190104 0.0902932 -1.27801e-18)
(0.412607 0.222448 -1.44734e-21)
(1.31702 0.70516 -2.15452e-20)
(1.29812 0.711043 3.17386e-20)
(1.25008 0.702427 1.11166e-19)
(1.19501 0.690779 0)
(1.13282 0.675042 -1.13952e-19)
(1.06376 0.653699 3.6142e-19)
(0.988609 0.624641 2.29559e-19)
(0.909408 0.585123 0)
(0.830582 0.532731 -1.07672e-18)
(0.767887 0.476503 7.97364e-19)
(0.72822 0.430836 0)
(0.703138 0.397987 2.09635e-19)
(0.685524 0.374811 2.43258e-21)
(0.671879 0.35818 -4.29598e-19)
(0.660738 0.3459 1.70983e-19)
(0.651341 0.336581 0)
(0.641438 0.328742 5.9596e-19)
(0.581633 0.296552 0)
(0.189784 0.0975145 -5.76141e-19)
(0.413909 0.240074 3.75769e-21)
(1.31087 0.7575 -1.10321e-20)
(1.29005 0.763606 3.87355e-20)
(1.24072 0.754154 0)
(1.18401 0.741442 -1.29559e-19)
(1.11981 0.724285 0)
(1.04814 0.701049 -3.75258e-19)
(0.969721 0.669348 -1.14904e-19)
(0.88658 0.625856 1.03392e-19)
(0.803713 0.567117 -5.3389e-19)
(0.739354 0.502751 8.46438e-20)
(0.701643 0.450319 0)
(0.680232 0.413748 -4.25336e-19)
(0.666021 0.389291 -2.82325e-21)
(0.654799 0.372682 0)
(0.645128 0.360841 1.99338e-21)
(0.636611 0.351995 5.08578e-19)
(0.627267 0.344474 -4.8748e-19)
(0.570244 0.312014 1.43867e-19)
(0.190494 0.105014 0)
(0.41519 0.25733 0)
(1.30468 0.807737 -5.48159e-21)
(1.28194 0.813994 -2.94327e-20)
(1.2313 0.803836 -4.96646e-21)
(1.17295 0.790231 -5.90097e-20)
(1.10669 0.771921 -2.79287e-19)
(1.0324 0.747096 1.42141e-19)
(0.950547 0.713144 -1.32791e-19)
(0.863061 0.666038 4.5785e-19)
(0.775404 0.600866 -8.65799e-19)
(0.708603 0.527176 2.96381e-21)
(0.673203 0.46638 -1.97078e-19)
(0.656883 0.425243 6.50401e-19)
(0.647535 0.399657 4.86044e-21)
(0.639635 0.383739 -2.87568e-19)
(0.631806 0.373124 -5.23567e-19)
(0.624154 0.365415 0)
(0.615294 0.358728 0)
(0.561181 0.32677 1.48237e-19)
(0.192464 0.113016 -8.3034e-20)
(0.417087 0.274637 1.3078e-20)
(1.29846 0.855964 1.31516e-20)
(1.27391 0.862283 3.5027e-20)
(1.22196 0.851524 0)
(1.16202 0.837152 -1.19051e-21)
(1.09374 0.817912 -2.86917e-19)
(1.01685 0.791811 3.67512e-19)
(0.931469 0.75606 5.53661e-19)
(0.839248 0.705834 6.16668e-19)
(0.745752 0.634358 -7.29503e-19)
(0.675196 0.55014 -6.6976e-19)
(0.642296 0.478736 5.15587e-19)
(0.632921 0.431585 0)
(0.630707 0.405119 -1.18172e-19)
(0.627378 0.391069 -2.91071e-19)
(0.621626 0.382878 -3.44432e-19)
(0.614756 0.377141 -4.13883e-19)
(0.606168 0.371908 1.21061e-19)
(0.555118 0.341395 -7.42905e-20)
(0.195856 0.121804 -2.47666e-21)
(0.418898 0.291549 0)
(1.29235 0.902203 0)
(1.26603 0.908529 2.58255e-21)
(1.21282 0.897253 0)
(1.15137 0.882224 1.99431e-19)
(1.08117 0.862222 2.22347e-19)
(1.00176 0.835185 0)
(0.912788 0.798082 7.16258e-20)
(0.81545 0.745395 1.07261e-18)
(0.714969 0.668087 -1.69181e-18)
(0.638831 0.572202 0)
(0.607992 0.487082 -3.16411e-19)
(0.608023 0.431593 4.57044e-21)
(0.616446 0.404468 1.6235e-21)
(0.619283 0.394399 2.72319e-19)
(0.615577 0.390259 -4.92349e-21)
(0.608989 0.387826 -8.2446e-19)
(0.60016 0.384833 2.49255e-19)
(0.552442 0.356606 7.27272e-20)
(0.200481 0.131447 0)
(0.420594 0.308019 -7.97814e-20)
(1.28636 0.946501 -6.5189e-21)
(1.25835 0.952749 5.47401e-20)
(1.20395 0.941 -2.15258e-19)
(1.14109 0.925426 3.46447e-19)
(1.06914 0.904824 0)
(0.987359 0.877196 2.54168e-19)
(0.894852 0.839184 -1.60628e-19)
(0.792068 0.784746 3.79846e-21)
(0.6834 0.70245 1.22329e-19)
(0.59919 0.59416 8.86382e-19)
(0.568962 0.491374 -1.13622e-19)
(0.581476 0.423249 -3.35498e-19)
(0.605587 0.39607 -9.43986e-20)
(0.617536 0.392999 1.24465e-19)
(0.616116 0.396564 -7.36794e-21)
(0.60874 0.399085 2.05424e-19)
(0.598774 0.398725 -4.99969e-19)
(0.552638 0.373159 5.96286e-19)
(0.205324 0.141646 8.83076e-20)
(0.42184 0.323883 3.38834e-20)
(1.28052 0.988894 -3.95611e-21)
(1.25092 0.994967 1.09296e-20)
(1.19538 0.982775 -1.03419e-19)
(1.13123 0.966754 -6.52275e-20)
(1.0577 0.945707 -4.292e-19)
(0.973801 0.917725 8.33411e-20)
(0.877942 0.87934 -6.92532e-19)
(0.769593 0.823919 -1.26695e-18)
(0.651593 0.737809 -1.0662e-18)
(0.556049 0.617051 0)
(0.523442 0.491853 -4.4816e-19)
(0.551894 0.40453 4.16091e-19)
(0.60003 0.376378 0)
(0.626935 0.387622 -2.43803e-19)
(0.626802 0.4046 1.47143e-19)
(0.614414 0.415189 -1.95909e-19)
(0.59797 0.417169 -2.58062e-19)
(0.551853 0.393076 -4.67379e-19)
(0.207197 0.150969 -3.65128e-19)
(0.423581 0.339487 -4.05844e-20)
(1.27476 1.0294 4.10348e-21)
(1.24372 1.03519 -1.89888e-20)
(1.18717 1.02256 -1.26445e-19)
(1.12186 1.00615 1.50914e-19)
(1.04687 0.98482 -2.71074e-19)
(0.961077 0.956709 2.7773e-19)
(0.862233 0.918428 -7.44062e-19)
(0.748461 0.862973 -7.80244e-19)
(0.62026 0.774531 1.18051e-18)
(0.509635 0.642157 2.02794e-18)
(0.469198 0.489505 0)
(0.515449 0.371613 0)
(0.602571 0.338842 -8.3416e-20)
(0.656287 0.375388 0)
(0.654511 0.417657 2.89638e-19)
(0.625578 0.44401 3.92031e-19)
(0.593905 0.444563 0)
(0.546547 0.41549 0)
(0.201078 0.156849 3.94371e-19)
(0.424781 0.354204 5.20529e-20)
(1.2691 1.068 2.9514e-20)
(1.23674 1.07344 -1.27283e-20)
(1.1793 1.06036 9.67412e-20)
(1.11301 1.04359 1.5438e-19)
(1.03676 1.02205 3.25827e-19)
(0.949204 0.994057 -4.00158e-19)
(0.847687 0.956289 -1.06158e-20)
(0.728983 0.901737 -6.0589e-21)
(0.590177 0.812948 1.61614e-20)
(0.460662 0.670953 1.06975e-18)
(0.403786 0.486361 0)
(0.466268 0.320133 2.67161e-19)
(0.615682 0.270957 7.93425e-20)
(0.721351 0.352682 1.17666e-19)
(0.715654 0.441609 9.02617e-20)
(0.650352 0.485512 -2.18355e-19)
(0.594936 0.486746 -1.56923e-19)
(0.532362 0.439939 0)
(0.179035 0.150481 4.58224e-19)
(0.426454 0.369078 -1.2696e-19)
(1.26354 1.10477 0)
(1.22996 1.10971 -1.22183e-21)
(1.17177 1.09616 7.35662e-20)
(1.10467 1.07906 -1.53303e-19)
(1.02738 1.05742 -4.27411e-19)
(0.938405 1.02968 8.44497e-19)
(0.834396 0.99277 -5.01549e-20)
(0.711188 0.939982 0)
(0.562037 0.853118 -1.41486e-18)
(0.410543 0.705064 -2.48282e-18)
(0.325293 0.48616 7.37882e-20)
(0.39428 0.245444 1.67734e-19)
(0.642685 0.147233 0)
(0.853093 0.307547 -2.24774e-19)
(0.817582 0.530738 0)
(0.651022 0.608394 0)
(0.53385 0.570402 -1.98262e-19)
(0.462503 0.454722 0)
(0.148861 0.1205 1.37564e-19)
(0.427524 0.382985 -1.4945e-19)
(1.25796 1.13986 0)
(1.22331 1.1441 1.25684e-20)
(1.16458 1.1301 0)
(1.09683 1.11275 7.44319e-20)
(1.01867 1.09114 0)
(0.928627 1.06387 4.95315e-20)
(0.822512 1.02817 1.1312e-19)
(0.695138 0.977987 1.05455e-19)
(0.536135 0.895351 -1.61665e-18)
(0.360382 0.746765 8.34869e-20)
(0.231298 0.4946 5.28574e-19)
(0.279661 0.139123 6.75803e-20)
(0.663655 -0.102859 -7.18926e-20)
(1.09891 0.149123 -6.32836e-19)
(1.04523 0.545455 0)
(0.744065 0.735391 5.1602e-19)
(0.483706 0.686258 -4.05977e-19)
(0.22883 0.464572 5.25343e-19)
(-0.045689 0.671959 -7.30473e-19)
(0.428706 0.396723 1.3094e-19)
(1.25218 1.17353 1.39945e-19)
(1.21667 1.17687 0)
(1.15765 1.1626 6.60632e-21)
(1.08937 1.1453 -1.80483e-19)
(1.01041 1.12397 7.31151e-19)
(0.919521 1.09752 3.29824e-19)
(0.811668 1.06365 0)
(0.680503 1.01713 7.43748e-19)
(0.511826 0.941633 -9.09394e-20)
(0.3095 0.800634 0)
(0.117046 0.522842 0)
(0.0700484 0.00823913 -7.72277e-20)
(0.475342 -0.234513 6.80877e-19)
(1.19524 0.319816 1.34804e-18)
(1.20051 0.893034 0)
(0.797828 1.19135 2.47984e-19)
(0.305076 1.11071 -4.60112e-19)
(0.173987 2.19736 -2.70005e-19)
(0.161107 2.94762 -2.90105e-19)
(0.429826 0.409336 -1.05264e-19)
(1.24589 1.20574 -1.89743e-19)
(1.21008 1.2078 1.25169e-20)
(1.15105 1.19346 -3.32833e-20)
(1.08229 1.17638 0)
(1.00266 1.15552 4.97637e-19)
(0.911309 1.13015 4.99257e-19)
(0.802097 1.09854 -6.01277e-20)
(0.668087 1.0567 1.13474e-19)
(0.490733 0.990869 1.65151e-18)
(0.26196 0.867361 1.48071e-18)
(-0.00842058 0.594721 7.55126e-19)
(-0.271874 0.119906 -2.26782e-19)
(-0.0696671 0.27403 2.53102e-18)
(0.764041 1.22016 3.08615e-18)
(1.02769 1.79434 0)
(0.635895 1.86372 0)
(0.369865 2.76007 4.32173e-20)
(0.299268 3.21839 0)
(0.236949 3.28847 2.19184e-19)
(0.434027 0.422464 0)
(1.23861 1.23612 0)
(1.20343 1.23649 0)
(1.14454 1.22243 -3.34289e-21)
(1.07532 1.20573 -1.59038e-19)
(0.995184 1.18555 3.50659e-19)
(0.903913 1.16165 3.38981e-19)
(0.793731 1.13263 -6.10306e-20)
(0.657894 1.09615 1.00283e-18)
(0.474337 1.043 1.0874e-20)
(0.222327 0.94744 3.14806e-18)
(-0.123645 0.742185 -7.08356e-20)
(-0.572877 0.480544 2.0046e-20)
(-0.703887 1.11813 -4.41554e-19)
(0.127681 2.2374 9.7454e-22)
(0.475559 2.7368 -9.15411e-20)
(0.3501 3.23306 1.27246e-18)
(0.317507 3.44644 2.42183e-19)
(0.245441 3.42854 -2.99523e-20)
(0.199296 3.39777 5.30561e-20)
(0.301215 0.343815 6.31369e-20)
(1.23005 1.26392 0)
(1.1976 1.26341 -5.23752e-20)
(1.13868 1.25011 5.72204e-20)
(1.06912 1.23402 -2.63407e-19)
(0.988767 1.2146 -3.58431e-19)
(0.897816 1.19118 -3.73357e-19)
(0.787562 1.16484 7.63467e-19)
(0.651214 1.13373 -8.53958e-19)
(0.465956 1.09441 0)
(0.205847 1.03745 1.65349e-18)
(-0.164229 0.949762 -7.60031e-19)
(-0.644564 0.965148 0)
(-1.07848 1.81626 -1.87049e-19)
(-0.423047 3.00557 -7.74227e-19)
(-0.0353709 3.47084 5.82326e-19)
(0.101929 3.59652 -4.90639e-19)
(0.170254 3.54397 -2.28936e-19)
(0.157067 3.47887 -1.93184e-19)
(0.1536 3.44201 -3.35501e-19)
(0.521786 0.516326 -7.11659e-20)
(1.21258 1.283 0)
(1.18844 1.30318 7.47651e-20)
(1.12794 1.29129 -2.13421e-20)
(1.05758 1.27624 2.26557e-19)
(0.976401 1.25815 3.24474e-19)
(0.883497 1.23741 4.84568e-19)
(0.77244 1.21498 6.11709e-20)
(0.634532 1.19227 9.02315e-19)
(0.445587 1.17438 1.66499e-18)
(0.175762 1.175 1.04844e-19)
(-0.217593 1.24244 8.42257e-19)
(-0.693063 1.62399 9.20997e-20)
(-0.836385 2.49395 2.39839e-20)
(-0.446708 3.18838 3.3868e-19)
(-0.172805 3.43055 -3.44055e-19)
(-0.00275154 3.46182 4.51349e-19)
(0.0762808 3.45533 2.31413e-19)
(0.101701 3.45531 2.08322e-19)
(0.103051 3.45757 1.95683e-20)
(0.517099 0.518657 0)
(1.21305 1.31104 4.26062e-20)
(1.18315 1.331 -2.13641e-20)
(1.12184 1.31994 -3.62404e-21)
(1.05113 1.30537 1.28697e-19)
(0.969954 1.288 -3.0437e-19)
(0.876893 1.26828 -3.03689e-19)
(0.766353 1.24823 5.84591e-20)
(0.629951 1.23135 -9.82829e-19)
(0.445223 1.22809 -9.07866e-21)
(0.188541 1.26522 -3.41351e-18)
(-0.157359 1.41286 1.14764e-19)
(-0.515565 1.83823 -1.12038e-19)
(-0.58516 2.54307 5.62189e-21)
(-0.304257 3.06612 -8.38141e-20)
(-0.0727376 3.25367 -4.04504e-20)
(0.0493388 3.35315 -8.79806e-19)
(0.106948 3.40515 -5.55491e-19)
(0.11882 3.44223 3.22991e-19)
(0.102575 3.45973 1.51292e-19)
(0.493564 0.511654 1.38531e-19)
(1.21301 1.34373 3.05595e-19)
(1.17806 1.36194 -6.08056e-20)
(1.11571 1.35093 -1.0841e-20)
(1.04458 1.3364 0)
(0.963418 1.31932 -3.68281e-19)
(0.870513 1.3004 -4.18842e-19)
(0.761251 1.28277 5.5402e-20)
(0.628037 1.27191 -1.09797e-19)
(0.451128 1.28176 -1.67177e-18)
(0.216225 1.34777 -1.66463e-18)
(-0.0669533 1.54173 -1.08496e-18)
(-0.305058 1.95592 -9.03245e-19)
(-0.311479 2.50872 3.87725e-19)
(-0.109579 2.91105 -2.24563e-19)
(0.0552242 3.12523 0)
(0.148788 3.26454 0)
(0.191453 3.3809 3.49522e-19)
(0.175236 3.44798 0)
(0.116531 3.47783 3.81782e-19)
(0.472191 0.508577 -2.34112e-19)
(1.2103 1.37947 -2.87993e-19)
(1.17184 1.39536 0)
(1.10849 1.38349 1.09745e-20)
(1.03697 1.36842 7.56258e-20)
(0.956044 1.3514 -4.91695e-19)
(0.86397 1.33333 -2.5844e-19)
(0.756669 1.3178 4.51724e-20)
(0.626763 1.31081 -7.91319e-19)
(0.458474 1.32973 9.04124e-20)
(0.251414 1.41582 0)
(0.0388124 1.6296 0)
(-0.0984878 2.01065 -9.07173e-19)
(-0.0683184 2.46007 1.94908e-19)
(0.0871651 2.79607 -2.86833e-20)
(0.214606 3.03299 0)
(0.297666 3.21382 5.52566e-19)
(0.323624 3.34351 -8.49052e-19)