/*--------------------------------*- C++ -*----------------------------------*\
  =========                 |
  \\      /  F ield         | OpenFOAM: The Open Source CFD Toolbox
   \\    /   O peration     | Website:  https://openfoam.org
    \\  /    A nd           | Version:  9
     \\/     M anipulation  |
\*---------------------------------------------------------------------------*/
FoamFile
{
    format      ascii;
    class       volScalarField;
    location    "9";
    object      p;
}
// * * * * * * * * * * * * * * * * * * * * * * * * * * * * * * * * * * * * * //

dimensions      [0 2 -2 0 0 0 0];

internalField   nonuniform List<scalar> 
2200
(
0.435076
0.413631
0.397968
0.382433
0.368291
0.356329
0.34648
0.338922
0.333572
0.330829
0.331035
0.334194
0.339832
0.3476
0.357602
0.36967
0.383884
0.399463
0.415151
0.436609
0.366726
0.363627
0.36118
0.357797
0.353129
0.347158
0.341077
0.335611
0.331396
0.328996
0.329236
0.332068
0.336589
0.342275
0.34851
0.354578
0.359313
0.362746
0.365225
0.368335
0.325033
0.325758
0.328831
0.331164
0.332398
0.332406
0.331275
0.329184
0.32703
0.325496
0.325799
0.327774
0.330244
0.332573
0.333877
0.334
0.332857
0.330583
0.327552
0.32684
0.303072
0.304583
0.307931
0.311137
0.314094
0.31682
0.318695
0.31958
0.319751
0.319656
0.319954
0.320595
0.320816
0.320218
0.318544
0.315955
0.313086
0.309938
0.306639
0.305142
0.292978
0.294572
0.297604
0.300636
0.303606
0.306356
0.308587
0.310461
0.311797
0.31269
0.31305
0.312836
0.312022
0.310492
0.308476
0.30586
0.30298
0.300003
0.297015
0.295429
0.291706
0.292838
0.295033
0.297566
0.300201
0.3024
0.304212
0.305819
0.307124
0.308117
0.308542
0.308297
0.307587
0.306412
0.304885
0.302896
0.300417
0.297966
0.295806
0.294681
0.293628
0.294186
0.295281
0.296888
0.298761
0.300444
0.30199
0.303357
0.304454
0.305287
0.305755
0.305758
0.305386
0.304564
0.303416
0.302021
0.300339
0.298848
0.297795
0.297222
0.293552
0.293674
0.293989
0.294602
0.295517
0.296539
0.297727
0.298952
0.300131
0.301129
0.301785
0.301921
0.301627
0.301035
0.300309
0.299592
0.298865
0.298366
0.298109
0.297996
0.290557
0.290575
0.290593
0.290746
0.2911
0.291596
0.292372
0.293375
0.294532
0.295715
0.29666
0.297053
0.296982
0.296715
0.296424
0.296237
0.296087
0.296054
0.296104
0.296076
0.286835
0.286809
0.286884
0.287054
0.287354
0.28776
0.288353
0.289148
0.290165
0.291372
0.292482
0.293232
0.29356
0.29371
0.293758
0.293781
0.293764
0.293765
0.293784
0.293794
0.283167
0.283197
0.283315
0.283549
0.283906
0.284387
0.285044
0.28589
0.286975
0.288281
0.289577
0.29061
0.291237
0.291645
0.291878
0.291984
0.292002
0.291992
0.291978
0.291972
0.279179
0.279209
0.279308
0.279496
0.279837
0.280337
0.281063
0.282045
0.283328
0.284912
0.286565
0.287866
0.288808
0.289422
0.289794
0.290014
0.290135
0.290201
0.290229
0.290225
0.274523
0.274532
0.274649
0.274835
0.275151
0.275667
0.276446
0.277563
0.27909
0.281047
0.283182
0.284922
0.286173
0.287031
0.287599
0.287972
0.288211
0.288359
0.288436
0.288443
0.269301
0.269306
0.269438
0.269688
0.270084
0.270694
0.271615
0.272948
0.274801
0.277235
0.279939
0.282209
0.283858
0.28501
0.285782
0.286295
0.286621
0.286819
0.286917
0.286927
0.2636
0.263615
0.263773
0.264081
0.264586
0.265361
0.266515
0.268178
0.270491
0.273549
0.276958
0.279874
0.282002
0.283466
0.284458
0.285111
0.285523
0.285767
0.285886
0.285894
0.257272
0.257294
0.257497
0.257885
0.258518
0.259495
0.260949
0.263047
0.265964
0.269827
0.274141
0.277826
0.280499
0.282356
0.283615
0.284442
0.284966
0.285277
0.285428
0.285437
0.250098
0.250128
0.250382
0.250865
0.251659
0.252897
0.254742
0.257407
0.261108
0.265997
0.271444
0.276074
0.279433
0.281775
0.283361
0.284401
0.28506
0.28545
0.28564
0.285652
0.241751
0.241791
0.24213
0.24277
0.243809
0.245406
0.247772
0.251178
0.25589
0.262086
0.268949
0.274753
0.278957
0.281887
0.283868
0.28517
0.285998
0.286492
0.286732
0.286746
0.232074
0.232126
0.23255
0.23336
0.234689
0.236754
0.239817
0.244209
0.250242
0.258103
0.266727
0.273975
0.279214
0.282862
0.285326
0.286941
0.287961
0.288562
0.288851
0.288866
0.220315
0.220408
0.221013
0.222139
0.223933
0.22665
0.230651
0.236341
0.244082
0.254045
0.264839
0.273846
0.280341
0.284863
0.287919
0.289927
0.291207
0.291973
0.292347
0.292366
0.206317
0.206405
0.207159
0.208619
0.211003
0.214638
0.219955
0.227413
0.237382
0.249981
0.263417
0.274539
0.28255
0.288141
0.29193
0.294422
0.295997
0.296921
0.297358
0.297369
0.188538
0.18878
0.189946
0.192055
0.195363
0.2003
0.207423
0.217234
0.230072
0.24593
0.262525
0.276147
0.28596
0.292834
0.297521
0.300625
0.302612
0.303806
0.304393
0.304425
0.166392
0.166624
0.168193
0.171193
0.175967
0.18296
0.192724
0.205747
0.222241
0.242056
0.262369
0.278899
0.29082
0.299246
0.305069
0.308988
0.311519
0.313022
0.313726
0.313724
0.136951
0.137735
0.140428
0.145091
0.152196
0.162188
0.175684
0.192952
0.21401
0.238514
0.263073
0.28288
0.297199
0.307422
0.314607
0.319528
0.322797
0.324842
0.325864
0.325865
0.0981731
0.0993219
0.10373
0.111545
0.122808
0.137591
0.156275
0.178968
0.205548
0.235462
0.264748
0.288155
0.305137
0.317429
0.326288
0.332621
0.336988
0.339761
0.341288
0.341152
0.0466462
0.0473767
0.056019
0.0695213
0.0876162
0.109277
0.134827
0.164315
0.197341
0.233276
0.267638
0.294847
0.314676
0.329259
0.339997
0.347915
0.353746
0.357733
0.359447
0.359103
-0.0259194
-0.0204125
-0.00125328
0.0222229
0.0489568
0.078783
0.112284
0.14932
0.189421
0.23206
0.272172
0.303897
0.32736
0.34508
0.358689
0.36923
0.37754
0.38433
0.387691
0.387953
-0.113068
-0.0938303
-0.0608028
-0.0264531
0.00935977
0.0479675
0.0897742
0.134408
0.181832
0.231611
0.278162
0.315198
0.343034
0.364569
0.381656
0.395577
0.406777
0.415448
0.423772
0.425272
-0.176831
-0.157739
-0.115684
-0.0738501
-0.0292061
0.0183493
0.0682081
0.120337
0.174932
0.231518
0.284051
0.325726
0.357018
0.381209
0.400289
0.41559
0.42846
0.437586
0.445244
0.446896
-0.224346
-0.207043
-0.16122
-0.115247
-0.0637664
-0.0088915
0.0478872
0.106958
0.168171
0.230974
0.288777
0.334178
0.367846
0.393474
0.413336
0.428758
0.441624
0.450873
0.458027
0.459558
-0.263393
-0.245634
-0.197983
-0.149705
-0.0931608
-0.0332838
0.0289921
0.0940149
0.161029
0.229419
0.291872
0.340345
0.37576
0.402277
0.422537
0.438083
0.450719
0.459947
0.467108
0.468354
-0.296592
-0.27831
-0.228388
-0.177883
-0.117888
-0.0548763
0.0116549
0.0815451
0.153605
0.227124
0.293938
0.345281
0.382321
0.409696
0.430381
0.446174
0.458675
0.46794
0.474826
0.476373
-0.325606
-0.30749
-0.255161
-0.202108
-0.139363
-0.0740583
-0.00410182
0.0697472
0.146233
0.224504
0.295535
0.349746
0.388481
0.416809
0.437975
0.454023
0.466481
0.475722
0.482484
0.484016
-0.351608
-0.333592
-0.280021
-0.224483
-0.15929
-0.0916922
-0.0186904
0.0585088
0.138952
0.221679
0.296921
0.354125
0.394633
0.423933
0.44559
0.461865
0.474319
0.483523
0.490206
0.491687
-0.375283
-0.356898
-0.303321
-0.245793
-0.178691
-0.108703
-0.0328701
0.0473595
0.131454
0.218414
0.297856
0.358155
0.400619
0.431082
0.453337
0.469893
0.482433
0.491626
0.498151
0.499566
-0.397323
-0.378671
-0.324916
-0.266136
-0.197695
-0.12555
-0.0471942
0.0358601
0.123396
0.214478
0.298301
0.362093
0.406806
0.438545
0.461482
0.478381
0.491008
0.500206
0.506689
0.50807
-0.418193
-0.399557
-0.345272
-0.285611
-0.216134
-0.142241
-0.0617651
0.0238727
0.114667
0.209835
0.298199
0.365666
0.41293
0.446286
0.470101
0.487367
0.500158
0.509363
0.515701
0.517007
-0.438431
-0.419568
-0.364799
-0.304373
-0.233972
-0.158682
-0.0764693
0.0114395
0.105216
0.204264
0.297132
0.368694
0.419076
0.454415
0.479302
0.497188
0.510156
0.519436
0.525669
0.526859
-0.458261
-0.438864
-0.383732
-0.322577
-0.251315
-0.174876
-0.091228
-0.00138305
0.0950701
0.197895
0.29562
0.371638
0.42533
0.462992
0.489269
0.507633
0.520774
0.529981
0.536124
0.537342
-0.477633
-0.457647
-0.402175
-0.340323
-0.268288
-0.19088
-0.106035
-0.0145564
0.0842769
0.190635
0.292913
0.373408
0.430942
0.471425
0.499537
0.518911
0.532405
0.541582
0.547558
0.548583
-0.496443
-0.475968
-0.420123
-0.357633
-0.284932
-0.206726
-0.120902
-0.0280804
0.07277
0.182275
0.289127
0.374533
0.436264
0.480307
0.51075
0.531305
0.544895
0.553875
0.559587
0.560333
-0.514602
-0.493737
-0.437495
-0.374452
-0.30121
-0.222382
-0.135807
-0.0419218
0.0606447
0.173163
0.28477
0.374988
0.440851
0.488251
0.521812
0.544309
0.558698
0.567547
0.572352
0.572564
-0.532034
-0.51086
-0.454196
-0.3907
-0.31704
-0.237764
-0.150664
-0.0559713
0.0480153
0.163154
0.278742
0.373652
0.444245
0.49626
0.533731
0.559414
0.574705
0.58198
0.584889
0.583861
-0.548666
-0.527247
-0.470162
-0.406305
-0.332333
-0.25277
-0.165364
-0.0701451
0.0348911
0.152168
0.271833
0.371291
0.446097
0.502228
0.544347
0.57434
0.592591
0.599212
0.598746
0.595185
-0.564444
-0.542841
-0.485344
-0.42121
-0.34702
-0.267316
-0.179818
-0.0843641
0.021397
0.140596
0.264096
0.36777
0.446425
0.506422
0.553634
0.590065
0.614924
0.621747
0.612914
0.615587
-0.579356
-0.557578
-0.499714
-0.435377
-0.361055
-0.28134
-0.193933
-0.0984984
0.00769706
0.12844
0.255064
0.362521
0.444566
0.508162
0.559944
0.603899
0.639138
0.648994
0.613509
0.555107
-0.593431
-0.571481
-0.513325
-0.448881
-0.374553
-0.294972
-0.20787
-0.112754
-0.00649397
0.11535
0.244997
0.355716
0.439613
0.506033
0.561247
0.612552
0.662284
0.705629
0.743543
0.799384
-0.606682
-0.584629
-0.526279
-0.461859
-0.387679
-0.308425
-0.221894
-0.12748
-0.021709
0.100703
0.233032
0.346725
0.432393
0.499068
0.553916
0.59973
0.636589
0.671013
0.669751
0.671456
-0.619105
-0.597035
-0.538551
-0.474281
-0.400357
-0.321595
-0.23587
-0.142502
-0.037729
0.0847132
0.219158
0.335482
0.4207
0.483671
0.532211
0.566581
0.57371
0.546012
0.499899
0.494797
-0.630713
-0.60871
-0.550154
-0.486165
-0.412574
-0.334473
-0.249779
-0.157778
-0.0544257
0.0675417
0.203466
0.322588
0.405324
0.458003
0.494093
0.504012
0.469266
0.402794
0.331435
0.324026
-0.641547
-0.619695
-0.561118
-0.497527
-0.424345
-0.347063
-0.263605
-0.173262
-0.0718848
0.0489147
0.186138
0.308074
0.387101
0.420926
0.430465
0.407275
0.355802
0.250075
0.156996
0.142554
-0.651944
-0.63036
-0.571795
-0.508659
-0.43597
-0.359629
-0.277593
-0.189227
-0.0903064
0.028564
0.166871
0.291104
0.365936
0.380101
0.353104
0.294872
0.179076
0.0429092
-0.0770271
-0.0998976
-0.662595
-0.641285
-0.58273
-0.520027
-0.447916
-0.372575
-0.292135
-0.206067
-0.10996
0.0063102
0.145417
0.272364
0.342123
0.331926
0.262564
0.147506
-0.0393996
-0.215792
-0.358733
-0.385442
-0.67389
-0.652706
-0.594103
-0.531753
-0.460272
-0.385965
-0.307271
-0.223877
-0.131141
-0.0182951
0.12146
0.252147
0.313886
0.273739
0.170777
-0.0207953
-0.273783
-0.530189
-0.738174
-0.792729
-0.685827
-0.664626
-0.605859
-0.543785
-0.47294
-0.399713
-0.322944
-0.24264
-0.154015
-0.0453269
0.0937449
0.229615
0.28467
0.203986
0.0599535
-0.19804
-0.512395
-0.884998
-1.26722
-1.41052
-0.698286
-0.677024
-0.617965
-0.55611
-0.485865
-0.413781
-0.339118
-0.26223
-0.178604
-0.0747733
0.0617183
0.204456
0.257686
0.131335
-0.0821084
-0.388493
-0.731768
-1.20226
-1.89955
-2.53116
-0.711104
-0.68974
-0.630305
-0.568642
-0.498938
-0.428022
-0.355619
-0.282573
-0.20499
-0.1073
0.0252884
0.176971
0.228449
0.0600126
-0.227617
-0.592337
-0.934113
-1.32647
-2.0832
-3.95848
-0.724145
-0.702667
-0.642777
-0.58131
-0.512103
-0.44242
-0.37252
-0.303999
-0.233991
-0.143929
-0.0182929
0.142806
0.194823
-0.011555
-0.354956
-0.755612
-1.05789
-1.24403
-1.38506
-1.87338
-0.737308
-0.715696
-0.65537
-0.594093
-0.525404
-0.457038
-0.390043
-0.326727
-0.266415
-0.187152
-0.0751939
0.0947621
0.147704
-0.0822165
-0.448022
-0.820056
-1.08044
-1.19822
-1.21472
-1.26982
-0.750551
-0.728704
-0.667917
-0.60679
-0.538615
-0.471587
-0.40783
-0.350539
-0.301539
-0.246002
-0.147725
0.0219792
0.0733831
-0.16185
-0.536532
-0.83877
-1.0327
-1.1433
-1.16638
-1.20861
-0.763556
-0.741382
-0.680167
-0.619074
-0.551426
-0.485718
-0.425267
-0.375145
-0.340712
-0.31489
-0.251225
-0.0972573
-0.026613
-0.275027
-0.643661
-0.873975
-0.966384
-0.964292
-1.04241
-1.04153
-0.775942
-0.753476
-0.691688
-0.630527
-0.563343
-0.498955
-0.441721
-0.399285
-0.382953
-0.398105
-0.394084
-0.27864
-0.162029
-0.425815
-0.768072
-0.945181
-0.95373
-0.87419
-0.980936
-1.00522
-0.787225
-0.764354
-0.702078
-0.640648
-0.573763
-0.510611
-0.456466
-0.42146
-0.427963
-0.497739
-0.598199
-0.541234
-0.383955
-0.612168
-0.914449
-1.11036
-1.15056
-1.12683
-1.1407
-1.17192
-0.797097
-0.773841
-0.710825
-0.648882
-0.582013
-0.519588
-0.468174
-0.440319
-0.47336
-0.615253
-0.864077
-0.875354
-0.695221
-0.823817
-1.14829
-1.47866
-1.70377
-1.72462
-1.61967
-1.59945
-0.805152
-0.781192
-0.717461
-0.654751
-0.587386
-0.524948
-0.475385
-0.454444
-0.510243
-0.717553
-1.11458
-1.2268
-0.950286
-0.983312
-1.31682
-1.77399
-2.07786
-2.05124
-1.88539
-1.82473
-0.811486
-0.786386
-0.72172
-0.657668
-0.589361
-0.525945
-0.476325
-0.459088
-0.530368
-0.765413
-1.26841
-1.42983
-1.05287
-1.01757
-1.21145
-1.54198
-1.73541
-1.70232
-1.54272
-1.44876
-0.815983
-0.788893
-0.723215
-0.657555
-0.587673
-0.521991
-0.470076
-0.452923
-0.522243
-0.763068
-1.28214
-1.38527
-0.917836
-0.743324
-0.706099
-0.758226
-0.826538
-0.791504
-0.721401
-0.677317
-0.818224
-0.788795
-0.721645
-0.654319
-0.581909
-0.5129
-0.456332
-0.431345
-0.480484
-0.683533
-1.10885
-1.09626
-0.541256
-0.209558
0.026193
0.12119
0.0926882
0.100682
0.135516
0.152916
-0.817555
-0.787133
-0.718322
-0.647923
-0.572383
-0.499237
-0.435376
-0.395222
-0.410369
-0.534718
-0.772235
-0.596136
-0.0638138
0.308387
0.581359
0.696813
0.721123
0.749929
0.768166
0.77529
-0.812288
-0.783697
-0.711561
-0.638514
-0.560226
-0.482306
-0.409357
-0.351151
-0.324908
-0.354628
-0.393617
-0.089318
0.315396
0.629433
0.857691
0.975944
1.03421
1.07183
1.08856
1.09217
-0.803025
-0.775049
-0.699281
-0.625974
-0.545787
-0.462747
-0.38077
-0.304886
-0.239696
-0.186017
-0.0816035
0.261942
0.566307
0.818668
0.989529
1.09231
1.15434
1.1937
1.2142
1.22023
-0.788842
-0.761848
-0.683937
-0.612177
-0.528466
-0.440728
-0.351738
-0.261062
-0.166068
-0.049648
0.115012
0.421024
0.682833
0.886592
1.01729
1.10238
1.15902
1.19764
1.22115
1.22913
-0.766486
-0.741379
-0.668936
-0.594636
-0.50675
-0.417185
-0.323759
-0.223167
-0.111415
0.0292934
0.215638
0.472957
0.690007
0.850446
0.959043
1.03528
1.08971
1.12935
1.15656
1.16569
-0.735444
-0.714156
-0.645251
-0.569196
-0.480833
-0.391857
-0.29635
-0.191281
-0.072861
0.0739065
0.257292
0.464497
0.63725
0.765674
0.859781
0.929897
0.982722
1.02249
1.05186
1.06146
-0.690414
-0.674331
-0.607761
-0.533265
-0.450214
-0.362161
-0.268798
-0.163739
-0.0460912
0.0952967
0.261119
0.427343
0.563703
0.667874
0.747812
0.809769
0.858707
0.896755
0.925803
0.936335
-0.628799
-0.615988
-0.554202
-0.485459
-0.408774
-0.325988
-0.236654
-0.137785
-0.0271311
0.102804
0.243473
0.376752
0.483793
0.566346
0.630692
0.681259
0.721907
0.754235
0.779511
0.789755
-0.529511
-0.519528
-0.471723
-0.415678
-0.35041
-0.278746
-0.200155
-0.112943
-0.0146954
0.0995169
0.220888
0.33065
0.416685
0.48266
0.533263
0.571969
0.601782
0.624417
0.641529
0.648645
-0.38341
-0.378007
-0.353279
-0.320099
-0.272584
-0.218758
-0.156913
-0.0852704
-0.00192387
0.0946594
0.19939
0.29171
0.362054
0.415563
0.455419
0.484689
0.505823
0.519765
0.529409
0.532429
-0.24379
-0.241663
-0.232908
-0.216451
-0.187672
-0.153447
-0.109731
-0.0539858
0.0130653
0.0927395
0.178758
0.253746
0.310351
0.352347
0.382301
0.403045
0.417258
0.425046
0.430316
0.431911
-0.135932
-0.134687
-0.130338
-0.123076
-0.109683
-0.0910879
-0.0622357
-0.0220022
0.0286007
0.0919522
0.160992
0.220739
0.265097
0.297186
0.31911
0.333486
0.342937
0.34838
0.35141
0.352583
-0.0583454
-0.0587622
-0.0575158
-0.0543155
-0.047739
-0.0379825
-0.0187574
0.00788803
0.0442603
0.0930791
0.147152
0.193954
0.228096
0.252141
0.268121
0.278479
0.285131
0.288994
0.291232
0.292014
-0.00890749
-0.00994173
-0.0110317
-0.0102786
-0.0062114
0.000917331
0.0133205
0.0322119
0.0584483
0.0952925
0.13684
0.17297
0.199037
0.217149
0.229085
0.237396
0.24197
0.244228
0.245159
0.245167
0.0196283
0.0187155
0.0169831
0.0164825
0.0184947
0.0234892
0.0324224
0.0480035
0.0678266
0.0960378
0.127992
0.15586
0.176014
0.190182
0.199519
0.205253
0.208289
0.209402
0.209514
0.20925
0.035587
0.0348461
0.0337051
0.0330853
0.0339651
0.0371798
0.0437952
0.0551758
0.0712741
0.0940394
0.119177
0.141026
0.156832
0.168017
0.175016
0.179021
0.180964
0.181613
0.181614
0.181369
0.0458161
0.0452931
0.044838
0.0446345
0.0451921
0.047313
0.0516821
0.0598392
0.071975
0.0906583
0.110543
0.127861
0.140135
0.14889
0.153908
0.156791
0.158215
0.158775
0.158875
0.158697
0.0533658
0.0530139
0.0528943
0.0528634
0.0534059
0.0551123
0.0581582
0.0638672
0.0723722
0.0872359
0.102595
0.116249
0.125746
0.132063
0.135853
0.138084
0.139218
0.139699
0.13983
0.139701
0.0582335
0.0579835
0.0578977
0.0578062
0.0582381
0.0596503
0.062039
0.0664063
0.0728909
0.0830503
0.0953454
0.105811
0.113236
0.117856
0.120744
0.122475
0.123338
0.123686
0.123778
0.123675
0.0602512
0.0600614
0.0599545
0.0598135
0.0600914
0.061151
0.0630182
0.0664967
0.0715716
0.0792584
0.0883558
0.0963292
0.101924
0.105607
0.107874
0.109206
0.109847
0.110085
0.110137
0.110052
0.0601075
0.0599711
0.0598799
0.0597729
0.0599697
0.0607422
0.0621415
0.0648374
0.0688058
0.0747372
0.0816516
0.0877254
0.0920174
0.0948796
0.0966296
0.0976418
0.098123
0.0982943
0.0983271
0.0982594
0.0585855
0.0584949
0.0584351
0.0583864
0.0585577
0.0591486
0.0602045
0.0622366
0.0652717
0.0698262
0.0751244
0.0797621
0.0830496
0.0852513
0.0865927
0.0873634
0.08773
0.0878583
0.0878811
0.0878291
0.0561138
0.0560533
0.0560134
0.0560004
0.0561518
0.0566176
0.0574392
0.0589793
0.0612859
0.064746
0.0687891
0.072343
0.0748385
0.076508
0.0775312
0.0781155
0.0783923
0.0784859
0.0784995
0.0784583
0.052875
0.0528318
0.0528001
0.0527987
0.0529214
0.0532818
0.0539252
0.0551038
0.0568686
0.0594921
0.0625618
0.0652764
0.0671851
0.0684564
0.0692286
0.0696625
0.069866
0.0699301
0.0699357
0.0699025
0.0490232
0.0489899
0.0489644
0.048968
0.0490656
0.0493413
0.0498407
0.0507418
0.0520991
0.0541038
0.0564562
0.0585247
0.0599712
0.060916
0.0614914
0.0618199
0.0619702
0.0620135
0.0620137
0.0619872
0.0447227
0.0446972
0.0446764
0.0446802
0.0447556
0.0449643
0.0453485
0.0460326
0.0470714
0.0486024
0.0504049
0.0519787
0.053073
0.0537821
0.0542094
0.0544489
0.0545573
0.0545866
0.0545841
0.0545618
0.0400644
0.0400446
0.0400291
0.0400332
0.0400913
0.040248
0.0405406
0.041056
0.0418442
0.0430017
0.0443669
0.0455515
0.0463792
0.046919
0.047244
0.047422
0.0474999
0.0475179
0.0475137
0.0474961
0.0351507
0.0351347
0.0351223
0.0351252
0.0351697
0.0352879
0.0355103
0.0358981
0.0364948
0.0373659
0.0383905
0.0392759
0.0398953
0.0402995
0.0405414
0.0406716
0.0407268
0.0407371
0.040732
0.0407177
0.0300412
0.0300292
0.030018
0.0300169
0.0300468
0.0301319
0.0302969
0.0305846
0.0310293
0.0316785
0.0324401
0.0330938
0.0335505
0.0338497
0.0340285
0.034124
0.0341632
0.0341687
0.0341634
0.0341515
0.0247673
0.024757
0.0247477
0.0247456
0.0247661
0.0248259
0.0249441
0.0251512
0.0254745
0.0259461
0.0265053
0.0269835
0.0273179
0.0275357
0.0276633
0.027729
0.027753
0.0277527
0.0277462
0.027737
0.0193864
0.0193785
0.01937
0.0193661
0.0193788
0.01942
0.0195028
0.0196484
0.0198764
0.0202079
0.0206012
0.0209391
0.0211743
0.021323
0.0214085
0.0214512
0.0214651
0.0214624
0.0214562
0.0214488
0.0139226
0.0139171
0.0139096
0.0139036
0.0139082
0.0139321
0.0139846
0.0140793
0.0142284
0.0144456
0.0147053
0.0149263
0.0150794
0.0151769
0.0152329
0.0152598
0.0152672
0.015263
0.0152572
0.0152514
0.00839761
0.00839206
0.00838392
0.00837643
0.00837655
0.00838915
0.00841672
0.0084677
0.00854941
0.00866914
0.00881328
0.00893495
0.00901996
0.00907586
0.00910788
0.00912302
0.00912601
0.00911956
0.00911244
0.00910669
0.00281798
0.0028151
0.00281024
0.00280592
0.00280402
0.002806
0.00281391
0.00283003
0.00285607
0.00289297
0.00293521
0.00297283
0.00300081
0.00301926
0.00302761
0.00302945
0.00302495
0.00301907
0.00301608
0.00301389
-1.73713
-0.739521
-0.46034
-0.137993
0.0844149
0.277565
0.44207
0.610012
0.788684
0.87115
-0.627522
-0.147914
-0.0974221
0.118429
0.275061
0.415383
0.538896
0.647831
0.690149
0.641631
-0.165703
0.0887252
0.154564
0.303689
0.41402
0.513517
0.59648
0.658696
0.669958
0.678683
0.116932
0.288997
0.332798
0.452075
0.523329
0.593998
0.648995
0.687675
0.701025
0.722713
0.329842
0.449669
0.478586
0.566744
0.615196
0.66523
0.703713
0.731419
0.742065
0.773141
0.491217
0.573151
0.604904
0.660123
0.700283
0.734711
0.762281
0.783902
0.798703
0.825563
0.624728
0.682707
0.710676
0.744114
0.775299
0.801041
0.821877
0.84073
0.855887
0.882407
0.736359
0.778049
0.800484
0.823072
0.845819
0.866376
0.884442
0.903386
0.91895
0.942985
0.834991
0.865681
0.883264
0.899492
0.916974
0.934336
0.951068
0.969612
0.983424
1.00557
0.926792
0.948995
0.963962
0.977685
0.991894
1.00644
1.02067
1.03595
1.04761
1.0671
1.01605
1.03185
1.04571
1.05741
1.06957
1.08129
1.09244
1.10444
1.11257
1.12977
1.10123
1.11375
1.12797
1.13993
1.15074
1.16083
1.1698
1.17802
1.18209
1.19363
1.19051
1.20176
1.21559
1.22561
1.2334
1.24052
1.2474
1.25389
1.25454
1.26197
1.28923
1.29394
1.30254
1.30762
1.31105
1.31551
1.32128
1.32864
1.33225
1.34164
1.4025
1.38905
1.38173
1.3759
1.37303
1.37438
1.38112
1.39382
1.40875
1.43826
1.52393
1.46823
1.43695
1.41949
1.41145
1.41155
1.42033
1.4398
1.47165
1.54112
)
;

boundaryField
{
    wall-4
    {
        type            zeroGradient;
    }
    pressure-outlet-7
    {
        type            fixedValue;
        value           uniform 0;
    }
    velocity-inlet-6
    {
        type            zeroGradient;
    }
    velocity-inlet-5
    {
        type            zeroGradient;
    }
    frontAndBackPlanes
    {
        type            empty;
    }
}


// ************************************************************************* //
