/*--------------------------------*- C++ -*----------------------------------*\
  =========                 |
  \\      /  F ield         | OpenFOAM: The Open Source CFD Toolbox
   \\    /   O peration     | Website:  https://openfoam.org
    \\  /    A nd           | Version:  9
     \\/     M anipulation  |
\*---------------------------------------------------------------------------*/
FoamFile
{
    format      ascii;
    class       surfaceScalarField;
    location    "9";
    object      phi;
}
// * * * * * * * * * * * * * * * * * * * * * * * * * * * * * * * * * * * * * //

dimensions      [0 3 -1 0 0 0 0];

internalField   nonuniform List<scalar> 
4262
(
0.107052
0.470936
0.0948354
0.705803
0.0679198
0.859219
0.0459309
1.02075
0.0302964
1.21415
0.0193804
1.44914
0.0119721
1.73327
0.00683318
2.07618
0.00302599
2.48905
-5.64056e-05
2.98537
-0.00318374
2.98542
-0.00699046
2.48905
-0.0121198
2.07617
-0.0195294
1.73327
-0.0304213
1.44911
-0.0460332
1.21413
-0.0680008
1.02073
-0.0948805
0.859183
-0.107081
0.705786
0.470907
0.113216
0.357719
0.134959
0.68406
0.118725
0.875453
0.0937895
1.04569
0.0690804
1.23886
0.0474985
1.47072
0.0301699
1.7506
0.0171781
2.08917
0.00767011
2.49856
-0.000578954
2.99362
-0.00881477
2.99366
-0.0182638
2.4985
-0.0312124
2.08911
-0.0483971
1.75046
-0.0698307
1.47055
-0.094374
1.23867
-0.119156
1.04551
-0.135268
0.875295
-0.113373
0.683891
0.357535
0.08556
0.272159
0.117531
0.65209
0.114031
0.878953
0.0988353
1.06088
0.0806927
1.257
0.0624511
1.48896
0.0449843
1.76807
0.0288196
2.10533
0.0142623
2.51312
-0.00112921
3.00902
-0.0163415
3.00887
-0.0305234
2.51268
-0.0462948
2.10489
-0.0634492
1.76761
-0.0814625
1.48856
-0.0994834
1.25669
-0.114598
1.06063
-0.117978
0.878674
-0.08576
0.651673
0.271775
0.0505818
0.221578
0.0835684
0.619103
0.0871799
0.875341
0.0799733
1.06809
0.06936
1.26762
0.0582227
1.5001
0.0454058
1.78088
0.0310703
2.11967
0.0154242
2.52876
-0.00150417
3.02594
-0.0181838
3.02555
-0.0333748
2.52787
-0.0475632
2.11907
-0.0602232
1.78027
-0.0711056
1.49944
-0.0813552
1.26694
-0.0881565
1.06743
-0.0841501
0.874668
-0.0508056
0.618329
0.220969
0.0240036
0.197574
0.0489531
0.594154
0.0564032
0.867891
0.0551504
1.06934
0.05061
1.27216
0.043953
1.50675
0.0355291
1.78931
0.0253741
2.12982
0.0127147
2.54142
-0.00187971
3.04054
-0.0164928
3.04016
-0.028947
2.54033
-0.0385149
2.12864
-0.0462672
1.78802
-0.0522902
1.50546
-0.0564132
1.27106
-0.0573124
1.06833
-0.0495957
0.866951
-0.0242961
0.593029
0.196673
0.0065276
0.191046
0.021225
0.579456
0.0302858
0.85883
0.035238
1.06439
0.0369879
1.27041
0.0351995
1.50854
0.0302854
1.79422
0.0220331
2.13807
0.0107445
2.55271
-0.00261964
3.0539
-0.0157324
3.05327
-0.0264316
2.55103
-0.0336973
2.13591
-0.0377505
1.79208
-0.0389858
1.5067
-0.0368033
1.26888
-0.0314702
1.063
-0.0220259
0.857507
-0.0069072
0.57791
0.189766
-0.00103792
0.192084
0.00480289
0.573615
0.0127057
0.850928
0.0204619
1.05663
0.0256876
1.26518
0.026686
1.50754
0.0237531
1.79715
0.0174687
2.14436
0.00825957
2.56192
-0.00357122
3.06573
-0.0150083
3.06471
-0.0234543
2.55947
-0.0288504
2.1413
-0.0310401
1.79427
-0.0292226
1.50488
-0.023138
1.2628
-0.0146234
1.05448
-0.00585821
0.848742
0.000618403
0.571434
0.190384
-0.00162043
0.193705
3.91868e-05
0.571956
0.00540097
0.845566
0.0118517
1.05018
0.0167944
1.26024
0.0188244
1.50551
0.0176888
1.79829
0.0132883
2.14876
0.00573709
2.56947
-0.00444162
3.07591
-0.0144337
3.0747
-0.0215693
2.56661
-0.0250811
2.14482
-0.0250387
1.79423
-0.0216978
1.50154
-0.0154991
1.2566
-0.00786678
1.04685
-0.00139365
0.842269
0.00118242
0.568858
0.191566
-0.00043421
0.194139
0.000249855
0.571272
0.00369256
0.842123
0.00798486
1.04589
0.0112761
1.25695
0.0125344
1.50426
0.0115166
1.79931
0.0080452
2.15223
0.0021975
2.57532
-0.00567819
3.08379
-0.0131509
3.08218
-0.0178829
2.57134
-0.0197542
2.14669
-0.0191004
1.79357
-0.0163552
1.4988
-0.0117447
1.25199
-0.00631551
1.04142
-0.00188891
0.837842
-0.000114152
0.567083
0.191452
-0.000208699
0.194348
-3.4309e-05
0.571097
0.00195458
0.840134
0.00459306
1.04325
0.00667676
1.25486
0.00748733
1.50344
0.00660062
1.8002
0.00374525
2.15509
-0.000987767
2.58005
-0.00723316
3.09003
-0.0126488
3.08759
-0.01532
2.57401
-0.0162768
2.14764
-0.0152211
1.79252
-0.0126726
1.49625
-0.00906708
1.24838
-0.00510758
1.03746
-0.00193654
0.834671
-0.000533357
0.56568
0.190919
-0.000638327
0.194986
-0.00102338
0.571482
-0.000402173
0.839513
0.00088119
1.04197
0.00203908
1.25371
0.0024869
1.503
0.00173868
1.80094
-0.000506382
2.15733
-0.00423401
2.58378
-0.00908671
3.09489
-0.0129761
3.09148
-0.014325
2.57536
-0.0142023
2.14752
-0.0126412
1.79095
-0.010037
1.49364
-0.0069182
1.24526
-0.00382374
1.03437
-0.00143101
0.832278
-0.000343145
0.564592
0.190576
-0.000830263
0.195816
-0.00161649
0.572269
-0.00181105
0.839708
-0.00165618
1.04181
-0.00151066
1.25356
-0.00183902
1.50333
-0.00289859
1.802
-0.00488455
2.15932
-0.0077979
2.58669
-0.0112513
3.09834
-0.0136368
3.09387
-0.0141842
2.57591
-0.0131182
2.14645
-0.0111537
1.78899
-0.00862284
1.49111
-0.00593691
1.24258
-0.00345923
1.03189
-0.00151501
0.830334
-0.000411451
0.563488
0.190164
-0.000852257
0.196669
-0.00195875
0.573375
-0.00257409
0.840323
-0.00318384
1.04242
-0.00404997
1.25443
-0.00526113
1.50454
-0.0069144
1.80366
-0.0090651
2.16147
-0.0116216
2.58925
-0.0140688
3.10079
-0.0152488
3.09505
-0.0149448
2.5756
-0.0132707
2.14478
-0.0109843
1.7867
-0.00849307
1.48862
-0.00605106
1.24014
-0.00386525
1.0297
-0.00204555
0.828514
-0.000709867
0.562153
0.189454
-0.00101126
0.19768
-0.00248829
0.574852
-0.00371609
0.841551
-0.00501662
1.04372
-0.00660671
1.25602
-0.00852285
1.50645
-0.0107756
1.80591
-0.0132916
2.16398
-0.0158273
2.59178
-0.0177038
3.10266
-0.0178193
3.09516
-0.0166085
2.57439
-0.0144747
2.14265
-0.0118706
1.7841
-0.0092181
1.48597
-0.00672337
1.23764
-0.00450291
1.02748
-0.00255995
0.826571
-0.000941414
0.560534
0.188513
-0.0013362
0.199016
-0.00330571
0.576822
-0.00521833
0.843463
-0.00722881
1.04574
-0.00951644
1.2583
-0.0121318
1.50907
-0.0150314
1.80881
-0.0180463
2.167
-0.0207798
2.59452
-0.0224038
3.10429
-0.0218348
3.09459
-0.0197571
2.57231
-0.0168755
2.13977
-0.0137248
1.78095
-0.0106603
1.4829
-0.00784954
1.23483
-0.00535066
1.02498
-0.00310753
0.824328
-0.00115142
0.558578
0.187362
-0.00173999
0.200756
-0.0043165
0.579398
-0.0068511
0.845998
-0.00955922
1.04844
-0.0126484
1.26139
-0.0161271
1.51255
-0.0198914
1.81257
-0.0236479
2.17076
-0.0268249
2.59769
-0.0283931
3.10585
-0.0272254
3.09342
-0.0242212
2.56931
-0.0204385
2.13598
-0.0165144
1.77702
-0.0128035
1.47919
-0.00946491
1.23149
-0.0065159
1.02203
-0.00383279
0.821645
-0.00142884
0.556174
0.185933
-0.00225403
0.20301
-0.00560779
0.582752
-0.00900269
0.849393
-0.0126295
1.05207
-0.0166883
1.26545
-0.0211749
1.51703
-0.0259327
1.81733
-0.0305788
2.1754
-0.0343412
2.60146
-0.0359115
3.10742
-0.0340869
3.0916
-0.0301039
2.56533
-0.0252925
2.13117
-0.0204205
1.77215
-0.0158692
1.47464
-0.0117897
1.22741
-0.00816445
1.01841
-0.0048282
0.818309
-0.00180721
0.553153
0.184126
-0.00285925
0.205869
-0.00707721
0.58697
-0.0112884
0.853604
-0.0158788
1.05666
-0.0211706
1.27074
-0.0270523
1.52291
-0.0332643
1.82354
-0.0392133
2.18135
-0.0438617
2.60611
-0.045547
3.10911
-0.0429309
3.08898
-0.0377102
2.56011
-0.0315379
2.125
-0.0253505
1.76597
-0.0196142
1.46891
-0.0145222
1.22232
-0.0100505
1.01394
-0.00595773
0.814216
-0.00223382
0.549429
0.181892
-0.00386841
0.209738
-0.00956829
0.59267
-0.0152915
0.859327
-0.0213605
1.06273
-0.0280499
1.27743
-0.0353656
1.53023
-0.0430093
1.83119
-0.0502665
2.18861
-0.0557898
2.61163
-0.0574847
3.11081
-0.0538723
3.08537
-0.0471945
2.55343
-0.0394667
2.11727
-0.0318113
1.75831
-0.0247603
1.46185
-0.0184846
1.21605
-0.0128891
1.00834
-0.00765722
0.808984
-0.00285247
0.544624
0.179039
-0.00481552
0.214553
-0.0116721
0.599526
-0.0186605
0.866316
-0.0263774
1.07045
-0.035289
1.28634
-0.0450851
1.54003
-0.0551846
1.84129
-0.0645023
2.19793
-0.0712982
2.61842
-0.0730045
3.11251
-0.0680505
3.08042
-0.0594096
2.54479
-0.0495075
2.10737
-0.0396718
1.74847
-0.0305767
1.45276
-0.0225157
1.20798
-0.0154685
1.00129
-0.00911259
0.802628
-0.00341554
0.538927
0.175624
-0.00697352
0.221527
-0.0169508
0.609504
-0.0264289
0.875794
-0.036386
1.0804
-0.0473092
1.29727
-0.0591986
1.55192
-0.0714095
1.8535
-0.0825544
2.20907
-0.0903753
2.62625
-0.0917543
3.11389
-0.0850758
3.07374
-0.0741221
2.53383
-0.061825
2.09507
-0.049796
1.73645
-0.0388162
1.44178
-0.029116
1.19828
-0.0204669
0.992645
-0.0122192
0.794381
-0.00450281
0.531211
0.171121
-0.00853789
0.230065
-0.0202554
0.621221
-0.0325855
0.888124
-0.0460376
1.09386
-0.0611392
1.31237
-0.0771293
1.56791
-0.092884
1.86925
-0.106517
2.2227
-0.115418
2.63515
-0.116026
3.1145
-0.10695
3.06466
-0.0930049
2.51989
-0.0774986
2.07957
-0.0621667
1.72111
-0.0479096
1.42752
-0.0351471
1.18552
-0.0239195
0.981417
-0.0139267
0.784388
-0.00518963
0.522474
0.165931
-0.0135772
0.243642
-0.0312814
0.638925
-0.0471252
0.903968
-0.0638893
1.11062
-0.082196
1.33068
-0.101701
1.58741
-0.120579
1.88813
-0.136438
2.23856
-0.145935
2.64464
-0.14514
3.1137
-0.133031
3.05255
-0.115532
2.50239
-0.0964609
2.06049
-0.0778885
1.70254
-0.0608526
1.41049
-0.0457823
1.17045
-0.0323268
0.967962
-0.0193665
0.771428
-0.00712436
0.510232
0.158807
-0.0172244
0.260866
-0.0395386
0.661239
-0.0622825
0.926712
-0.0862999
1.13464
-0.111565
1.35594
-0.136212
1.61206
-0.158569
1.91049
-0.175873
2.25587
-0.184781
2.65355
-0.181293
3.11022
-0.165066
3.03633
-0.143328
2.48065
-0.120103
2.03727
-0.0973781
1.67982
-0.0760901
1.3892
-0.0564932
1.15085
-0.0387487
0.950217
-0.0224918
0.755171
-0.00799249
0.495732
0.150814
-0.0327953
0.293662
-0.0662616
0.694706
-0.0948406
0.955291
-0.124485
1.16428
-0.154243
1.3857
-0.182933
1.64075
-0.207628
1.93518
-0.225006
2.27324
-0.231885
2.66043
-0.224315
3.10264
-0.203036
3.01505
-0.176427
2.45404
-0.148544
2.00939
-0.121421
1.65269
-0.0962851
1.36406
-0.0737162
1.12829
-0.0528292
0.92933
-0.0325881
0.73493
-0.0112728
0.474417
0.139542
-0.0437726
0.337434
-0.0984417
0.749375
-0.141132
0.997981
-0.180972
1.20412
-0.216538
1.42126
-0.247724
1.67193
-0.27195
1.95941
-0.2868
2.28809
-0.289261
2.66289
-0.275533
3.08892
-0.247878
2.98739
-0.215943
2.42211
-0.183564
1.97701
-0.152415
1.62154
-0.122996
1.33464
-0.095422
1.10071
-0.0692242
0.903132
-0.0408649
0.70657
-0.0133663
0.446918
0.126175
-0.0267973
0.364231
-0.0710659
0.793643
-0.115248
1.04216
-0.158597
1.24747
-0.200879
1.46355
-0.240387
1.71144
-0.27543
1.99445
-0.304268
2.31693
-0.322508
2.68113
-0.323598
3.09001
-0.303942
2.96774
-0.271455
2.38962
-0.23195
1.9375
-0.189247
1.57884
-0.14594
1.29134
-0.103475
1.05825
-0.063454
0.863111
-0.0295065
0.672623
-0.00684656
0.424259
0.119329
0.00124317
0.362988
-0.0227056
0.817592
-0.0567798
1.07624
-0.0939828
1.28467
-0.131046
1.50061
-0.166213
1.74661
-0.198209
2.02645
-0.223865
2.34259
-0.23903
2.6963
-0.237829
3.08881
-0.217609
2.94752
-0.186673
2.35868
-0.150824
1.90165
-0.113765
1.54178
-0.077962
1.25553
-0.0453161
1.0256
-0.0159015
0.833697
0.00341921
0.653302
0.00673697
0.420941
0.126066
0.00311965
0.359869
-0.00959995
0.830312
-0.0329124
1.09955
-0.0602289
1.31199
-0.0900572
1.53044
-0.119696
1.77625
-0.147402
2.05415
-0.169693
2.36488
-0.182853
2.70946
-0.181457
3.08741
-0.163649
2.92971
-0.137602
2.33264
-0.108892
1.87295
-0.0806298
1.51352
-0.0542815
1.22918
-0.0306229
1.00194
-0.0117019
0.814776
0.00215071
0.639449
0.00461081
0.418481
0.130677
0.00623645
0.353632
-0.00384043
0.840389
-0.022993
1.1187
-0.0446368
1.33363
-0.0674927
1.55329
-0.0916601
1.80042
-0.114979
2.07747
-0.134196
2.38409
-0.145899
2.72116
-0.145074
3.08658
-0.130255
2.91489
-0.108891
2.31127
-0.085942
1.85
-0.063935
1.49151
-0.0439841
1.20923
-0.0264479
0.984406
-0.0122793
0.800607
-0.00270536
0.629875
0.000881403
0.414894
0.131558
0.00755504
0.346077
0.000643914
0.8473
-0.0169023
1.13625
-0.0356003
1.35233
-0.0549084
1.5726
-0.0752531
1.82076
-0.0948543
2.09707
-0.111478
2.40072
-0.121972
2.73166
-0.121798
3.08641
-0.109457
2.90255
-0.091457
2.29327
-0.0722104
1.83075
-0.0539482
1.47325
-0.0377047
1.19299
-0.0238443
0.970546
-0.0127407
0.789503
-0.00459877
0.621734
-0.00073926
0.411034
0.130819
0.00600278
0.340074
0.00182319
0.851479
-0.0130014
1.15107
-0.0298768
1.36921
-0.0473473
1.59007
-0.0653248
1.83874
-0.0823002
2.11405
-0.0971085
2.41553
-0.106889
2.74144
-0.107545
3.08707
-0.0971753
2.89218
-0.0814466
2.27754
-0.0645416
1.81384
-0.0485928
1.4573
-0.0345033
1.1789
-0.022563
0.958605
-0.0128708
0.779811
-0.00568827
0.614551
-0.00118308
0.406529
0.129636
0.00342921
0.336645
0.00024975
0.854659
-0.0119004
1.16322
-0.0264068
1.38371
-0.0423437
1.60601
-0.0587731
1.85517
-0.0743448
2.12962
-0.088303
2.42948
-0.0979896
2.75112
-0.0996579
3.08874
-0.0909768
2.8835
-0.0770137
2.26358
-0.0617006
1.79853
-0.0470419
1.44264
-0.0340251
1.16588
-0.0229031
0.947483
-0.0136086
0.770517
-0.00642062
0.607363
-0.00171252
0.401821
0.127923
0.000505956
0.336139
-0.00305424
0.858219
-0.0129517
1.17312
-0.0250425
1.3958
-0.0393072
1.62027
-0.054361
1.87022
-0.0692103
2.14447
-0.0828975
2.44317
-0.092996
2.76122
-0.0960597
3.0918
-0.0890173
2.87646
-0.0761196
2.25068
-0.0615428
1.78395
-0.0474985
1.4286
-0.0348022
1.15319
-0.0237913
0.936472
-0.0145688
0.761294
-0.00725822
0.600052
-0.00217751
0.39674
0.125746
-0.00131903
0.337458
-0.00581907
0.862719
-0.0144153
1.18172
-0.0249405
1.40633
-0.0377469
1.63308
-0.0515421
1.88402
-0.0658624
2.15879
-0.0795833
2.45689
-0.0905972
2.77223
-0.0955213
3.09672
-0.0904738
2.87141
-0.078993
2.2392
-0.0649248
1.76989
-0.0506469
1.41432
-0.0375917
1.14013
-0.0262367
0.925117
-0.0164704
0.751528
-0.00850094
0.592083
-0.00275284
0.390992
0.122993
-0.00258202
0.34004
-0.00741378
0.867551
-0.0153256
1.18963
-0.0250892
1.41609
-0.0369065
1.6449
-0.0497772
1.89689
-0.0637053
2.17272
-0.077613
2.4708
-0.0896859
2.78431
-0.0965034
3.10354
-0.0931413
2.86805
-0.0821387
2.2282
-0.0682248
1.75597
-0.0539769
1.40007
-0.0406677
1.12682
-0.0288071
0.913257
-0.0185401
0.741261
-0.00983968
0.583382
-0.00326767
0.38442
0.119725
-0.00336495
0.343405
-0.00835908
0.872545
-0.0157439
1.19701
-0.0250538
1.4254
-0.0361868
1.65603
-0.0484856
1.90919
-0.0621619
2.18639
-0.0763749
2.48501
-0.0897533
2.79769
-0.0992879
3.11308
-0.0994941
2.86825
-0.0908099
2.21951
-0.076467
1.74163
-0.0608119
1.38442
-0.0459155
1.11193
-0.0326804
0.900022
-0.0214857
0.730066
-0.0120176
0.573914
-0.00423937
0.376642
0.115486
-0.00357933
0.346984
-0.00879543
0.877761
-0.0158417
1.20406
-0.0247844
1.43435
-0.0353637
1.66661
-0.0472934
1.92112
-0.0608359
2.19994
-0.0754411
2.49962
-0.090103
2.81235
-0.101873
3.12485
-0.103653
2.87003
-0.0953068
2.21117
-0.0823415
1.72866
-0.0663666
1.36844
-0.0507507
1.09631
-0.0367006
0.885972
-0.0238368
0.717202
-0.0128946
0.562972
-0.00466832
0.368416
0.110817
-0.00358946
0.350574
-0.00893354
0.883105
-0.0157001
1.21083
-0.0242684
1.44291
-0.034354
1.6767
-0.0459658
1.93273
-0.0593741
2.21334
-0.0743627
2.51461
-0.0903537
2.82834
-0.105002
3.13949
-0.111378
2.87641
-0.106364
2.20615
-0.0922063
1.71451
-0.075743
1.35198
-0.0583886
1.07896
-0.0420104
0.869594
-0.0288001
0.703992
-0.0168223
0.550995
-0.00600117
0.357595
0.104816
-0.00353815
0.354112
-0.00884726
0.888414
-0.0153775
1.21736
-0.0235723
1.45111
-0.0331915
1.68631
-0.0444554
1.94399
-0.0577226
2.22661
-0.0731221
2.53001
-0.0905141
2.84573
-0.108137
3.15712
-0.117704
2.88598
-0.114898
2.20335
-0.103277
1.70289
-0.0843105
1.33301
-0.064317
1.05896
-0.0473207
0.852597
-0.0312176
0.687889
-0.0171559
0.536933
-0.00639563
0.346835
0.0984206
-0.00344463
0.357557
-0.00863964
0.893609
-0.0149092
1.22363
-0.022693
1.45889
-0.0318639
1.69549
-0.0427411
1.95487
-0.055797
2.23967
-0.0714341
2.54564
-0.0898768
2.86417
-0.109996
3.17724
-0.123336
2.89932
-0.123416
2.20343
-0.112923
1.69239
-0.0963064
1.3164
-0.07631
1.03897
-0.0543402
0.830627
-0.036413
0.669962
-0.0211924
0.521712
-0.00764083
0.333283
0.0907798
-0.00332042
0.360877
-0.00834607
0.898635
-0.0143556
1.22964
-0.0217188
1.46626
-0.0304153
1.70418
-0.0408424
1.9653
-0.0536015
2.25243
-0.0693199
2.56136
-0.0887918
2.88365
-0.111518
3.19996
-0.12946
2.91726
-0.134408
2.20838
-0.126488
1.68447
-0.108616
1.29852
-0.0831815
1.01353
-0.0573303
0.804776
-0.0369085
0.64954
-0.0201451
0.504949
-0.00657392
0.319712
0.0842059
-0.00317891
0.364056
-0.00800557
0.903462
-0.013706
1.23534
-0.0206241
1.47317
-0.0288364
1.71239
-0.0387742
1.97523
-0.0511559
2.26481
-0.0668421
2.57705
-0.0870799
2.90388
-0.112616
3.2255
-0.134826
2.93947
-0.143363
2.21691
-0.137882
1.67899
-0.119925
1.28057
-0.0972514
0.990858
-0.0734909
0.781016
-0.0473924
0.623442
-0.0249106
0.482467
-0.00613856
0.30094
0.0780673
-0.00305699
0.367113
-0.00766553
0.90807
-0.013033
1.2407
-0.0195017
1.47964
-0.0271876
1.72008
-0.0365931
1.98464
-0.0485194
2.27673
-0.0639911
2.59252
-0.0847953
2.92469
-0.112405
3.25311
-0.138954
2.96602
-0.154033
2.23199
-0.154272
1.67923
-0.141802
1.2681
-0.11905
0.968106
-0.0812293
0.743195
-0.0389518
0.581164
-0.00831948
0.451835
0.00802631
0.284594
0.0860936
-0.0029185
0.370032
-0.00728965
0.912441
-0.0122961
1.24571
-0.0183152
1.48566
-0.0254766
1.72724
-0.0343285
1.99349
-0.0457049
2.28811
-0.060811
2.60763
-0.0818214
2.9457
-0.111114
3.2824
-0.14191
2.99681
-0.160313
2.25039
-0.162788
1.68171
-0.155484
1.26079
-0.131544
0.944166
-0.0979408
0.709592
-0.0534198
0.536643
-0.00409389
0.402509
0.00736541
0.273135
0.093459
-0.00281299
0.372844
-0.00693177
0.91656
-0.0115894
1.25037
-0.0171457
1.49122
-0.0237783
1.73387
-0.0320508
2.00176
-0.0428123
2.29887
-0.0574543
2.62227
-0.0784303
2.96667
-0.109145
3.31312
-0.143286
3.03095
-0.167896
2.275
-0.18142
1.69523
-0.174303
1.25368
-0.155806
0.92567
-0.117323
0.671109
-0.0377564
0.457077
0.073764
0.290988
0.133111
0.213787
0.22657
-0.00272999
0.375574
-0.00670107
0.920531
-0.0111647
1.25483
-0.0165128
1.49657
-0.0229724
1.74033
-0.0311514
2.00994
-0.0419999
2.30972
-0.0572066
2.63748
-0.0799419
2.98941
-0.115412
3.34859
-0.157844
3.07339
-0.192767
2.30993
-0.209248
1.71171
-0.207547
1.25198
-0.195212
0.913335
-0.184255
0.660151
-0.209174
0.481996
-0.384096
0.465909
-0.882378
0.712069
0.874451
-1.53026
-0.00264565
0.37822
-0.0064341
0.924319
-0.0106228
1.25902
-0.0156592
1.5016
-0.0217594
1.74643
-0.0295829
2.01777
-0.0401059
2.32024
-0.055246
2.65262
-0.0787698
3.01293
-0.117197
3.38701
-0.166233
3.12242
-0.208781
2.35247
-0.238335
1.74127
-0.262927
1.27657
-0.286602
0.93701
-0.359069
0.732619
-0.667622
0.790549
-1.33837
1.13666
-1.95629
1.33
1.22733
-2.30918
-0.00252975
0.38075
-0.00608814
0.927878
-0.00999914
1.26293
-0.0147315
1.50633
-0.0204776
1.75218
-0.0279118
2.0252
-0.0380371
2.33037
-0.0529524
2.66753
-0.076848
3.03683
-0.117959
3.42812
-0.175941
3.1804
-0.231952
2.40849
-0.269499
1.77881
-0.294342
1.30141
-0.381879
1.02455
-0.712289
1.06303
-1.43874
1.517
-2.04454
1.74246
-2.29956
1.58502
1.35211
-2.42434
-0.00239649
0.383146
-0.00575702
0.931238
-0.00937058
1.26654
-0.0137909
1.51076
-0.0191317
1.75752
-0.0261257
2.03219
-0.0357443
2.33999
-0.0502012
2.68199
-0.0745312
3.06116
-0.118258
3.47185
-0.183466
3.24561
-0.244542
2.46956
-0.304831
1.8391
-0.394565
1.39114
-0.67511
1.30509
-1.35039
1.73831
-1.97073
2.13734
-2.22735
1.99908
-2.35033
1.70799
1.42255
-2.42076
-0.00222335
0.38537
-0.00531421
0.934329
-0.00866519
1.2699
-0.0127607
1.51485
-0.0177251
1.76249
-0.0242475
2.03872
-0.0332812
2.34902
-0.0471667
2.69587
-0.071238
3.08523
-0.11726
3.51787
-0.191245
3.3196
-0.273168
2.55148
-0.341982
1.90792
-0.50482
1.55398
-1.01064
1.81091
-1.70547
2.43314
-2.06247
2.49434
-2.22621
2.16281
-2.31833
1.80011
1.49414
-2.38993
-0.00218638
0.387556
-0.00520195
0.937345
-0.00844694
1.27314
-0.0123176
1.51872
-0.017038
1.76721
-0.0232125
2.04489
-0.0317256
2.35753
-0.0449335
2.70908
-0.0686149
3.10891
-0.116651
3.56591
-0.197326
3.40027
-0.292816
2.64697
-0.396966
2.01207
-0.711063
1.86808
-1.3821
2.48195
-1.90363
2.95467
-2.12585
2.71656
-2.24673
2.28369
-2.33066
1.88405
1.56309
-2.39961
-0.0022561
0.389812
-0.00538285
0.940472
-0.00866997
1.27643
-0.0125258
1.52258
-0.0171257
1.77181
-0.023039
2.0508
-0.0310301
2.36553
-0.0435718
2.72162
-0.0667426
3.13208
-0.11691
3.61608
-0.207338
3.4907
-0.322442
2.76208
-0.495007
2.18463
-0.946639
2.31971
-1.57651
3.11182
-1.90168
3.27984
-2.06911
2.884
-2.19351
2.40809
-2.29301
1.98355
1.63545
-2.36538
-0.00234786
0.39216
-0.00568685
0.943811
-0.0089986
1.27974
-0.0128139
1.52639
-0.0172225
1.77621
-0.0227707
2.05635
-0.0301095
2.37286
-0.0417267
2.73324
-0.0637666
3.15412
-0.114912
3.66722
-0.217088
3.59288
-0.354973
2.89996
-0.590609
2.42027
-1.13308
2.86218
-1.66264
3.64138
-1.89257
3.50977
-2.05061
3.04203
-2.20904
2.56652
-2.34734
2.12185
1.71085
-2.42274
-0.0024636
0.394624
-0.00595447
0.947301
-0.00932159
1.28311
-0.0131209
1.53019
-0.017342
1.78044
-0.0224439
2.06145
-0.0288859
2.37931
-0.0387247
2.74308
-0.0586362
3.17403
-0.109124
3.71771
-0.223947
3.7077
-0.396325
3.07234
-0.701124
2.72506
-1.25721
3.41826
-1.66632
4.05049
-1.87054
3.71399
-2.00814
3.17964
-2.14062
2.699
-2.23509
2.21632
1.71253
-2.23677
-0.0026842
0.397308
-0.00640854
0.951026
-0.00978219
1.28648
-0.0134853
1.53389
-0.0174069
1.78436
-0.0218854
2.06593
-0.0271752
2.3846
-0.0350326
2.75094
-0.0517279
3.19073
-0.101299
3.76728
-0.225688
3.83209
-0.431204
3.27786
-0.779159
3.07302
-1.28945
3.92855
-1.61308
4.37412
-1.82251
3.92342
-1.95639
3.31352
-1.98097
2.72357
-1.96735
2.2027
1.75195
-2.00677
-0.00294696
0.400255
-0.0068461
0.954925
-0.0102489
1.28988
-0.0138866
1.53753
-0.0174446
1.78791
-0.0211523
2.06964
-0.0248504
2.38829
-0.0297439
2.75583
-0.0410647
3.20205
-0.085525
3.81174
-0.207179
3.95374
-0.436726
3.5074
-0.799873
3.43617
-1.24023
4.3689
-1.47015
4.60405
-1.57688
4.03014
-1.62711
3.36375
-1.52711
2.62357
-1.07047
1.74606
0.681489
-0.00323833
0.403493
-0.00737191
0.959058
-0.010837
1.29335
-0.0143542
1.54105
-0.0175772
1.79114
-0.0204323
2.0725
-0.0223081
2.39017
-0.0229711
2.75649
-0.0275072
3.20659
-0.060067
3.8443
-0.185335
4.07901
-0.458155
3.78022
-0.855014
3.83303
-1.26125
4.77515
-1.42047
4.76327
-1.45524
4.06492
-1.39974
3.30825
-1.20772
2.43155
-0.730675
1.26901
-0.0491859
-0.00349658
0.40699
-0.00786095
0.963423
-0.011451
1.29694
-0.0149726
1.54457
-0.0178643
1.79403
-0.0196466
2.07428
-0.0189425
2.38947
-0.0142437
2.75179
-0.00846914
3.20081
-0.00935477
3.84519
-0.130447
4.2001
-0.450492
4.10027
-0.865384
4.24792
-1.23138
5.14114
-1.35427
4.88616
-1.37431
4.08495
-1.24027
3.17422
-0.865312
2.05659
-0.171433
0.575131
-0.220619
-0.00376211
0.410752
-0.00855041
0.968211
-0.0123042
1.30069
-0.0156996
1.54797
-0.0182024
1.79653
-0.0187826
2.07486
-0.0146347
2.38532
-0.00321055
2.74037
0.024586
3.17301
0.0780745
3.7917
-0.0276614
4.30584
-0.397638
4.47025
-0.846176
4.69646
-1.16536
5.46032
-1.26039
4.9812
-1.25138
4.07594
-1.02803
2.95087
-0.456661
1.48521
0.0421098
0.0763603
-0.178509
-0.00414694
0.414899
-0.00944327
0.973507
-0.0134987
1.30475
-0.0170854
1.55155
-0.0193411
1.79879
-0.0187781
2.0743
-0.0106252
2.37717
0.0118265
2.71792
0.0788604
3.10598
0.188835
3.68172
0.0981208
4.39655
-0.332773
4.90114
-0.80659
5.17027
-1.07277
5.7265
-1.15701
5.06544
-1.12293
4.04186
-0.85481
2.68275
-0.176284
0.806689
0.0174392
-0.117363
-0.16107
-0.00453146
0.41943
-0.0104754
0.979451
-0.0150635
1.30934
-0.0189115
1.5554
-0.0211264
1.801
-0.0196751
2.07284
-0.0079361
2.36543
0.0294098
2.68057
0.135558
2.99983
0.284422
3.53286
0.219092
4.46188
-0.236466
5.3567
-0.715971
5.64978
-0.947275
5.9578
-1.05151
5.16967
-1.01138
4.00173
-0.629449
2.30082
-0.101771
0.279011
-0.0337425
-0.185392
-0.194812
-0.00506092
0.424491
-0.012159
0.986549
-0.017678
1.31485
-0.0225018
1.56023
-0.0254372
1.80394
-0.0237039
2.07111
-0.00902097
2.35074
0.0429073
2.62864
0.171531
2.87121
0.345054
3.35934
0.33216
4.47478
-0.0715274
5.76039
-0.592073
6.17032
-0.830856
6.19659
-0.974244
5.31306
-0.939993
3.96748
-0.577828
1.93865
-0.290838
-0.00797944
-0.136736
-0.339493
-0.331548
-0.00535638
0.429847
-0.0136342
0.994827
-0.0206769
1.3219
-0.0271351
1.56668
-0.0318578
1.80866
-0.0318344
2.07109
-0.0175316
2.33644
0.037997
2.57311
0.159112
2.75009
0.328955
3.18949
0.36496
4.43877
0.0268808
6.09846
-0.50094
6.69814
-0.720315
6.41596
-0.810999
5.40374
-0.722823
3.87931
-0.478081
1.69391
-0.390418
-0.0956429
-0.176864
-0.553047
-0.508412
-0.00573253
0.43558
-0.0163062
1.0054
-0.025957
1.33155
-0.0353182
1.57604
-0.0438401
1.81718
-0.0486704
2.07592
-0.0415188
2.32929
-0.00377871
2.53537
0.0733005
2.67301
0.151516
3.11128
0.185547
4.40474
-0.0842256
6.36824
-0.444504
7.05842
-0.50988
6.48134
-0.441783
5.33564
-0.285064
3.72259
-0.15096
1.55981
-0.170804
-0.0757989
-0.101379
-0.622472
-0.609791
-0.00566345
0.441243
-0.0182296
1.01797
-0.03124
1.34456
-0.0451323
1.58994
-0.0600198
1.83207
-0.0744792
2.09038
-0.0841343
2.33894
-0.0851156
2.53636
-0.0879918
2.67589
-0.103645
3.12693
-0.0949638
4.39606
-0.271233
6.54451
-0.380033
7.16722
-0.247843
6.34915
-0.0350665
5.12287
0.183059
3.50446
0.309959
1.43291
0.211262
0.0228973
0.0771672
-0.488377
-0.532624
-0.004908
0.446151
-0.0217836
1.03484
-0.0396913
1.36247
-0.0597156
1.60996
-0.0833199
1.85567
-0.11189
2.11895
-0.147013
2.37407
-0.200114
2.58946
-0.295644
2.77142
-0.426064
3.25735
-0.470204
4.4402
-0.493963
6.56827
-0.345233
7.01849
-0.0921326
6.09605
0.220036
4.8107
0.519107
3.20539
0.631804
1.32021
0.462878
0.191823
0.197156
-0.222655
-0.335468
-0.00367641
0.449828
-0.0229969
1.05416
-0.0464266
1.3859
-0.0743724
1.63791
-0.109797
1.8911
-0.157236
2.16639
-0.225077
2.44191
-0.337373
2.70175
-0.529903
2.96395
-0.794265
3.52171
-0.951692
4.59762
-0.858237
6.47481
-0.52862
6.68887
-0.164059
5.73149
0.320356
4.32628
0.729356
2.79639
0.779216
1.27035
0.532708
0.438332
0.222325
0.0877287
-0.113144
-0.0019489
0.451777
-0.0250587
1.07727
-0.0533479
1.41418
-0.0898032
1.67436
-0.13843
1.93973
-0.204819
2.23277
-0.30462
2.54171
-0.468785
2.86592
-0.739389
3.23456
-1.1134
3.89573
-1.36489
4.84911
-1.16867
6.27859
-0.732982
6.25319
-0.207692
5.2062
0.384705
3.73389
0.769397
2.4117
0.735703
1.30405
0.478097
0.695938
0.191565
0.374261
0.0784219
0.000252616
0.451524
-0.0230384
1.10056
-0.0566086
1.44775
-0.10105
1.7188
-0.159956
1.99863
-0.24138
2.3142
-0.363966
2.66429
-0.558843
3.0608
-0.868385
3.5441
-1.28658
4.31392
-1.52498
5.08751
-1.19774
5.95134
-0.655817
5.71127
-0.0491159
4.59949
0.436189
3.24858
0.658242
2.18964
0.569446
1.39284
0.346847
0.918537
0.129577
0.59153
0.207999
0.00709382
0.44443
-0.012969
1.12063
-0.0523263
1.48711
-0.103784
1.77026
-0.167899
2.06275
-0.25767
2.40397
-0.388826
2.79545
-0.587175
3.25915
-0.888744
3.84567
-1.28412
4.7093
-1.46472
5.26812
-1.04648
5.53309
-0.44127
5.10606
0.116664
4.04156
0.433487
2.93176
0.517395
2.10574
0.409337
1.5009
0.229622
1.09825
0.0754133
0.745738
0.283413
0.016449
0.427981
0.00371707
1.13336
-0.0351043
1.52593
-0.0857567
1.82091
-0.151561
2.12855
-0.243611
2.49602
-0.371133
2.92297
-0.551628
3.43964
-0.80587
4.09991
-1.11534
5.01877
-1.23562
5.3884
-0.845113
5.14258
-0.292337
4.55329
0.133051
3.61617
0.322555
2.74225
0.343063
2.08523
0.253965
1.59
0.132779
1.21944
0.0379527
0.840565
0.321365
0.0300763
0.397905
0.0281698
1.13527
-0.00495857
1.55906
-0.0512388
1.86719
-0.114852
2.19217
-0.198671
2.57984
-0.310929
3.03523
-0.460901
3.58961
-0.652201
4.29121
-0.857706
5.22427
-0.910848
5.44154
-0.623944
4.85568
-0.220594
4.14994
0.0596668
3.33591
0.176077
2.62584
0.187876
2.07343
0.135736
1.64214
0.0682652
1.28691
0.0188346
0.889995
0.3402
0.0511868
0.346718
0.0712664
1.11519
0.0510266
1.5793
0.0104387
1.90778
-0.0450382
2.24764
-0.114254
2.64906
-0.205167
3.12614
-0.321013
3.70546
-0.454223
4.42442
-0.575699
5.34575
-0.583476
5.44932
-0.397948
4.67015
-0.153441
3.90543
0.00921955
3.17325
0.0790276
2.55604
0.0912264
2.06123
0.0688547
1.66451
0.0374225
1.31834
0.0128739
0.914544
0.353074
0.0751519
0.271566
0.120797
1.06954
0.117804
1.5823
0.0927624
1.93282
0.0539864
2.28642
0.00464814
2.69839
-0.0597192
3.19051
-0.138616
3.78436
-0.222431
4.50823
-0.284955
5.40827
-0.273425
5.43779
-0.165298
4.56203
-0.0375081
3.77764
0.0451782
3.09056
0.0803495
2.52086
0.0849943
2.05659
0.0708398
1.67867
0.0484005
1.34078
0.0218818
0.941063
0.374956
0.0916608
0.179906
0.183222
0.977979
0.216628
1.54889
0.214813
1.93464
0.195754
2.30548
0.169206
2.72494
0.134218
3.2255
0.0901137
3.82846
0.0451311
4.55322
0.019851
5.43355
0.0347021
5.42294
0.0903891
4.50634
0.145423
3.72261
0.172642
3.06335
0.17295
2.52056
0.154925
2.07461
0.125274
1.70832
0.0880549
1.378
0.0402858
0.988832
0.415242
0.0480202
0.131885
0.142879
0.883121
0.198139
1.49363
0.218228
1.91455
0.221556
2.30215
0.21316
2.73334
0.19666
3.242
0.173839
3.85128
0.151329
4.57573
0.137221
5.44766
0.136694
5.42347
0.146967
4.49607
0.153393
3.71618
0.148362
3.06838
0.133385
2.53553
0.111763
2.09623
0.0859702
1.73411
0.0561207
1.40785
0.021345
1.02361
0.436587
-0.0125691
0.144454
0.0224056
0.848146
0.0580097
1.45802
0.087903
1.88466
0.108664
2.28139
0.120321
2.72168
0.124731
3.23759
0.124274
3.85174
0.117406
4.58259
0.108421
5.45664
0.106019
5.42587
0.106323
4.49576
0.101712
3.72079
0.0903194
3.07977
0.0739902
2.55186
0.0544795
2.11574
0.0342931
1.7543
0.014266
1.42788
-0.00157389
1.03945
0.435013
-0.0376809
0.182135
-0.0357659
0.846231
-0.0127267
1.43499
0.0116265
1.8603
0.034148
2.25887
0.0544216
2.70141
0.0701009
3.22191
0.0794905
3.84235
0.0818564
4.58023
0.0797248
5.45877
0.0775615
5.42803
0.073928
4.49939
0.065816
3.7289
0.0532622
3.09232
0.0384183
2.56671
0.0227277
2.13143
0.00797968
1.76904
-0.00449361
1.44035
-0.00920021
1.04415
0.425812
-0.0421841
0.224319
-0.0534713
0.857518
-0.0394318
1.42095
-0.0217315
1.8426
-0.00317113
2.24031
0.0157553
2.68248
0.0331842
3.20448
0.0465503
3.82898
0.0544166
4.57236
0.0565121
5.45668
0.0549709
5.42958
0.0501086
4.50426
0.0413995
3.73761
0.0300827
3.10364
0.0181837
2.57861
0.00615927
2.14346
-0.00556982
1.78077
-0.0158878
1.45067
-0.0162045
1.04447
0.409608
-0.0363197
0.260639
-0.0586633
0.879862
-0.0504083
1.41269
-0.0331413
1.82534
-0.0157988
2.22296
-0.00048342
2.66716