/*--------------------------------*- C++ -*----------------------------------*\
  =========                 |
  \\      /  F ield         | OpenFOAM: The Open Source CFD Toolbox
   \\    /   O peration     | Website:  https://openfoam.org
    \\  /    A nd           | Version:  9
     \\/     M anipulation  |
\*---------------------------------------------------------------------------*/
FoamFile
{
    format      ascii;
    class       volScalarField;
    location    "7";
    object      p;
}
// * * * * * * * * * * * * * * * * * * * * * * * * * * * * * * * * * * * * * //

dimensions      [0 2 -2 0 0 0 0];

internalField   nonuniform List<scalar> 
2200
(
0.456673
0.435335
0.419957
0.404806
0.391044
0.379355
0.369764
0.36236
0.357077
0.354317
0.354532
0.357641
0.363195
0.370801
0.380529
0.392312
0.406138
0.421327
0.436727
0.458077
0.387469
0.384555
0.382546
0.379909
0.375668
0.370217
0.364547
0.359279
0.355153
0.352749
0.352969
0.355768
0.360169
0.36564
0.371441
0.376985
0.381288
0.383971
0.386011
0.388933
0.345926
0.346907
0.35063
0.353107
0.354484
0.354854
0.354051
0.35243
0.350586
0.349235
0.349478
0.351266
0.353387
0.355205
0.356184
0.355943
0.354654
0.352227
0.348539
0.347571
0.327456
0.328861
0.332071
0.334746
0.3374
0.339799
0.341363
0.342284
0.342534
0.34255
0.342827
0.343342
0.343449
0.342793
0.341435
0.339149
0.336561
0.333929
0.330758
0.329367
0.321088
0.322488
0.325154
0.327533
0.329955
0.331959
0.333469
0.334684
0.335627
0.336304
0.336664
0.336582
0.336098
0.335228
0.333928
0.33206
0.329725
0.327388
0.324767
0.323374
0.321214
0.32213
0.323857
0.325745
0.327742
0.329387
0.330816
0.331835
0.332576
0.333171
0.333543
0.333595
0.333473
0.332855
0.331654
0.330214
0.328378
0.326569
0.324862
0.323942
0.321742
0.322091
0.322814
0.323802
0.325043
0.326249
0.327437
0.328465
0.329295
0.329908
0.330353
0.330548
0.330388
0.329828
0.32903
0.328099
0.327022
0.326124
0.325425
0.325072
0.319158
0.319205
0.319344
0.319591
0.320096
0.320721
0.321552
0.322532
0.323525
0.32443
0.325112
0.325362
0.325173
0.324804
0.324381
0.323986
0.323628
0.323457
0.323392
0.323372
0.314965
0.314931
0.314945
0.315042
0.315279
0.315621
0.316143
0.316864
0.317773
0.318794
0.319691
0.320184
0.320305
0.320283
0.320205
0.320143
0.320097
0.320117
0.32016
0.320173
0.310844
0.310851
0.310934
0.311106
0.311371
0.311732
0.312233
0.312893
0.313746
0.31479
0.315818
0.316615
0.317027
0.317267
0.317389
0.31745
0.317458
0.317452
0.317437
0.31743
0.306652
0.306695
0.306784
0.306938
0.307223
0.307629
0.308201
0.308961
0.309945
0.31116
0.31242
0.313399
0.314067
0.314521
0.314778
0.314915
0.314974
0.314995
0.314993
0.314984
0.301906
0.301931
0.302027
0.302178
0.302433
0.302845
0.303461
0.304332
0.305508
0.306992
0.30861
0.309906
0.310849
0.311484
0.311883
0.312132
0.312282
0.31237
0.312415
0.312417
0.296647
0.296656
0.296759
0.296949
0.297245
0.297708
0.298411
0.299432
0.30085
0.3027
0.304749
0.306469
0.307719
0.308575
0.309143
0.309513
0.309746
0.309886
0.309958
0.309968
0.291003
0.291018
0.291133
0.291359
0.291731
0.292308
0.293176
0.294434
0.296191
0.298519
0.301111
0.303346
0.30497
0.306073
0.306819
0.307305
0.30761
0.307788
0.307877
0.307886
0.284889
0.284913
0.285058
0.285335
0.285795
0.286516
0.287604
0.289185
0.291399
0.294343
0.297646
0.300481
0.30253
0.303947
0.304903
0.305524
0.305913
0.30614
0.306253
0.306263
0.278117
0.278148
0.278332
0.278682
0.279263
0.280175
0.281551
0.283555
0.28636
0.290093
0.294279
0.297853
0.300443
0.302243
0.303454
0.304242
0.304736
0.305026
0.305169
0.305184
0.27049
0.270531
0.270765
0.271213
0.271956
0.273123
0.274882
0.277441
0.281014
0.285755
0.291053
0.295555
0.298817
0.301084
0.302609
0.3036
0.304222
0.304587
0.304767
0.304785
0.261759
0.261814
0.262124
0.262713
0.263683
0.265192
0.267459
0.270744
0.275313
0.281341
0.288033
0.293691
0.297781
0.300621
0.302527
0.303768
0.304546
0.305005
0.305231
0.305252
0.251649
0.251721
0.252119
0.25288
0.254138
0.256103
0.259049
0.263299
0.269167
0.276837
0.285269
0.292354
0.297464
0.301009
0.303389
0.304935
0.305902
0.306468
0.306745
0.30677
0.239547
0.239664
0.240223
0.241267
0.242965
0.245566
0.249432
0.254961
0.262513
0.272261
0.282844
0.291675
0.298031
0.30244
0.3054
0.307327
0.308538
0.309254
0.309607
0.30964
0.225152
0.225279
0.225992
0.227368
0.229629
0.233119
0.238268
0.245535
0.255289
0.267651
0.28086
0.291798
0.299666
0.305137
0.308824
0.311226
0.312727
0.313602
0.314025
0.314054
0.206924
0.207218
0.208334
0.210335
0.213524
0.218312
0.225252
0.23485
0.247444
0.263047
0.279411
0.292855
0.30253
0.309291
0.313877
0.316892
0.3188
0.319938
0.320507
0.320566
0.184401
0.184704
0.186215
0.189087
0.193698
0.200494
0.210055
0.22284
0.239074
0.25862
0.2787
0.295061
0.306858
0.31518
0.320907
0.324728
0.327169
0.328614
0.329301
0.329334
0.154371
0.15528
0.15796
0.162493
0.169425
0.179206
0.192458
0.209448
0.230228
0.254456
0.27879
0.298454
0.312684
0.32284
0.329963
0.334828
0.338037
0.340037
0.341089
0.341147
0.11474
0.116104
0.120608
0.128301
0.139425
0.154028
0.172458
0.1949
0.221181
0.250813
0.279897
0.3032
0.32014
0.33242
0.34126
0.347568
0.351921
0.354713
0.356277
0.356222
0.0622973
0.0632125
0.0722911
0.0860147
0.103736
0.125141
0.15048
0.179684
0.21237
0.247996
0.282157
0.30929
0.329116
0.343728
0.354512
0.362455
0.368353
0.372475
0.374417
0.3741
-0.0116322
-0.004948
0.0147813
0.0383378
0.0646789
0.0942001
0.127409
0.164008
0.203695
0.245979
0.28589
0.317576
0.341088
0.358902
0.372643
0.38336
0.391814
0.398947
0.403151
0.403316
-0.100842
-0.0787054
-0.0449544
-0.0106401
0.0247415
0.0631775
0.104444
0.148508
0.195407
0.244739
0.291081
0.328101
0.355992
0.377606
0.394775
0.408758
0.420039
0.428804
0.438076
0.44077
-0.163137
-0.142664
-0.0994298
-0.0579066
-0.0135743
0.0335962
0.0826409
0.134046
0.187855
0.243787
0.296017
0.337653
0.368976
0.393186
0.412275
0.427552
0.440531
0.449246
0.458415
0.46082
-0.209045
-0.190248
-0.143412
-0.0981566
-0.0474009
0.00655379
0.0622319
0.120219
0.180248
0.242137
0.299559
0.344988
0.378792
0.404535
0.424472
0.440054
0.452895
0.462101
0.470167
0.472105
-0.246033
-0.226622
-0.177786
-0.130611
-0.0755076
-0.0172504
0.0434742
0.106835
0.172232
0.239473
0.301588
0.350334
0.38616
0.413036
0.433547
0.44938
0.461958
0.471366
0.479191
0.4811
-0.276954
-0.25694
-0.205963
-0.156768
-0.0987466
-0.0378365
0.0265969
0.0941361
0.164089
0.236163
0.302724
0.35469
0.392511
0.420549
0.441696
0.457861
0.470441
0.479991
0.487561
0.489727
-0.303518
-0.283253
-0.23075
-0.179161
-0.119018
-0.0559413
0.0113873
0.0821997
0.156001
0.232437
0.303334
0.35863
0.398601
0.427943
0.449826
0.466379
0.479076
0.488681
0.496138
0.498318
-0.326888
-0.306308
-0.253334
-0.199726
-0.137869
-0.0726572
-0.00287087
0.0706508
0.147752
0.228172
0.30342
0.362309
0.404687
0.435513
0.458249
0.475252
0.488126
0.497785
0.505169
0.50736
-0.348096
-0.327353
-0.273977
-0.21908
-0.155868
-0.0887366
-0.0168556
0.058995
0.138968
0.223079
0.302776
0.365649
0.410831
0.443462
0.467255
0.484837
0.497989
0.507742
0.515062
0.517267
-0.367817
-0.346997
-0.293046
-0.237287
-0.172998
-0.104369
-0.0308157
0.0469771
0.129425
0.216979
0.301318
0.368746
0.41726
0.452046
0.477138
0.495432
0.508925
0.518815
0.526106
0.528318
-0.386371
-0.365428
-0.310844
-0.254395
-0.189218
-0.119505
-0.0447214
0.0345624
0.119031
0.209692
0.298739
0.371245
0.423761
0.461322
0.488071
0.507283
0.521258
0.531326
0.53857
0.540777
-0.404051
-0.382758
-0.327654
-0.270543
-0.204629
-0.134128
-0.0585108
0.021782
0.107745
0.201095
0.294946
0.373293
0.430639
0.471527
0.500308
0.520651
0.535146
0.545468
0.552771
0.554948
-0.420981
-0.399165
-0.343645
-0.285861
-0.21935
-0.148271
-0.0721653
0.00866908
0.0955725
0.191117
0.289688
0.374415
0.437389
0.482445
0.513838
0.535455
0.550581
0.5611
0.56826
0.570362
-0.437117
-0.414733
-0.358833
-0.3004
-0.233429
-0.161958
-0.0856761
-0.00474756
0.0824854
0.179538
0.282515
0.374359
0.444041
0.494185
0.528663
0.552079
0.567924
0.578725
0.585911
0.587926
-0.452366
-0.429444
-0.373175
-0.314155
-0.246847
-0.175168
-0.0989943
-0.0183958
0.0685592
0.166494
0.273773
0.373469
0.450654
0.506659
0.545052
0.570395
0.586974
0.597928
0.604834
0.606594
-0.46669
-0.443275
-0.386637
-0.327095
-0.259549
-0.187827
-0.11202
-0.032152
0.0539059
0.151866
0.262516
0.370377
0.456386
0.519401
0.562422
0.590668
0.608348
0.619037
0.625253
0.626391
-0.480095
-0.456219
-0.399213
-0.339195
-0.271482
-0.199858
-0.124652
-0.0459136
0.0385871
0.135629
0.249122
0.365728
0.461588
0.532761
0.581201
0.612923
0.631636
0.641622
0.646283
0.645793
-0.492608
-0.468283
-0.410908
-0.350444
-0.282618
-0.211203
-0.136798
-0.059558
0.0228064
0.118135
0.233642
0.359255
0.466078
0.545457
0.59974
0.635763
0.657657
0.667074
0.668964
0.665022
-0.504265
-0.479485
-0.421735
-0.360849
-0.292945
-0.221821
-0.148359
-0.0729219
0.00673684
0.0992489
0.215251
0.349627
0.468516
0.558352
0.61965
0.661951
0.688788
0.696729
0.689553
0.689785
-0.515098
-0.489854
-0.431714
-0.370418
-0.302462
-0.231676
-0.159247
-0.0858719
-0.00951048
0.0791785
0.194847
0.337583
0.469442
0.569832
0.636455
0.683954
0.719422
0.731238
0.697128
0.631913
-0.525112
-0.499447
-0.440914
-0.379228
-0.31126
-0.240876
-0.169588
-0.0985707
-0.0261711
0.0575878
0.170975
0.321864
0.468809
0.580572
0.652661
0.701476
0.748256
0.792338
0.833486
0.889488
-0.534296
-0.508353
-0.449443
-0.387419
-0.319497
-0.249588
-0.179571
-0.111229
-0.0435539
0.0336406
0.142202
0.300566
0.464372
0.589058
0.659255
0.69758
0.7267
0.76185
0.762171
0.761497
-0.542718
-0.516587
-0.457311
-0.395012
-0.32717
-0.257774
-0.1891
-0.123642
-0.061371
0.00756691
0.10898
0.273287
0.455685
0.591243
0.655084
0.680541
0.673354
0.642857
0.594481
0.586652
-0.550425
-0.524198
-0.464571
-0.402066
-0.334319
-0.265441
-0.198144
-0.135752
-0.0795133
-0.0207897
0.0705084
0.237858
0.442657
0.592763
0.646078
0.635211
0.58814
0.512893
0.433462
0.420361
-0.55746
-0.531231
-0.471286
-0.408641
-0.340987
-0.272602
-0.206671
-0.147482
-0.0978547
-0.051023
0.0263174
0.19298
0.423952
0.587438
0.618896
0.561374
0.493632
0.371109
0.262123
0.237181
-0.564111
-0.537932
-0.47772
-0.414948
-0.34737
-0.279421
-0.214801
-0.158854
-0.116498
-0.0837295
-0.0245792
0.135034
0.397369
0.566749
0.564699
0.478697
0.328558
0.165133
0.0253785
-0.00672333
-0.570835
-0.54467
-0.484198
-0.42122
-0.353662
-0.286064
-0.222657
-0.169934
-0.135312
-0.119488
-0.0851376
0.0535259
0.353947
0.527597
0.474864
0.334138
0.104909
-0.104151
-0.266297
-0.302931
-0.577843
-0.551552
-0.490766
-0.42746
-0.359809
-0.292448
-0.230083
-0.180523
-0.153786
-0.156559
-0.161535
-0.056711
0.274898
0.44664
0.351303
0.126625
-0.164144
-0.447881
-0.680238
-0.75022
-0.58516
-0.558579
-0.497358
-0.433601
-0.365695
-0.298397
-0.236859
-0.190298
-0.171889
-0.197049
-0.252147
-0.207791
0.145862
0.295552
0.150346
-0.121133
-0.456313
-0.866435
-1.29114
-1.43618
-0.592791
-0.565775
-0.503978
-0.439623
-0.371258
-0.303787
-0.242844
-0.198888
-0.18911
-0.23938
-0.360824
-0.406812
-0.0613729
0.0853144
-0.122998
-0.414419
-0.75635
-1.25755
-2.00386
-2.66558
-0.600803
-0.573188
-0.51063
-0.445493
-0.376434
-0.30848
-0.247796
-0.205821
-0.203415
-0.282725
-0.488053
-0.649711
-0.343811
-0.191523
-0.428699
-0.761649
-1.05706
-1.42893
-2.27716
-4.36567
-0.609179
-0.580827
-0.517334
-0.451204
-0.381195
-0.312411
-0.251504
-0.211037
-0.213753
-0.329911
-0.62749
-0.932412
-0.672441
-0.537027
-0.730897
-1.07172
-1.28226
-1.37806
-1.50377
-2.09693
-0.617911
-0.588774
-0.524178
-0.456857
-0.385655
-0.315664
-0.253866
-0.21419
-0.22128
-0.372173
-0.750396
-1.2327
-1.02885
-0.85782
-0.98213
-1.26622
-1.39048
-1.36418
-1.28772
-1.39792
-0.626949
-0.597063
-0.531225
-0.462522
-0.389869
-0.318268
-0.254834
-0.21446
-0.226512
-0.398337
-0.857932
-1.44174
-1.3317
-1.04662
-1.15164
-1.39347
-1.4743
-1.40089
-1.34846
-1.44528
-0.636506
-0.605807
-0.538548
-0.468291
-0.393934
-0.320291
-0.254483
-0.211446
-0.227915
-0.400269
-0.89756
-1.50898
-1.4465
-1.12716
-1.26861
-1.54372
-1.69117
-1.5966
-1.57172
-1.58437
-0.646728
-0.615214
-0.546346
-0.474343
-0.397992
-0.321813
-0.252765
-0.20531
-0.218619
-0.374759
-0.846166
-1.38709
-1.32512
-1.12438
-1.3519
-1.72602
-2.09081
-2.13104
-2.01768
-1.97249
-0.658095
-0.625556
-0.554823
-0.480878
-0.40224
-0.322994
-0.249848
-0.196075
-0.195783
-0.322949
-0.705106
-1.09793
-1.05006
-1.01174
-1.29975
-1.74454
-2.24197
-2.35886
-2.15762
-2.08276
-0.671123
-0.637167
-0.56428
-0.488202
-0.406958
-0.324245
-0.246239
-0.184193
-0.164918
-0.246966
-0.498825
-0.714617
-0.670741
-0.725248
-1.00638
-1.3699
-1.7339
-1.80813
-1.68912
-1.5899
-0.686444
-0.650402
-0.575125
-0.496617
-0.412535
-0.325963
-0.242404
-0.170553
-0.129334
-0.156024
-0.272364
-0.303533
-0.252649
-0.317518
-0.469518
-0.676713
-0.846822
-0.891902
-0.847539
-0.804031
-0.705392
-0.66526
-0.587661
-0.506623
-0.419218
-0.328486
-0.239014
-0.15662
-0.0926575
-0.0625161
-0.0527395
0.0571522
0.136167
0.122436
0.0754568
0.00745992
-0.04625
-0.0612316
-0.0419676
-0.0262975
-0.726863
-0.682743
-0.602562
-0.518118
-0.427075
-0.332282
-0.236794
-0.14389
-0.0585231
0.0198508
0.119259
0.313722
0.436815
0.483485
0.492571
0.49359
0.495448
0.511474
0.530871
0.540853
-0.747798
-0.702933
-0.618928
-0.530614
-0.436164
-0.337229
-0.235754
-0.133179
-0.029529
0.0838135
0.23475
0.448454
0.611079
0.699065
0.747861
0.784929
0.819804
0.851053
0.86922
0.874488
-0.765349
-0.72353
-0.63408
-0.543446
-0.446023
-0.342847
-0.2357
-0.124828
-0.00746001
0.128358
0.303437
0.512041
0.689348
0.798028
0.874515
0.931679
0.976542
1.01027
1.02973
1.03582
-0.781509
-0.741168
-0.646163
-0.555136
-0.455104
-0.347846
-0.236113
-0.11847
0.00814234
0.15685
0.339877
0.536409
0.705847
0.821869
0.907578
0.971214
1.01844
1.0535
1.07589
1.0841
-0.793577
-0.754353
-0.655079
-0.565248
-0.46146
-0.350845
-0.236002
-0.113247
0.0191148
0.17335
0.35546
0.536157
0.689126
0.801505
0.887279
0.9509
0.998823
1.03511
1.06068
1.07019
-0.796164
-0.758148
-0.661917
-0.570063
-0.462079
-0.350529
-0.234157
-0.109052
0.0267365
0.182188
0.355742
0.521135
0.65755
0.761995
0.843051
0.904769
0.952421
0.988965
1.01659
1.02627
-0.785929
-0.75038
-0.65873
-0.563385
-0.456095
-0.345232
-0.229195
-0.104732
0.0296393
0.18304
0.347187
0.4969
0.618522
0.713756
0.788987
0.847843
0.894223
0.930275
0.958585
0.968417
-0.758073
-0.72598
-0.637653
-0.543937
-0.440842
-0.332725
-0.219828
-0.0988516
0.0318071
0.177505
0.329948
0.464713
0.573063
0.659022
0.727671
0.782634
0.826989
0.86175
0.889697
0.899882
-0.705146
-0.678324
-0.596983
-0.509179
-0.41288
-0.311154
-0.204049
-0.0896349
0.0332182
0.168207
0.30578
0.425146
0.520051
0.595829
0.65679
0.706493
0.747533
0.78065
0.807798
0.818581
-0.624449
-0.603632
-0.532035
-0.453984
-0.368359
-0.277093
-0.18018
-0.0767161
0.0345315
0.15568
0.276443
0.379154
0.459564
0.523339
0.574436
0.616056
0.650538
0.678722
0.702208
0.712901
-0.498232
-0.484635
-0.432057
-0.372602
-0.304021
-0.22862
-0.147158
-0.0586418
0.0380658
0.143562
0.248271
0.336415
0.404263
0.456939
0.498001
0.530249
0.555643
0.575289
0.590987
0.598472
-0.333467
-0.326523
-0.30073
-0.267915
-0.221679
-0.168094
-0.106654
-0.0355198
0.0448636
0.134282
0.224034
0.299419
0.356764
0.400337
0.433104
0.457569
0.475436
0.487408
0.495868
0.499059
-0.189825
-0.186833
-0.178138
-0.162364
-0.136886
-0.104575
-0.0623544
-0.00883882
0.0541722
0.127122
0.201682
0.26413
0.310881
0.345438
0.370143
0.387281
0.398672
0.405458
0.409842
0.411315
-0.0877277
-0.0861139
-0.0815331
-0.0745704
-0.0626688
-0.0449224
-0.0179403
0.0189234
0.0656724
0.12312
0.183202
0.233619
0.270729
0.297232
0.315235
0.326952
0.334393
0.338793
0.341473
0.342591
-0.0189173
-0.0194699
-0.0184833
-0.0153642
-0.00881002
0.00252838
0.0196627
0.0441277
0.0779304
0.121819
0.169003
0.208825
0.237719
0.257804
0.271144
0.279711
0.285078
0.288309
0.290015
0.290633
0.0203814
0.0191198
0.0183801
0.0194853
0.0233595
0.0322666
0.0442136
0.0620412
0.0872443
0.12062
0.157286
0.188427
0.210951
0.226579
0.237043
0.243833
0.247768
0.249857
0.250439
0.250351
0.0417098
0.0406746
0.039854
0.040077
0.0420777
0.0490904
0.0574267
0.0717267
0.0915249
0.117599
0.146419
0.170967
0.188807
0.201249
0.209532
0.214809
0.217538
0.218825
0.219136
0.218971
0.0548826
0.0541819
0.0540095
0.0543337
0.0555448
0.0600973
0.0656558
0.0769549
0.0924801
0.11319
0.13616
0.155709
0.169881
0.179668
0.186019
0.18996
0.191915
0.192866
0.19316
0.19308
0.0641555
0.0637465
0.0638891
0.0643227
0.0653805
0.0683534
0.0721731
0.0805956
0.0923345
0.108534
0.126734
0.142208
0.153316
0.160863
0.165677
0.168653
0.170178
0.170964
0.171256
0.171219
0.0699916
0.0697455
0.0698777
0.0702524
0.0711582
0.0733997
0.0763499
0.0826115
0.0914079
0.103851
0.11804
0.130122
0.138742
0.144567
0.148282
0.150591
0.151806
0.152422
0.152652
0.152627
0.0726471
0.0724838
0.0725509
0.0728246
0.0735286
0.075248
0.0776886
0.0824809
0.0892281
0.0988068
0.109807
0.119195
0.125897
0.130439
0.133345
0.13514
0.13609
0.136553
0.136715
0.136692
0.0729565
0.0728499
0.0728924
0.0731086
0.0736553
0.0749413
0.0769304
0.0806133
0.0858672
0.0933161
0.101887
0.109208
0.11444
0.117986
0.120251
0.121634
0.122367
0.122717
0.122835
0.122815
0.0716745
0.0716081
0.0716472
0.0718322
0.0722746
0.0732582
0.0748421
0.077645
0.0817216
0.0875213
0.0942195
0.0999393
0.104019
0.106774
0.108529
0.109592
0.110157
0.110425
0.110514
0.110498
0.0692163
0.0691732
0.0692089
0.0693653
0.0697288
0.0704989
0.0717537
0.0738941
0.0770454
0.0815422
0.0867629
0.0912198
0.0943915
0.0965286
0.0978879
0.0987079
0.0991439
0.0993487
0.0994152
0.0994012
0.0658217
0.0657911
0.0658196
0.0659458
0.0662394
0.0668498
0.0678406
0.0694894
0.0719295
0.0754103
0.0794674
0.0829303
0.0853925
0.0870502
0.0881046
0.0887381
0.08907
0.0892255
0.0892746
0.0892622
0.0616785
0.0616551
0.0616763
0.0617726
0.0619998
0.0625096
0.0632808
0.064551
0.0664419
0.0691363
0.0722856
0.0749739
0.0768849
0.0781711
0.0789892
0.0794809
0.0797247
0.0798445
0.079881
0.079871
0.0569769
0.0569583
0.0569739
0.0570471
0.0572199
0.0576446
0.0582395
0.0592175
0.060682
0.0627685
0.0652117
0.0672958
0.0687753
0.0697689
0.0703982
0.0707734
0.0709697
0.0710583
0.0710843
0.0710749
0.051838
0.0518244
0.0518378
0.0518984
0.0520425
0.0523306
0.0528035
0.0535618
0.0546939
0.0563053
0.0581964
0.0598076
0.06095
0.0617159
0.0622003
0.0624891
0.0626403
0.0627076
0.0627267
0.062719
0.0463518
0.046341
0.0463523
0.0464001
0.0465105
0.0467354
0.0470991
0.0476822
0.0485547
0.0497951
0.0512512
0.0524919
0.0533697
0.0539574
0.0543282
0.0545483
0.0546625
0.0547123
0.0547257
0.0547193
0.0406127
0.0406042
0.040612
0.0406454
0.0407271
0.0408988
0.041175
0.0416197
0.0422867
0.0432357
0.0443502
0.0452964
0.0459656
0.0464128
0.0466945
0.0468617
0.046948
0.0469852
0.0469948
0.0469887
0.0346493
0.0346418
0.0346469
0.0346728
0.0347342
0.0348606
0.0350703
0.0354062
0.0359092
0.0366234
0.0374649
0.0381839
0.0386912
0.03903
0.0392425
0.0393674
0.0394301
0.0394555
0.0394606
0.0394558
0.0285449
0.0285391
0.0285404
0.0285581
0.0286053
0.0286993
0.028857
0.0291074
0.0294822
0.030015
0.0306379
0.0311693
0.031542
0.0317894
0.0319431
0.0320322
0.0320753
0.0320921
0.0320951
0.032091
0.0223303
0.0223262
0.0223266
0.0223374
0.0223676
0.0224302
0.0225393
0.0227155
0.0229805
0.0233591
0.0238088
0.0241874
0.0244531
0.0246289
0.0247381
0.0248014
0.0248325
0.0248451
0.0248467
0.0248431
0.0160148
0.0160115
0.0160122
0.0160188
0.0160371
0.0160763
0.0161463
0.0162611
0.0164365
0.0166858
0.0169852
0.0172416
0.017419
0.0175368
0.0176093
0.0176499
0.0176685
0.0176741
0.017673
0.0176711
0.00963874
0.00963496
0.00963359
0.00963546
0.00964476
0.00966748
0.00970876
0.00977656
0.0098801
0.0100295
0.0102005
0.0103486
0.0104464
0.0105098
0.0105474
0.0105671
0.0105743
0.0105741
0.0105734
0.0105719
0.00322604
0.00322258
0.00321112
0.00320606
0.00320645
0.00321364
0.00322876
0.00325415
0.00329099
0.00334747
0.00341265
0.00346364
0.00349646
0.00351687
0.00352806
0.0035332
0.00353316
0.00352962
0.00352203
0.00351711
-1.74394
-0.665569
-0.392434
-0.0558692
0.169329
0.364623
0.530749
0.699332
0.879278
0.959083
-0.583268
-0.0734154
-0.0232662
0.198387
0.357697
0.501081
0.627178
0.739265
0.78289
0.730999
-0.101152
0.162329
0.235178
0.386504
0.501579
0.604113
0.688531
0.751202
0.762401
0.768482
0.19211
0.370107
0.422261
0.543254
0.618075
0.688881
0.742849
0.779432
0.790121
0.810509
0.413477
0.539429
0.571255
0.660364
0.708632
0.75705
0.793571
0.818978
0.828151
0.859562
0.582778
0.667149
0.695442
0.748361
0.787115
0.820065
0.8468
0.86863
0.885265
0.912679
0.713643
0.769147
0.795223
0.827873
0.859299
0.885423
0.906948
0.928257
0.944163
0.970748
0.819793
0.859794
0.88361
0.907438
0.931662
0.954342
0.973357
0.991735
1.00608
1.02924
0.918885
0.951155
0.969724
0.987663
1.00536
1.022
1.03775
1.05465
1.06752
1.09
1.01297
1.03554
1.05135
1.06449
1.07779
1.09153
1.1054
1.12108
1.13357
1.15336
1.10191
1.11803
1.13135
1.14227
1.1545
1.16681
1.17887
1.19251
1.20129
1.21857
1.18905
1.20115
1.21463
1.22703
1.23836
1.24853
1.25732
1.26553
1.26926
1.28079
1.27835
1.28903
1.30328
1.31326
1.32071
1.32789
1.33462
1.34057
1.34153
1.34925
1.37525
1.38015
1.38907
1.39487
1.39835
1.40259
1.4086
1.41616
1.41974
1.42909
1.48901
1.47575
1.46868
1.46313
1.46062
1.46208
1.46865
1.4812
1.49581
1.52454
1.61172
1.55603
1.52458
1.50622
1.49792
1.49816
1.50697
1.5266
1.55843
1.62842
)
;

boundaryField
{
    wall-4
    {
        type            zeroGradient;
    }
    pressure-outlet-7
    {
        type            fixedValue;
        value           uniform 0;
    }
    velocity-inlet-6
    {
        type            zeroGradient;
    }
    velocity-inlet-5
    {
        type            zeroGradient;
    }
    frontAndBackPlanes
    {
        type            empty;
    }
}


// ************************************************************************* //
