/*--------------------------------*- C++ -*----------------------------------*\
  =========                 |
  \\      /  F ield         | OpenFOAM: The Open Source CFD Toolbox
   \\    /   O peration     | Website:  https://openfoam.org
    \\  /    A nd           | Version:  9
     \\/     M anipulation  |
\*---------------------------------------------------------------------------*/
FoamFile
{
    format      ascii;
    class       volScalarField;
    location    "6";
    object      p;
}
// * * * * * * * * * * * * * * * * * * * * * * * * * * * * * * * * * * * * * //

dimensions      [0 2 -2 0 0 0 0];

internalField   nonuniform List<scalar> 
2200
(
0.493268
0.47213
0.456917
0.442225
0.428775
0.41733
0.407933
0.400615
0.395278
0.392473
0.392673
0.395826
0.401417
0.408917
0.418441
0.429973
0.443481
0.458208
0.473442
0.49459
0.423916
0.421058
0.419308
0.417075
0.413093
0.40799
0.402613
0.397559
0.393461
0.391081
0.391266
0.394047
0.398407
0.40363
0.409137
0.41433
0.418371
0.420652
0.422434
0.425296
0.383065
0.384204
0.388306
0.390562
0.3919
0.392293
0.391504
0.389982
0.388296
0.387081
0.387297
0.388902
0.390853
0.392611
0.393569
0.393291
0.39203
0.389815
0.385739
0.384614
0.367243
0.36857
0.371513
0.373684
0.375978
0.377927
0.379099
0.379677
0.379918
0.379993
0.380259
0.380643
0.380736
0.380468
0.379484
0.377637
0.375396
0.373257
0.370352
0.369039
0.36246
0.363704
0.36606
0.368005
0.369987
0.371553
0.372757
0.37359
0.374136
0.374581
0.374916
0.374994
0.374917
0.374374
0.373356
0.371929
0.370041
0.368141
0.365831
0.364589
0.362545
0.363293
0.364695
0.366206
0.367832
0.369175
0.370368
0.371302
0.371839
0.372134
0.372494
0.37285
0.372825
0.372214
0.371285
0.370151
0.368675
0.367239
0.365843
0.365093
0.36169
0.361928
0.362478
0.36318
0.364098
0.365019
0.365943
0.366792
0.367534
0.368112
0.36856
0.368783
0.368653
0.368302
0.36774
0.367044
0.36626
0.365623
0.365096
0.364873
0.357822
0.357831
0.357913
0.358062
0.35842
0.358901
0.359541
0.360303
0.36114
0.361987
0.362643
0.362907
0.362901
0.362703
0.362405
0.362137
0.361916
0.361845
0.361831
0.361813
0.353227
0.353184
0.353216
0.353311
0.353513
0.353806
0.354243
0.354822
0.355555
0.356436
0.357254
0.357785
0.35807
0.358158
0.358151
0.358129
0.35811
0.35813
0.358157
0.358177
0.348818
0.348841
0.348922
0.349072
0.349312
0.349644
0.350097
0.350689
0.35145
0.3524
0.353391
0.354203
0.354613
0.354871
0.355027
0.355107
0.355129
0.355124
0.355103
0.355093
0.3442
0.34424
0.344319
0.34445
0.344677
0.345032
0.345543
0.34624
0.347153
0.348293
0.349518
0.350497
0.351179
0.351623
0.351881
0.352029
0.352103
0.352136
0.352146
0.352132
0.339014
0.339037
0.339121
0.339267
0.339507
0.339876
0.340431
0.341233
0.342331
0.343736
0.345296
0.346583
0.347511
0.34813
0.348529
0.348779
0.348932
0.349021
0.349069
0.349072
0.333446
0.333457
0.333552
0.333725
0.334006
0.334445
0.335107
0.33607
0.337412
0.339179
0.341142
0.34283
0.344052
0.344876
0.345424
0.34578
0.346002
0.346133
0.346199
0.346207
0.327533
0.327551
0.327658
0.327867
0.328214
0.328758
0.329581
0.330779
0.332457
0.334692
0.337199
0.339354
0.340911
0.34198
0.342697
0.343162
0.34345
0.343618
0.343701
0.34371
0.321142
0.321167
0.321301
0.321559
0.32199
0.322671
0.323705
0.325216
0.327337
0.330169
0.333357
0.336085
0.33806
0.339428
0.340345
0.34094
0.341309
0.341525
0.341631
0.341643
0.314104
0.314137
0.314307
0.314635
0.315183
0.316048
0.317362
0.319282
0.321978
0.325573
0.329614
0.333061
0.335559
0.337293
0.338455
0.339209
0.339678
0.339952
0.340088
0.340103
0.306241
0.306283
0.306502
0.306923
0.307628
0.30874
0.310424
0.312882
0.316323
0.320898
0.326016
0.330364
0.333512
0.335696
0.337159
0.338108
0.338698
0.339043
0.339214
0.339232
0.297315
0.297373
0.297662
0.298214
0.299133
0.300573
0.302747
0.30591
0.310318
0.316143
0.322616
0.328087
0.332038
0.334776
0.336608
0.337795
0.338535
0.338967
0.33918
0.339203
0.287022
0.287098
0.287473
0.288194
0.289392
0.291274
0.294106
0.298203
0.303873
0.311295
0.319461
0.326321
0.331264
0.334687
0.336977
0.33846
0.339381
0.339918
0.340182
0.340208
0.274821
0.274941
0.275465
0.276447
0.278063
0.280556
0.28428
0.289622
0.296932
0.306377
0.316639
0.325201
0.331358
0.335621
0.338475
0.340324
0.341478
0.342154
0.342488
0.342523
0.260311
0.260449
0.261128
0.262438
0.264601
0.267957
0.272928
0.279961
0.289417
0.301411
0.314235
0.324854
0.332488
0.337789
0.341352
0.343664
0.345102
0.345936
0.346342
0.346374
0.242056
0.242362
0.243427
0.245333
0.248406
0.253033
0.259759
0.269072
0.281301
0.296457
0.312361
0.32543
0.334833
0.341398
0.345843
0.348753
0.350584
0.351669
0.352212
0.352277
0.219568
0.219891
0.221347
0.224108
0.228558
0.235143
0.244438
0.256869
0.272656
0.291661
0.311189
0.327109
0.338595
0.346696
0.352265
0.355967
0.358322
0.359708
0.360374
0.360417
0.18948
0.19043
0.1931
0.197518
0.204264
0.213823
0.226741
0.243301
0.263531
0.287103
0.310778
0.329929
0.343809
0.353727
0.360685
0.365439
0.368567
0.370514
0.371556
0.371646
0.149832
0.151293
0.155823
0.163452
0.174341
0.188682
0.206727
0.228651
0.254253
0.283075
0.311364
0.334067
0.350611
0.362635
0.371306
0.377493
0.381774
0.384538
0.386083
0.386077
0.0974945
0.0985588
0.107732
0.121498
0.138957
0.159965
0.184836
0.213361
0.245186
0.279801
0.312988
0.339411
0.358788
0.373126
0.383754
0.391608
0.397462
0.40159
0.403689
0.403395
0.0232558
0.0306373
0.050738
0.074288
0.100251
0.12937
0.161958
0.197659
0.23623
0.277217
0.315904
0.346718
0.369694
0.387194
0.400766
0.411425
0.41988
0.427236
0.431762
0.43205
-0.0664373
-0.0422914
-0.00824267
0.0259045
0.0610674
0.0990674
0.139455
0.182366
0.227788
0.275395
0.320123
0.355986
0.383142
0.404306
0.421211
0.435021
0.446277
0.455026
0.464062
0.467476
-0.126618
-0.104702
-0.0615325
-0.0199351
0.0241793
0.0705683
0.11842
0.168295
0.220127
0.273772
0.323874
0.363993
0.394346
0.417936
0.436626
0.45167
0.464307
0.472892
0.482434
0.485486
-0.170091
-0.149628
-0.103223
-0.0577593
-0.00765919
0.0449494
0.0990494
0.154972
0.212408
0.271338
0.326034
0.36958
0.402228
0.427264
0.446773
0.462154
0.474627
0.483834
0.492174
0.494527
-0.204309
-0.183173
-0.134391
-0.0871325
-0.0334803
0.0229782
0.0816839
0.142341
0.204438
0.26793
0.326646
0.37314
0.407664
0.43379
0.453865
0.46947
0.481827
0.491339
0.499217
0.50173
-0.232079
-0.210249
-0.159458
-0.11027
-0.0542791
0.00460962
0.0665506
0.130708
0.196543
0.263916
0.326272
0.37558
0.411959
0.439222
0.45995
0.475899
0.488338
0.497949
0.505678
0.508331
-0.255435
-0.232936
-0.181181
-0.1299
-0.0720295
-0.0110957
0.0532753
0.120038
0.188799
0.259413
0.325141
0.377333
0.415746
0.444326
0.465843
0.482229
0.494839
0.504523
0.512214
0.514805
-0.275484
-0.252951
-0.200453
-0.147601
-0.0881223
-0.0252624
0.041096
0.10989
0.180927
0.254228
0.323159
0.378468
0.419242
0.449418
0.471921
0.488867
0.501744
0.511525
0.51922
0.521762
-0.293477
-0.270918
-0.217676
-0.163787
-0.102961
-0.0384839
0.0294759
0.0998536
0.172616
0.248105
0.320113
0.378911
0.422546
0.454756
0.478558
0.496271
0.509561
0.519508
0.527201
0.529831
-0.309842
-0.287298
-0.233203
-0.178491
-0.116552
-0.0508631
0.0182743
0.0897717
0.163715
0.240876
0.315819
0.378597
0.425764
0.460572
0.486092
0.504835
0.51869
0.528907
0.536613
0.539338
-0.325115
-0.302138
-0.247411
-0.191834
-0.128982
-0.062399
0.00751012
0.0796393
0.154167
0.232376
0.309948
0.377177
0.428718
0.46697
0.494799
0.51496
0.529626
0.54023
0.54801
0.550775
-0.339455
-0.315741
-0.260549
-0.204028
-0.140413
-0.0731398
-0.00280041
0.0694897
0.14397
0.222518
0.302323
0.374541
0.431472
0.474113
0.504993
0.527003
0.54264
0.553763
0.561729
0.564578
-0.352837
-0.32834
-0.272714
-0.215241
-0.150973
-0.0831577
-0.0126639
0.0593586
0.133143
0.211192
0.292524
0.369943
0.433391
0.481835
0.51678
0.541165
0.558104
0.569829
0.577875
0.580748
-0.365271
-0.340041
-0.283953
-0.225575
-0.160733
-0.0925009
-0.0220689
0.0493027
0.121733
0.198339
0.280353
0.363258
0.434605
0.490336
0.530406
0.557958
0.576494
0.589066
0.597577
0.600578
-0.376833
-0.350909
-0.294317
-0.235088
-0.169716
-0.101163
-0.0309569
0.0394317
0.109883
0.184071
0.265699
0.353893
0.43443
0.499267
0.546057
0.577444
0.597963
0.611318
0.619645
0.622459
-0.387605
-0.361007
-0.303861
-0.243819
-0.177929
-0.109116
-0.0392558
0.029863
0.0977111
0.168307
0.247938
0.340765
0.432229
0.508545
0.563458
0.600194
0.623174
0.637052
0.64533
0.647861
-0.397648
-0.370383
-0.312641
-0.251812
-0.185396
-0.116349
-0.0469132
0.0207018
0.085391
0.151327
0.227694
0.32441
0.428294
0.51798
0.583037
0.625955
0.651835
0.666496
0.673533
0.6744
-0.407022
-0.379095
-0.320716
-0.259113
-0.192155
-0.122867
-0.0538738
0.0120906
0.0731663
0.133315
0.204279
0.303168
0.421126
0.526837
0.60423
0.655267
0.685815
0.700294
0.705134
0.701583
-0.415796
-0.387196
-0.32815
-0.265772
-0.198242
-0.12868
-0.0600899
0.00415608
0.061181
0.114332
0.177879
0.276518
0.40958
0.535424
0.628026
0.689542
0.726306
0.739493
0.735712
0.734223
-0.424037
-0.394745
-0.334994
-0.271828
-0.203695
-0.133812
-0.065553
-0.00301757
0.0496515
0.0947922
0.149077
0.244623
0.393931
0.541918
0.650994
0.720729
0.766704
0.78405
0.755609
0.685933
-0.431749
-0.401804
-0.341321
-0.277356
-0.208605
-0.138367
-0.0703679
-0.00949874
0.0385381
0.0741728
0.116089
0.204308
0.370686
0.545486
0.674576
0.752776
0.807418
0.85195
0.896969
0.956519
-0.438944
-0.408476
-0.347257
-0.282503
-0.213145
-0.142517
-0.0746947
-0.0153995
0.0277515
0.0521294
0.0781968
0.152747
0.336736
0.544514
0.695103
0.769235
0.80015
0.830164
0.831386
0.829953
-0.445645
-0.414797
-0.352846
-0.287323
-0.217361
-0.146289
-0.0785195
-0.0206604
0.0175909
0.0294276
0.0346253
0.0892304
0.28938
0.537968
0.713664
0.77572
0.771775
0.730591
0.669526
0.655894
-0.451862
-0.420791
-0.358139
-0.291881
-0.221319
-0.149727
-0.0818694
-0.0252678
0.00824219
0.0066143
-0.0146671
0.00868492
0.217801
0.519051
0.709142
0.741865
0.688332
0.604726
0.507323
0.483003
-0.457666
-0.426458
-0.363185
-0.29625
-0.225082
-0.152893
-0.0847788
-0.0291325
-0.000101095
-0.0156836
-0.0696753
-0.096061
0.114171
0.46594
0.659287
0.65664
0.579761
0.440924
0.314802
0.281526
-0.463327
-0.432011
-0.368191
-0.300608
-0.22881
-0.155923
-0.0873202
-0.0322034
-0.00715194
-0.0372858
-0.131209
-0.232327
-0.0419421
0.356367
0.545135
0.500727
0.364013
0.188054
0.040527
0.00833241
-0.469283
-0.437784
-0.373414
-0.305142
-0.232617
-0.158873
-0.0894655
-0.0343589
-0.0125678
-0.0570851
-0.202728
-0.412156
-0.279279
0.153657
0.321603
0.229018
0.0352166
-0.154182
-0.303132
-0.328125
-0.475802
-0.443943
-0.378938
-0.309875
-0.236452
-0.161625
-0.0910838
-0.0353413
-0.0160469
-0.0724158
-0.289751
-0.633798
-0.595511
-0.154591
-0.0203275
-0.108343
-0.333814
-0.577424
-0.790395
-0.833072
-0.482975
-0.4506
-0.384808
-0.314805
-0.240281
-0.164132
-0.0921336
-0.0349675
-0.0167348
-0.0829061
-0.382174
-0.867663
-0.958822
-0.539582
-0.414149
-0.489132
-0.72752
-1.07845
-1.47749
-1.58506
-0.490897
-0.4579
-0.391145
-0.320016
-0.244179
-0.166447
-0.0926197
-0.0332013
-0.0135684
-0.0884096
-0.446607
-1.08977
-1.27851
-0.946657
-0.788125
-0.886099
-1.11804
-1.52773
-2.23312
-2.8836
-0.499759
-0.465994
-0.398082
-0.325623
-0.248264
-0.168683
-0.0926286
-0.030267
-0.00669931
-0.0892929
-0.483295
-1.21276
-1.47573
-1.20662
-1.07891
-1.26353
-1.45166
-1.73524
-2.54091
-4.76234
-0.509728
-0.475032
-0.405765
-0.331774
-0.252694
-0.171011
-0.0923302
-0.0264325
0.00264172
-0.0816109
-0.478738
-1.21143
-1.50861
-1.24772
-1.22862
-1.53139
-1.68319
-1.68588
-1.71692
-2.32352
-0.520967
-0.485305
-0.414484
-0.338797
-0.257845
-0.173842
-0.092161
-0.0220451
0.0138164
-0.059273
-0.427303
-1.07958
-1.34766
-1.14574
-1.24845
-1.60767
-1.7986
-1.73814
-1.57908
-1.66534
-0.533676
-0.497062
-0.424548
-0.347042
-0.264087
-0.177601
-0.092642
-0.0176816
0.0267033
-0.0254043
-0.331321
-0.847521
-1.07879
-0.98397
-1.20247
-1.58074
-1.87054
-1.92533
-1.84291
-1.85672
-0.548293
-0.510669
-0.436284
-0.35685
-0.271785
-0.182659
-0.094184
-0.0139192
0.0403471
0.0153891
-0.203192
-0.565719
-0.75285
-0.768071
-1.07448
-1.50994
-1.92379
-2.10195
-2.06912
-1.9943
-0.565168
-0.526413
-0.450025
-0.368563
-0.281244
-0.189327
-0.0972242
-0.0114304
0.0536976
0.0602216
-0.0611538
-0.271016
-0.394086
-0.52265
-0.857409
-1.32791
-1.83362
-2.07462
-2.03423
-1.94312
-0.585024
-0.544666
-0.466004
-0.382413
-0.292724
-0.197945
-0.102228
-0.0107261
0.0659042
0.104586
0.0744249
0.0193168
-0.0593622
-0.271639
-0.563011
-0.961167
-1.38804
-1.56943
-1.53405
-1.43975
-0.608245
-0.565633
-0.484538
-0.39867
-0.306427
-0.208699
-0.109256
-0.0119008
0.0762307
0.144403
0.184942
0.236171
0.236489
0.0110306
-0.221341
-0.455676
-0.674827
-0.759397
-0.745583
-0.708008
-0.635873
-0.589313
-0.50577
-0.417446
-0.322348
-0.22152
-0.118299
-0.0151797
0.0836606
0.176978
0.266688
0.372547
0.441167
0.307111
0.163195
0.0584098
-0.00858019
-0.0336387
-0.0236245
-0.00606015
-0.66659
-0.61619
-0.529912
-0.438481
-0.340208
-0.236281
-0.129269
-0.020508
0.0882178
0.201358
0.324013
0.457836
0.56534
0.550317
0.500404
0.47409
0.468259
0.4792
0.498083
0.509639
-0.69815
-0.645764
-0.556288
-0.460876
-0.359608
-0.252511
-0.141531
-0.0273063
0.0904952
0.217972
0.36169
0.510003
0.633234
0.69096
0.70777
0.730947
0.758736
0.787605
0.808026
0.815326
-0.72693
-0.67752
-0.582467
-0.483964
-0.379936
-0.269353
-0.154329
-0.0349166
0.0900971
0.227369
0.383259
0.536968
0.664583
0.749024
0.808671
0.85747
0.900093
0.934241
0.955812
0.963253
-0.754377
-0.706521
-0.60575
-0.50655
-0.399776
-0.285725
-0.167057
-0.0429053
0.0872655
0.231301
0.392915
0.5464
0.673786
0.767986
0.841903
0.89969
0.945651
0.981349
1.00505
1.01438
-0.778707
-0.731791
-0.625923
-0.527006
-0.417219
-0.299973
-0.178724
-0.0509432
0.0837532
0.233051
0.394361
0.544414
0.667928
0.76351
0.839049
0.897762
0.943539
0.979232
1.00518
1.01548
-0.795183
-0.748731
-0.642996
-0.542983
-0.429876
-0.310565
-0.187879
-0.0579763
0.0791983
0.231425
0.390727
0.53463
0.651933
0.744621
0.818074
0.875314
0.920634
0.955901
0.983387
0.993785
-0.800342
-0.755308
-0.652503
-0.550409
-0.435077
-0.315469
-0.19309
-0.0628894
0.0749855
0.225632
0.380917
0.518258
0.62891
0.716913
0.787402
0.842496
0.886883
0.921464
0.949424
0.959781
-0.790119
-0.748075
-0.648118
-0.54475
-0.431584
-0.312437
-0.194635
-0.0651209
0.0708213
0.217375
0.365836
0.495393
0.599094
0.681874
0.748407
0.80182
0.844772
0.878704
0.906676
0.917121
-0.758723
-0.720904
-0.6247
-0.525049
-0.417107
-0.303657
-0.187131
-0.0632724
0.0669224
0.206554
0.345759
0.465969
0.561639
0.63855
0.700633
0.751227
0.792599
0.82545
0.853015
0.86372
-0.699544
-0.667504
-0.579505
-0.487341
-0.38769
-0.282647
-0.173233
-0.0579147
0.0634833
0.193203
0.320846
0.429539
0.515495
0.584722
0.640911
0.687354
0.72611
0.757729
0.784468
0.79598
-0.608908
-0.582905
-0.507206
-0.42728
-0.340373
-0.247827
-0.150466
-0.0474873
0.0616302
0.177975
0.29125
0.386293
0.46051
0.51969
0.567409
0.606696
0.639426
0.666497
0.689591
0.700919
-0.469663
-0.452966
-0.400053
-0.341283
-0.273259
-0.198579
-0.118385
-0.0311325
0.0630522
0.164208
0.262945
0.34516
0.408299
0.457473
0.495975
0.526448
0.550615
0.569398
0.584684
0.592548
-0.298018
-0.290499
-0.265634
-0.233845
-0.190227
-0.139011
-0.079306
-0.00986354
0.0677989
0.153462
0.238381
0.309039
0.362663
0.40347
0.434243
0.457288
0.474065
0.48545
0.493238
0.4965
-0.157661
-0.154159
-0.144904
-0.129961
-0.107254
-0.0769669
-0.0362327
0.015029
0.0754822
0.145277
0.215985
0.274765
0.318651
0.351009
0.374132
0.390115
0.400604
0.406944
0.41065
0.412057
-0.0600245
-0.0585391
-0.0544066
-0.0474808
-0.0373611
-0.019793
0.00603988
0.0410661
0.0858839
0.140695
0.197707
0.245283
0.280211
0.30503
0.321868
0.332796
0.339601
0.343724
0.346102
0.347111
0.00159875
0.000896789
0.00158105
0.00511111
0.0103779
0.0227542
0.0396375
0.063507
0.0962627
0.138246
0.18316
0.220878
0.248231
0.267231
0.279898
0.288086
0.293119
0.296258
0.297749
0.298257
0.0348311
0.0333154
0.0328513
0.0346013
0.0382773
0.0480019
0.0601366
0.078088
0.102944
0.135273
0.170484
0.200223
0.221775
0.236767
0.246838
0.25339
0.2572
0.259399
0.260114
0.260182
0.0535976
0.0525807
0.0523556
0.0532836
0.055566
0.0626666
0.0715803
0.0857691
0.10532
0.130798
0.158709
0.182353
0.199546
0.21154
0.21954
0.224644
0.227441
0.228951
0.22941
0.229404
0.0662224
0.0656854
0.0658346
0.0665938
0.0681551
0.0730603
0.0794207
0.0902209
0.105416
0.125577
0.147837
0.166709
0.180382
0.189822
0.195999
0.19986
0.201965
0.203122
0.203548
0.20358
0.0749044
0.0746491
0.0749304
0.0757306
0.0765299
0.0801787
0.0849363
0.0929702
0.104522
0.120244
0.137849
0.152789
0.163533
0.170866
0.175616
0.178576
0.180229
0.181154
0.181519
0.181565
0.0797599
0.0796162
0.0798185
0.080413
0.0812628
0.0839317
0.087643
0.0937408
0.102556
0.114719
0.128502
0.140224
0.148626
0.154345
0.158055
0.160369
0.161676
0.162396
0.162674
0.16271
0.0815997
0.0815127
0.0816521
0.0820873
0.0828996
0.0848606
0.0877871
0.0925154
0.0993532
0.10881
0.119587
0.128771
0.135357
0.139846
0.142762
0.144572
0.145596
0.146148
0.146354
0.14638
0.081339
0.0812908
0.0814031
0.0817455
0.0824356
0.0838918
0.0861782
0.0898398
0.0951706
0.10256
0.11101
0.118218
0.123387
0.126907
0.129188
0.130596
0.131392
0.131818
0.131976
0.131993
0.0795462
0.0795204
0.0796145
0.0798912
0.0804575
0.0815625
0.0833405
0.0861643
0.0903072
0.096076
0.102702
0.108356
0.112404
0.115155
0.116934
0.118028
0.118648
0.11898
0.119101
0.119114
0.0765514
0.0765361
0.0766122
0.0768334
0.0772881
0.0781405
0.0795276
0.0817125
0.0849299
0.0894244
0.0946082
0.0990334
0.102198
0.104345
0.105733
0.106585
0.107067
0.107328
0.10742
0.107429
0.0726003
0.0725897
0.0726493
0.072823
0.0731815
0.0738422
0.0749251
0.0766216
0.0791235
0.0826232
0.0866717
0.0901293
0.0926003
0.0942763
0.0953586
0.0960204
0.096394
0.0966044
0.0966739
0.0966795
0.067901
0.0678932
0.0679402
0.068076
0.0683566
0.0688691
0.0697129
0.0710314
0.0729774
0.0757017
0.0788603
0.0815595
0.0834877
0.0847947
0.0856368
0.0861487
0.086433
0.0866147
0.0866637
0.0866667
0.062631
0.0626252
0.0626612
0.0627668
0.0629852
0.0633826
0.0640379
0.0650608
0.0665727
0.0686918
0.0711533
0.0732566
0.0747577
0.0757743
0.0764292
0.0768286
0.0770535
0.0771698
0.0772108
0.0772133
0.0569032
0.0568988
0.0569267
0.0570083
0.0571773
0.0574843
0.0579915
0.0587832
0.0599544
0.0615976
0.0635101
0.0651445
0.0663102
0.0670992
0.0676072
0.0679166
0.0680896
0.0681761
0.0682063
0.0682085
0.0508337
0.05083
0.0508524
0.0509161
0.0510476
0.0512851
0.0516773
0.052289
0.0531945
0.0544654
0.0559444
0.0572079
0.0581079
0.0587163
0.0591074
0.0593446
0.0594763
0.0595415
0.0595638
0.0595644
0.0444979
0.0444945
0.0445095
0.0445561
0.0446546
0.0448349
0.0451344
0.0456025
0.046296
0.0472705
0.0484069
0.0493767
0.0500676
0.0505344
0.0508343
0.051016
0.0511165
0.0511654
0.0511817
0.0511813
0.0379441
0.0379415
0.0379536
0.0379895
0.0380644
0.038201
0.038428
0.0387829
0.0393088
0.040047
0.040908
0.0416471
0.0421724
0.0425268
0.0427534
0.0428895
0.0429631
0.0429983
0.0430086
0.0430081
0.0312494
0.031247
0.031255
0.0312808
0.0313362
0.031438
0.031607
0.031871
0.032263
0.0328152
0.033457
0.0340032
0.0343909
0.0346511
0.0348167
0.0349156
0.0349687
0.0349957
0.0350027
0.0350019
0.0244263
0.024424
0.0244279
0.0244452
0.0244818
0.0245513
0.0246691
0.0248551
0.0251323
0.0255239
0.0259856
0.0263818
0.0266611
0.0268491
0.026969
0.0270407
0.0270791
0.0270964
0.0271028
0.0271034
0.0175078
0.0175069
0.0175108
0.0175236
0.0175486
0.0175946
0.0176723
0.0177959
0.0179815
0.0182499
0.0185582
0.0188218
0.0190056
0.0191299
0.0192084
0.0192544
0.0192784
0.0192897
0.0192912
0.01929
0.0105365
0.0105356
0.0105375
0.0105428
0.0105568
0.0105849
0.0106324
0.0107065
0.0108141
0.0109684
0.0111516
0.0113008
0.0114035
0.0114718
0.0115142
0.0115385
0.0115503
0.0115554
0.0115558
0.011555
0.00352071
0.00351442
0.00350919
0.00350817
0.0035116
0.00352147
0.0035393
0.00356673
0.00360513
0.00364816
0.00372036
0.00377516
0.00381563
0.00384052
0.00385521
0.00386295
0.00386517
0.00386417
0.00385914
0.00385406
-1.83396
-0.708646
-0.403334
-0.0366447
0.2098
0.416117
0.588359
0.761015
0.944627
1.02426
-0.611476
-0.0661099
0.00461698
0.234702
0.405054
0.552753
0.683619
0.797447
0.842633
0.789523
-0.0911012
0.184827
0.268845
0.421839
0.544567
0.651635
0.741653
0.808018
0.82161
0.828872
0.219254
0.400733
0.457868
0.582039
0.665198
0.741171
0.799751
0.838453
0.852729
0.873227
0.447203
0.579085
0.617559
0.709606
0.768644
0.818767
0.857099
0.882994
0.892477
0.921483
0.626422
0.715319
0.752808
0.808331
0.849657
0.883473
0.909198
0.930033
0.945062
0.970185
0.769036
0.830181
0.854519
0.887946
0.917397
0.94166
0.961443
0.982185
0.996584
1.02402
0.879111
0.917331
0.938519
0.961165
0.984605
1.00616
1.02513
1.04426
1.05946
1.08375
0.971978
1.00264
1.02057
1.03779
1.05713
1.07604
1.0934
1.11124
1.12427
1.14617
1.0632
1.08715
1.10451
1.11956
1.13395
1.14833
1.16215
1.1767
1.18832
1.20759
1.15639
1.17342
1.18766
1.19853
1.20946
1.22091
1.23245
1.24577
1.25497
1.27259
1.24427
1.25571
1.26859
1.28035
1.29172
1.30198
1.3113
1.32073
1.3256
1.33759
1.33367
1.34385
1.35777
1.36834
1.3765
1.384
1.39083
1.39669
1.39746
1.40519
1.43071
1.43602
1.44521
1.45083
1.45433
1.45848
1.46415
1.47094
1.47432
1.48369
1.54335
1.53031
1.52324
1.51778
1.51529
1.51676
1.5234
1.53607
1.5508
1.57925
1.66659
1.61084
1.57933
1.56083
1.55244
1.55272
1.56178
1.58164
1.61339
1.68345
)
;

boundaryField
{
    wall-4
    {
        type            zeroGradient;
    }
    pressure-outlet-7
    {
        type            fixedValue;
        value           uniform 0;
    }
    velocity-inlet-6
    {
        type            zeroGradient;
    }
    velocity-inlet-5
    {
        type            zeroGradient;
    }
    frontAndBackPlanes
    {
        type            empty;
    }
}


// ************************************************************************* //
