/*--------------------------------*- C++ -*----------------------------------*\
  =========                 |
  \\      /  F ield         | OpenFOAM: The Open Source CFD Toolbox
   \\    /   O peration     | Website:  https://openfoam.org
    \\  /    A nd           | Version:  9
     \\/     M anipulation  |
\*---------------------------------------------------------------------------*/
FoamFile
{
    format      ascii;
    class       volScalarField;
    location    "1";
    object      p;
}
// * * * * * * * * * * * * * * * * * * * * * * * * * * * * * * * * * * * * * //

dimensions      [0 2 -2 0 0 0 0];

internalField   nonuniform List<scalar> 
2200
(
1.60653
1.58604
1.57274
1.55992
1.54847
1.53848
1.52991
1.52283
1.51747
1.51432
1.51442
1.51776
1.52327
1.53045
1.53909
1.54912
1.5606
1.57344
1.58676
1.60725
1.41798
1.41832
1.41926
1.41722
1.41351
1.40865
1.4033
1.39814
1.39387
1.39125
1.39139
1.39421
1.39865
1.40391
1.40933
1.41424
1.41797
1.42002
1.41909
1.41876
1.3595
1.35762
1.356
1.35393
1.35149
1.34856
1.34525
1.34183
1.33878
1.33684
1.33702
1.33921
1.34243
1.34596
1.34935
1.35233
1.3548
1.35687
1.35848
1.36035
1.36989
1.36965
1.36944
1.36865
1.36739
1.36565
1.36351
1.36119
1.35903
1.35766
1.35785
1.3596
1.362
1.36451
1.36678
1.36862
1.36994
1.37078
1.371
1.37122
1.37394
1.37439
1.3745
1.37435
1.37386
1.37301
1.37183
1.37045
1.36913
1.36829
1.36849
1.36977
1.37142
1.37304
1.37441
1.37543
1.37601
1.37622
1.37612
1.37562
1.3632
1.3632
1.36317
1.3631
1.36293
1.36257
1.36202
1.3613
1.36059
1.36017
1.36049
1.36145
1.36256
1.36354
1.36424
1.36464
1.36487
1.36496
1.365
1.365
1.35257
1.35254
1.35249
1.3524
1.35225
1.35202
1.35168
1.35129
1.35094
1.35081
1.35122
1.35196
1.35278
1.35349
1.35403
1.35438
1.35458
1.35471
1.35478
1.35481
1.34348
1.34347
1.34344
1.34338
1.34331
1.3432
1.34305
1.34291
1.34283
1.34294
1.34343
1.34413
1.34481
1.34535
1.34575
1.34603
1.34621
1.34632
1.34636
1.34637
1.33454
1.33455
1.33454
1.33453
1.33451
1.3345
1.3345
1.33454
1.33468
1.33502
1.33563
1.33637
1.33701
1.3375
1.33784
1.33806
1.33819
1.33825
1.33828
1.33829
1.32557
1.32557
1.32558
1.3256
1.32564
1.3257
1.32581
1.32601
1.32634
1.3269
1.32768
1.32848
1.32912
1.32959
1.32991
1.33012
1.33024
1.3303
1.33033
1.33033
1.31654
1.31654
1.31656
1.3166
1.31668
1.31681
1.31702
1.31736
1.31789
1.31867
1.31967
1.32059
1.3213
1.32181
1.32215
1.32236
1.32249
1.32256
1.32258
1.32259
1.30737
1.30737
1.3074
1.30746
1.30758
1.30777
1.30809
1.30859
1.30932
1.31037
1.31164
1.31277
1.3136
1.31419
1.31457
1.31482
1.31496
1.31504
1.31507
1.31507
1.29799
1.29799
1.29802
1.29811
1.29827
1.29854
1.29898
1.29965
1.30063
1.302
1.30362
1.30503
1.30605
1.30676
1.30722
1.30751
1.30769
1.30778
1.30781
1.30781
1.2883
1.2883
1.28835
1.28847
1.28868
1.28904
1.28963
1.29051
1.2918
1.29358
1.29564
1.29741
1.29869
1.29957
1.30014
1.3005
1.30071
1.30082
1.30087
1.30087
1.27821
1.27822
1.27828
1.27843
1.27872
1.27919
1.27996
1.28111
1.28279
1.28508
1.28772
1.28997
1.29157
1.29267
1.29339
1.29384
1.2941
1.29424
1.2943
1.29429
1.2676
1.2676
1.26769
1.26789
1.26826
1.26889
1.26988
1.27139
1.27355
1.27651
1.27989
1.28274
1.28477
1.28616
1.28706
1.28762
1.28795
1.28812
1.2882
1.28819
1.25628
1.25629
1.2564
1.25667
1.25716
1.25798
1.25928
1.26124
1.26405
1.26786
1.27217
1.27579
1.27836
1.28011
1.28125
1.28196
1.28237
1.28259
1.28268
1.28268
1.24404
1.24406
1.24421
1.24456
1.2452
1.24629
1.248
1.25056
1.25421
1.25912
1.26462
1.2692
1.27246
1.27466
1.27609
1.27698
1.2775
1.27778
1.27789
1.27789
1.23056
1.23059
1.23079
1.23126
1.23213
1.23357
1.23583
1.23919
1.24395
1.25027
1.25727
1.26307
1.26717
1.26995
1.27175
1.27287
1.27353
1.27387
1.27401
1.27401
1.21541
1.21545
1.21574
1.21638
1.21755
1.21949
1.22252
1.22697
1.23318
1.24133
1.25021
1.25752
1.26266
1.26615
1.26842
1.26983
1.27065
1.27108
1.27126
1.27125
1.19794
1.19801
1.19842
1.19932
1.20094
1.20362
1.20772
1.21368
1.22184
1.23231
1.24352
1.25266
1.2591
1.26347
1.26632
1.2681
1.26914
1.26969
1.26992
1.26991
1.1772
1.17732
1.17793
1.17925
1.18159
1.18537
1.19107
1.19913
1.20986
1.22327
1.23731
1.24865
1.25665
1.26212
1.26572
1.26799
1.26932
1.27002
1.27031
1.2703
1.15147
1.15173
1.15274
1.15482
1.1584
1.16399
1.1721
1.18313
1.19725
1.2143
1.23168
1.24559
1.25545
1.26228
1.26686
1.2698
1.27157
1.27252
1.27293
1.27293
1.11805
1.11878
1.1208
1.12442
1.13026
1.13884
1.15059
1.16573
1.1842
1.2056
1.2268
1.24361
1.25561
1.26409
1.26994
1.27383
1.27627
1.27765
1.27829
1.27832
1.07226
1.07418
1.07827
1.08541
1.0956
1.1092
1.12637
1.14704
1.17089
1.1973
1.22267
1.24258
1.25694
1.26735
1.27484
1.28015
1.2838
1.28617
1.28744
1.28789
1.00691
1.01081
1.02242
1.03684
1.05451
1.07564
1.10011
1.12764
1.1577
1.1896
1.21928
1.24233
1.25912
1.2716
1.28098
1.28803
1.29332
1.29727
1.30028
1.3012
0.915672
0.933063
0.958156
0.983291
1.0108
1.04093
1.07357
1.10843
1.14499
1.18254
1.21665
1.24301
1.26248
1.27741
1.2892
1.2987
1.30649
1.31299
1.31883
1.32267
0.823112
0.861217
0.895619
0.930907
0.968317
1.00741
1.04812
1.09019
1.13309
1.17609
1.2144
1.24375
1.26555
1.28259
1.2964
1.30789
1.31759
1.3258
1.33251
1.33971
0.758348
0.804618
0.841247
0.883832
0.929163
0.976105
1.02426
1.07311
1.12194
1.16979
1.21137
1.24252
1.26538
1.28316
1.2975
1.30934
1.31923
1.32749
1.33366
1.34092
0.7089
0.759564
0.797131
0.844549
0.895237
0.948129
1.00246
1.05729
1.11144
1.1635
1.20741
1.2392
1.26194
1.27931
1.29318
1.30453
1.31396
1.32182
1.32755
1.33445
0.665604
0.72067
0.759191
0.81095
0.865802
0.923455
0.982979
1.04303
1.10192
1.15759
1.203
1.23439
1.25597
1.27208
1.28483
1.29527
1.30398
1.31131
1.31664
1.32317
0.626345
0.684999
0.724852
0.780673
0.839219
0.901113
0.965289
1.03009
1.09333
1.15219
1.19848
1.22855
1.24803
1.26207
1.27311
1.28224
1.28999
1.29663
1.30154
1.30766
0.59013
0.651166
0.693034
0.752297
0.814293
0.880186
0.948742
1.01806
1.08548
1.14738
1.19417
1.22214
1.23855
1.24962
1.25822
1.26553
1.272
1.27777
1.28219
1.28784
0.555667
0.618596
0.662815
0.725014
0.790311
0.860036
0.93282
1.00657
1.07818
1.14321
1.19042
1.21564
1.22792
1.23489
1.24012
1.24493
1.24967
1.25428
1.25807
1.2632
0.521886
0.586843
0.63335
0.698272
0.76677
0.840197
0.917113
0.995273
1.07123
1.13971
1.18755
1.20959
1.2166
1.21807
1.21863
1.21995
1.22228
1.22533
1.22829
1.23279
0.488177
0.555441
0.604079
0.671671
0.743292
0.820319
0.901289
0.983883
1.0644
1.13682
1.18587
1.20463
1.20523
1.1994
1.19349
1.18987
1.18879
1.18966
1.19145
1.19519
0.454304
0.52405
0.574711
0.644957
0.719624
0.800151
0.885094
0.972127
1.05743
1.1344
1.1856
1.20145
1.19465
1.17938
1.1645
1.15377
1.14773
1.14547
1.14556
1.14834
0.420239
0.49251
0.545144
0.61801
0.695635
0.779547
0.86835
0.959782
1.05004
1.13223
1.18683
1.20079
1.18606
1.15894
1.13168
1.11064
1.0972
1.09025
1.0878
1.08928
0.386049
0.460818
0.515386
0.590814
0.671292
0.758449
0.850959
0.946681
1.04198
1.12998
1.18949
1.20333
1.18098
1.13968
1.09564
1.05948
1.03474
1.02051
1.01405
1.01369
0.351846
0.429052
0.485513
0.563428
0.646637
0.736872
0.832892
0.932721
1.03301
1.12728
1.19326
1.20951
1.1811
1.12403
1.05792
0.99976
0.95746
0.931443
0.918326
0.915306
0.317804
0.397359
0.455659
0.535973
0.621773
0.714896
0.814193
0.917877
1.02298
1.12371
1.1976
1.21942
1.18813
1.11525
1.02149
0.931838
0.862419
0.817
0.79246
0.785734
0.284113
0.365911
0.425974
0.508581
0.59682
0.692622
0.794938
0.902167
1.01176
1.11887
1.20174
1.23255
1.20338
1.11721
0.990811
0.856598
0.745232
0.667209
0.622802
0.613074
0.250884
0.334882
0.396623
0.481434
0.571945
0.670218
0.775281
0.88571
0.999381
1.11249
1.20481
1.24777
1.22735
1.13419
0.972242
0.775657
0.593678
0.469035
0.415587
0.403355
0.218379
0.304386
0.367769
0.454718
0.547314
0.647852
0.755375
0.868634
0.985904
1.10438
1.20586
1.26314
1.25883
1.16982
0.97292
0.689404
0.381422
0.166524
0.105528
0.106262
0.187143
0.274417
0.339609
0.428518
0.523037
0.62564
0.735345
0.851066
0.971426
1.09451
1.20419
1.27637
1.29469
1.22712
1.0066
0.598801
0.11951
-0.226098
-0.298464
-0.28556
0.157057
0.245514
0.312373
0.403042
0.499374
0.60386
0.715496
0.833332
0.956262
1.08309
1.19942
1.28479
1.32812
1.30034
1.06955
0.436403
-0.697924
-1.32662
-1.05075
-0.957953
0.127798
0.217854
0.28604
0.378252
0.476226
0.582329
0.695591
0.815144
0.940064
1.06969
1.1909
1.2868
1.35103
1.36787
1.25415
0.653241
-0.584682
-1.52789
-1.22976
-0.702461
0.0993226
0.191041
0.260231
0.353826
0.453191
0.560571
0.675082
0.795863
0.922055
1.05326
1.1769
1.27694
1.344
1.35297
1.23979
0.919545
0.293128
-0.398616
-0.570672
-0.396412
0.0719856
0.165182
0.235096
0.33002
0.430524
0.538887
0.654309
0.775861
0.902634
1.03418
1.15778
1.25712
1.32246
1.33601
1.26978
1.04612
0.634284
0.302417
0.137613
0.0953625
0.0459249
0.140437
0.210821
0.30702
0.408384
0.517473
0.633512
0.755446
0.882201
1.01298
1.13425
1.22875
1.28593
1.2892
1.22948
1.06921
0.766566
0.504944
0.357034
0.257817
0.0208869
0.116545
0.187267
0.284711
0.386701
0.496344
0.612767
0.734743
0.860937
0.989948
1.10701
1.19346
1.23795
1.22413
1.15177
1.01798
0.777282
0.535741
0.397976
0.304987
-0.00364093
0.0929756
0.164104
0.262664
0.365115
0.47517
0.591754
0.713455
0.838605
0.965033
1.07661
1.15319
1.18332
1.15209
1.06296
0.927039
0.71077
0.475284
0.325908
0.240042
-0.0290491
0.0685487
0.140352
0.239761
0.342639
0.453067
0.569739
0.691046
0.814924
0.938322
1.04367
1.1094
1.1243
1.07391
0.963061
0.810002
0.59403
0.36758
0.212695
0.139423
-0.0567327
0.0419425
0.114872
0.215089
0.318609
0.429607
0.546548
0.667582
0.790214
0.910455
1.00923
1.06401
1.06517
0.999486
0.870867
0.701904
0.467743
0.200252
0.00727744
-0.108877
-0.0866619
0.013023
0.0875602
0.188822
0.293255
0.40505
0.522438
0.643309
0.764738
0.881818
0.974069
1.01839
1.00738
0.929421
0.781567
0.594826
0.335348
-0.0387729
-0.419768
-0.562022
-0.118199
-0.0174545
0.0589263
0.161264
0.266659
0.379312
0.497199
0.617947
0.73823
0.852292
0.938542
0.973719
0.952568
0.866809
0.702031
0.480784
0.196832
-0.25063
-0.845275
-1.36041
-0.151653
-0.0496047
0.0288195
0.132137
0.238568
0.352247
0.470801
0.591631
0.71105
0.822576
0.903932
0.932346
0.904249
0.816476
0.651617
0.396878
0.0693362
-0.332449
-1.09265
-3.27896
-0.187653
-0.0840425
-0.00329277
0.100959
0.208701
0.323687
0.443144
0.564317
0.68321
0.792763
0.870268
0.894343
0.86319
0.777382
0.629716
0.39358
0.060645
-0.285347
-0.480277
-1.22179
-0.226144
-0.120682
-0.0376496
0.0674124
0.176722
0.293153
0.413629
0.535296
0.65391
0.762014
0.836956
0.859604
0.830598
0.753981
0.634834
0.469519
0.245901
-0.0254901
-0.00776039
-0.0621562
-0.266832
-0.159012
-0.0741055
0.0317638
0.142845
0.260788
0.382385
0.504701
0.623328
0.730671
0.804767
0.829717
0.808642
0.750717
0.668167
0.576378
0.478195
0.321199
0.345159
0.294395
-0.309428
-0.199017
-0.112584
-0.00567579
0.107367
0.226918
0.349793
0.472988
0.59206
0.699665
0.774663
0.805174
0.796812
0.762705
0.716558
0.672773
0.638402
0.576468
0.590913
0.579126
-0.353853
-0.240514
-0.152957
-0.0447088
0.0704733
0.19179
0.316167
0.440569
0.560704
0.669703
0.747657
0.786766
0.792867
0.781487
0.764086
0.749283
0.742972
0.733868
0.754296
0.771781
-0.400218
-0.283003
-0.19491
-0.0850267
0.0324609
0.155732
0.281866
0.40784
0.52961
0.641076
0.724568
0.773527
0.794191
0.802353
0.806539
0.812525
0.823752
0.837545
0.862209
0.88739
-0.44809
-0.326151
-0.238031
-0.126062
-0.00612316
0.119263
0.247382
0.37529
0.499238
0.614168
0.705098
0.763129
0.798586
0.823117
0.843886
0.864766
0.887131
0.909724
0.934243
0.960318
-0.49609
-0.369744
-0.28177
-0.167048
-0.0445851
0.0830104
0.213273
0.343436
0.470164
0.589401
0.68857
0.756143
0.804734
0.842128
0.874976
0.905378
0.934058
0.960487
0.984674
1.01091
-0.542494
-0.413241
-0.325175
-0.207037
-0.0820736
0.0476897
0.180146
0.312775
0.442741
0.566928
0.673847
0.752258
0.810981
0.858212
0.899253
0.935537
0.967847
0.996256
1.02036
1.04643
-0.586769
-0.455039
-0.367253
-0.244751
-0.117529
0.0141244
0.148656
0.28377
0.417074
0.54641
0.660219
0.748409
0.81539
0.870221
0.91677
0.95674
0.99115
1.02053
1.04435
1.07002
-0.627599
-0.493726
-0.406916
-0.27866
-0.14981
-0.0168405
0.119492
0.256867
0.393235
0.527334
0.647498
0.743084
0.817036
0.877382
0.927662
0.969964
1.00558
1.03539
1.05861
1.08393
-0.663337
-0.526792
-0.442664
-0.306588
-0.178088
-0.0443855
0.0933786
0.232504
0.371311
0.509316
0.634979
0.736346
0.815325
0.87934
0.93203
0.975775
1.01221
1.04213
1.06409
1.09026
-0.691508
-0.552098
-0.471197
-0.326061
-0.202228
-0.0675336
0.0711802
0.211135
0.351346
0.491919
0.62154
0.727024
0.809324
0.87564
0.929745
0.974146
1.01099
1.04285
1.06102
1.09114
-0.708685
-0.567993
-0.486361
-0.339308
-0.22016
-0.0841379
0.0538293
0.193235
0.33335
0.47466
0.606171
0.713896
0.798056
0.86564
0.920536
0.965223
1.00097
1.03647
1.05233
1.08257
-0.710623
-0.572047
-0.485271
-0.346941
-0.226569
-0.0928284
0.0423115
0.179214
0.31727
0.457162
0.588113
0.695973
0.780486
0.848389
0.903594
0.948983
0.983098
1.0186
1.03691
1.06362
-0.691273
-0.557455
-0.46877
-0.340004
-0.220022
-0.0921866
0.0375716
0.169316
0.302742
0.438675
0.566546
0.672245
0.755341
0.822271
0.87682
0.921623
0.958097
0.9899
1.01109
1.03649
-0.642559
-0.517346
-0.430865
-0.3131
-0.199273
-0.0805015
0.040629
0.164066
0.289819
0.418713
0.540491
0.641407
0.720977
0.785368
0.838261
0.882091
0.918488
0.949196
0.971283
0.996752
-0.557054
-0.442617
-0.36461
-0.262718
-0.161364
-0.0561364
0.0522072
0.163672
0.278354
0.396815
0.509168
0.602232
0.675514
0.73487
0.783885
0.824914
0.859563
0.889193
0.911506
0.93723
-0.414912
-0.326333
-0.267354
-0.188487
-0.106375
-0.0196041
0.0717369
0.167595
0.267868
0.372573
0.472083
0.55394
0.617665
0.668587
0.710078
0.744421
0.77321
0.797852
0.816908
0.838992
-0.209164
-0.168086
-0.13815
-0.0904429
-0.0353369
0.0277558
0.0984369
0.176188
0.260394
0.350344
0.436727
0.507452
0.561505
0.603432
0.63623
0.661982
0.682179
0.698015
0.709486
0.721293
-0.0304197
-0.0203536
-0.00991417
0.0115345
0.0414725
0.0811336
0.130736
0.189913
0.257886
0.333484
0.407804
0.468933
0.515064
0.54985
0.575871
0.594988
0.608576
0.617746
0.623008
0.626852
0.0670514
0.0705544
0.0758187
0.0865358
0.103261
0.127802
0.161463
0.204865
0.257862
0.319461
0.381687
0.433169
0.471461
0.499441
0.51938
0.533086
0.542052
0.547561
0.550492
0.552221
0.120128
0.122332
0.126222
0.13325
0.144335
0.160963
0.18464
0.216588
0.257402
0.306664
0.357687
0.400172
0.43145
0.453817
0.469317
0.479676
0.486316
0.490365
0.492615
0.493884
0.153494
0.154922
0.157689
0.162616
0.170529
0.182537
0.199908
0.223892
0.255387
0.294439
0.335706
0.3703
0.395656
0.413606
0.42591
0.43407
0.439281
0.442445
0.444215
0.445182
0.175009
0.175995
0.177949
0.181443
0.18716
0.195981
0.208949
0.227168
0.251555
0.28238
0.315466
0.343393
0.36384
0.378247
0.388066
0.394539
0.398648
0.401124
0.402506
0.403256
0.187794
0.188517
0.18995
0.192509
0.196725
0.203296
0.213077
0.227007
0.245932
0.270204
0.296583
0.318989
0.335402
0.346937
0.35477
0.359913
0.363165
0.365119
0.366212
0.366803
0.194114
0.194657
0.195735
0.197657
0.200831
0.205803
0.213258
0.223976
0.238694
0.257782
0.278733
0.296628
0.309754
0.318971
0.325218
0.329314
0.331899
0.333452
0.33432
0.334788
0.195654
0.196067
0.196888
0.198352
0.200773
0.204578
0.21031
0.218602
0.230073
0.245076
0.261672
0.275918
0.286386
0.293737
0.298718
0.30198
0.304038
0.305273
0.305964
0.306336
0.193599
0.193917
0.194546
0.19567
0.197533
0.200467
0.2049
0.211341
0.220301
0.232093
0.245217
0.256531
0.264859
0.270712
0.274676
0.277272
0.278909
0.279892
0.280441
0.280736
0.188798
0.189042
0.189528
0.190398
0.19184
0.194115
0.197559
0.202578
0.209588
0.218857
0.229224
0.238193
0.244806
0.249455
0.252606
0.254669
0.25597
0.256751
0.257187
0.257421
0.181882
0.182072
0.18245
0.183125
0.184247
0.186017
0.188702
0.192623
0.198115
0.205403
0.213584
0.220682
0.225923
0.229611
0.232112
0.23375
0.234783
0.235403
0.23575
0.235935
0.173333
0.173482
0.173776
0.174303
0.175178
0.176559
0.178656
0.181724
0.186031
0.191761
0.198212
0.203822
0.207971
0.210893
0.212875
0.214174
0.214993
0.215485
0.21576
0.215906
0.163517
0.163633
0.163863
0.164274
0.164957
0.166037
0.167678
0.170081
0.17346
0.177965
0.183048
0.187477
0.190757
0.193069
0.194638
0.195666
0.196314
0.196703
0.19692
0.197036
0.152712
0.152803
0.152982
0.153303
0.153837
0.154682
0.155967
0.157851
0.160502
0.164042
0.168044
0.171537
0.174126
0.175953
0.177192
0.178004
0.178515
0.178822
0.178994
0.179085
0.141134
0.141205
0.141345
0.141597
0.142015
0.142676
0.143682
0.145158
0.147237
0.150017
0.153164
0.155915
0.157955
0.159394
0.160371
0.16101
0.161413
0.161655
0.161791
0.161863
0.128952
0.129008
0.129117
0.129314
0.129641
0.130158
0.130945
0.132101
0.13373
0.13591
0.138381
0.140542
0.142146
0.143277
0.144045
0.144549
0.144866
0.145057
0.145163
0.14522
0.1163
0.116344
0.116429
0.116583
0.116838
0.117242
0.117856
0.118759
0.120033
0.121739
0.123673
0.125366
0.126623
0.12751
0.128113
0.128508
0.128757
0.128907
0.128991
0.129036
0.103279
0.103312
0.103379
0.103498
0.103697
0.104011
0.104489
0.105192
0.106184
0.107513
0.109021
0.110341
0.111322
0.112014
0.112485
0.112794
0.112989
0.113106
0.113172
0.113206
0.0899778
0.090004
0.0900556
0.0901479
0.0903015
0.0905445
0.0909149
0.0914588
0.0922265
0.0932548
0.0944215
0.0954431
0.0962021
0.0967383
0.0971028
0.097342
0.0974931
0.0975839
0.0976346
0.0976612
0.0764488
0.0764685
0.0765079
0.0765785
0.0766958
0.0768816
0.0771646
0.0775803
0.0781669
0.0789529
0.0798449
0.0806257
0.0812055
0.0816149
0.0818931
0.0820757
0.0821912
0.0822608
0.0822998
0.0823208
0.0627624
0.0627784
0.0628089
0.0628621
0.0629505
0.0630913
0.0633054
0.0636192
0.0640609
0.0646513
0.0653198
0.0659028
0.0663348
0.0666394
0.0668461
0.0669818
0.0670677
0.0671194
0.0671484
0.0671639
0.0489622
0.0489755
0.0489959
0.0490277
0.0490869
0.0491899
0.0493437
0.049569
0.0498866
0.0503124
0.0507963
0.051221
0.0515344
0.0517543
0.0519029
0.0520003
0.0520619
0.0520992
0.0521203
0.0521317
0.0349259
0.0349311
0.0349443
0.0349741
0.0350202
0.0350841
0.0351851
0.0353338
0.0355462
0.0358324
0.0361596
0.0364564
0.0366821
0.0368404
0.0369459
0.0370166
0.0370629
0.0370921
0.03711
0.0371225
0.0209687
0.0209728
0.0209835
0.0210028
0.021031
0.0210728
0.0211342
0.0212243
0.0213551
0.0215285
0.0217241
0.0219035
0.0220473
0.0221562
0.0222321
0.0222814
0.0223138
0.0223338
0.022344
0.0223489
0.00707248
0.00707684
0.00708248
0.00708911
0.00709821
0.0071109
0.00712954
0.00715742
0.00719504
0.00724755
0.00731332
0.0073695
0.00741452
0.0074579
0.00750124
0.00753401
0.00755493
0.00756761
0.00757317
0.00757388
-0.799196
0.0369469
-0.100138
0.211223
0.163443
0.184601
0.0869345
-0.0649129
-0.244726
-0.23475
-0.216197
0.142836
-0.0427888
0.203652
0.104327
0.0847832
0.0147612
-0.0634771
-0.206755
-0.186894
-0.0150833
0.191881
0.0181513
0.168258
0.0706204
0.0518681
-0.0106088
-0.0356904
-0.11189
-0.0656958
0.0797589
0.187219
0.0490542
0.153647
0.0668566
0.0698845
0.0173125
0.0183883
-0.0331184
0.032132
0.117158
0.185822
0.0777527
0.161132
0.0696317
0.102422
0.0514536
0.082091
0.0489109
0.108002
0.139094
0.193014
0.0997184
0.183451
0.0967088
0.155328
0.103292
0.150214
0.121742
0.176878
0.157164
0.215519
0.130153
0.219951
0.133673
0.21063
0.156035
0.217494
0.187237
0.237724
0.185543
0.248158
0.170534
0.264116
0.183429
0.268294
0.213872
0.27905
0.251393
0.298618
0.233674
0.298092
0.229718
0.325282
0.251472
0.335798
0.283015
0.348367
0.322353
0.363655
0.315407
0.370822
0.310576
0.3942
0.333288
0.409315
0.363006
0.419997
0.390928
0.42229
0.383986
0.424053
0.377882
0.444587
0.389764
0.450444
0.4083
0.448772
0.425602
0.440018
0.391913
0.411414
0.397222
0.429775
0.411796
0.438382
0.418866
0.44808
0.429975
0.447715
0.414422
0.426028
0.418595
0.440444
0.440026
0.458689
0.469024
0.492389
0.492523
0.512502
0.541648
0.56841
0.581128
0.593924
0.605755
0.612888
0.624373
0.636281
0.640582
0.66137
0.774453
0.768717
0.767582
0.766067
0.766462
0.764598
0.766321
0.777342
0.787251
0.817967
0.931403
0.871084
0.838142
0.816048
0.804343
0.806351
0.81586
0.831947
0.855904
0.921449
)
;

boundaryField
{
    wall-4
    {
        type            zeroGradient;
    }
    pressure-outlet-7
    {
        type            fixedValue;
        value           uniform 0;
    }
    velocity-inlet-6
    {
        type            zeroGradient;
    }
    velocity-inlet-5
    {
        type            zeroGradient;
    }
    frontAndBackPlanes
    {
        type            empty;
    }
}


// ************************************************************************* //
