/*--------------------------------*- C++ -*----------------------------------*\
  =========                 |
  \\      /  F ield         | OpenFOAM: The Open Source CFD Toolbox
   \\    /   O peration     | Website:  https://openfoam.org
    \\  /    A nd           | Version:  9
     \\/     M anipulation  |
\*---------------------------------------------------------------------------*/
FoamFile
{
    format      ascii;
    class       volVectorField;
    location    "1";
    object      U;
}
// * * * * * * * * * * * * * * * * * * * * * * * * * * * * * * * * * * * * * //

dimensions      [0 1 -1 0 0 0 0];

internalField   nonuniform List<vector> 
2200
(
(0.803343 -0.0172135 0)
(0.895913 -0.0287857 0)
(0.896642 -0.0203611 0)
(0.893863 -0.0158537 0)
(0.891639 -0.011898 0)
(0.890084 -0.00862879 0)
(0.889063 -0.00602485 0)
(0.888427 -0.00391375 0)
(0.888051 -0.00211572 0)
(0.887859 -0.000442981 0)
(0.887844 0.00117864 0)
(0.888015 0.00276729 0)
(0.888376 0.00446602 0)
(0.889004 0.0064741 0)
(0.890021 0.0089776 0)
(0.891575 0.0121573 0)
(0.893799 0.0160356 0)
(0.896578 0.0204804 0)
(0.895845 0.0288376 0)
(0.803283 0.0172194 0)
(0.881976 -0.00637253 0)
(1.02478 -0.0121233 0)
(1.02637 -0.0102438 0)
(1.02247 -0.0102427 0)
(1.01905 -0.00931071 0)
(1.01648 -0.00790746 0)
(1.01463 -0.00617148 0)
(1.01337 -0.00428905 0)
(1.01258 -0.00236467 0)
(1.01217 -0.00037535 0)
(1.01209 0.00157586 0)
(1.01245 0.00341126 0)
(1.01321 0.00518453 0)
(1.01443 0.00690169 0)
(1.01625 0.00847503 0)
(1.01881 0.00972656 0)
(1.02221 0.0105215 0)
(1.02609 0.0104127 0)
(1.02448 0.012189 0)
(0.881804 0.0063885 0)
(0.870053 -0.00327317 0)
(1.03796 -0.00566328 0)
(1.04395 -0.0054451 0)
(1.04243 -0.00576855 0)
(1.04071 -0.00561484 0)
(1.039 -0.00514235 0)
(1.03746 -0.00431533 0)
(1.03621 -0.00316609 0)
(1.0353 -0.00175566 0)
(1.03478 -0.000187665 0)
(1.03459 0.00153823 0)
(1.03502 0.00308535 0)
(1.03584 0.00432909 0)
(1.03703 0.00529044 0)
(1.03852 0.00589158 0)
(1.04018 0.00615449 0)
(1.04187 0.00614515 0)
(1.04342 0.00571834 0)
(1.03747 0.0058806 0)
(0.869758 0.00336516 0)
(0.8295 -0.000881225 0)
(1.00707 -0.00236295 0)
(1.01402 -0.00279798 0)
(1.01328 -0.00336083 0)
(1.01218 -0.00354438 0)
(1.01098 -0.00342259 0)
(1.00977 -0.00297185 0)
(1.00867 -0.00223028 0)
(1.00778 -0.00118318 0)
(1.00718 1.2105e-05 0)
(1.00721 0.00134693 0)
(1.00755 0.00262611 0)
(1.00827 0.00348588 0)
(1.00928 0.00403096 0)
(1.01043 0.00430736 0)
(1.0116 0.00427119 0)
(1.01269 0.00392279 0)
(1.01352 0.00320697 0)
(1.0066 0.0026173 0)
(0.828709 0.00099144 0)
(0.826751 0.000121483 0)
(1.00041 -0.000105465 0)
(1.00727 -0.000641803 0)
(1.00693 -0.00109857 0)
(1.00631 -0.00142494 0)
(1.00557 -0.00153894 0)
(1.00474 -0.00142063 0)
(1.00388 -0.0010321 0)
(1.00308 -0.000370592 0)
(1.00245 0.000486477 0)
(1.00246 0.00139622 0)
(1.0026 0.00214033 0)
(1.00307 0.00254521 0)
(1.0037 0.00266505 0)
(1.00437 0.00253516 0)
(1.00502 0.00219702 0)
(1.00557 0.00168744 0)
(1.00585 0.00105241 0)
(0.998675 0.000319359 0)
(0.824672 -6.98556e-05 0)
(0.828524 -4.65358e-05 0)
(1.00223 -0.00015674 0)
(1.00926 -0.000349304 0)
(1.00911 -0.000525578 0)
(1.00879 -0.000675704 0)
(1.00833 -0.000730534 0)
(1.00775 -0.000640147 0)
(1.00707 -0.000357058 0)
(1.00638 0.000144005 0)
(1.00578 0.00085718 0)
(1.00557 0.0015308 0)
(1.00559 0.00195282 0)
(1.00587 0.00213874 0)
(1.00626 0.00207623 0)
(1.00665 0.00182646 0)
(1.00701 0.001468 0)
(1.00728 0.0010747 0)
(1.00729 0.000679986 0)
(0.999964 0.00030721 0)
(0.826264 6.19568e-05 0)
(0.828374 -4.64418e-05 0)
(1.00227 -0.000121736 0)
(1.00947 -0.000149853 0)
(1.00948 -0.000144811 0)
(1.00931 -0.000115319 0)
(1.00903 -4.04079e-05 0)
(1.00864 0.000115375 0)
(1.00814 0.000381414 0)
(1.00756 0.00077453 0)
(1.00699 0.00129434 0)
(1.00666 0.0017179 0)
(1.00648 0.00192915 0)
(1.00648 0.00190858 0)
(1.0066 0.00173851 0)
(1.00677 0.00148007 0)
(1.00694 0.00118379 0)
(1.00706 0.000864108 0)
(1.00697 0.000565888 0)
(0.999609 0.000299033 0)
(0.825979 8.70255e-05 0)
(0.828154 5.89748e-06 0)
(1.00213 1.75927e-05 0)
(1.00942 7.93348e-05 0)
(1.00946 0.000164703 0)
(1.00931 0.00028548 0)
(1.00908 0.000444955 0)
(1.00875 0.000661913 0)
(1.0083 0.000949986 0)
(1.00775 0.00130786 0)
(1.00713 0.00170618 0)
(1.00664 0.00198287 0)
(1.00633 0.00200877 0)
(1.0062 0.00189027 0)
(1.00617 0.00166623 0)
(1.00617 0.00137798 0)
(1.00617 0.00106693 0)
(1.00617 0.000767439 0)
(1.00602 0.000496982 0)
(0.998642 0.000261442 0)
(0.825136 7.65088e-05 0)
(0.828317 3.94687e-05 0)
(1.00233 0.000126356 0)
(1.0097 0.000262852 0)
(1.00977 0.000425264 0)
(1.00964 0.000624954 0)
(1.00942 0.000867161 0)
(1.0091 0.00115783 0)
(1.00866 0.00149683 0)
(1.00807 0.00186605 0)
(1.00736 0.00221132 0)
(1.00668 0.00239149 0)
(1.00616 0.00232341 0)
(1.00585 0.00209519 0)
(1.00567 0.00177342 0)
(1.00556 0.0014221 0)
(1.0055 0.0010807 0)
(1.00547 0.000769619 0)
(1.0053 0.000495878 0)
(0.99792 0.000260226 0)
(0.824517 7.6549e-05 0)
(0.828775 6.75627e-05 0)
(1.00286 0.000224317 0)
(1.01021 0.000426847 0)
(1.01028 0.000666222 0)
(1.01015 0.000951273 0)
(1.00993 0.00128541 0)
(1.00959 0.00166737 0)
(1.0091 0.00208463 0)
(1.00844 0.00250174 0)
(1.00758 0.00283912 0)
(1.00668 0.00295106 0)
(1.00597 0.00278731 0)
(1.00548 0.00244988 0)
(1.00516 0.00203737 0)
(1.00496 0.00161443 0)
(1.00484 0.00121725 0)
(1.00476 0.000862139 0)
(1.00457 0.000553746 0)
(0.997171 0.000290307 0)
(0.823875 8.57238e-05 0)
(0.829412 9.28444e-05 0)
(1.00359 0.00030969 0)
(1.01094 0.000588316 0)
(1.011 0.000917613 0)
(1.01085 0.00130326 0)
(1.0106 0.00174717 0)
(1.01021 0.00224258 0)
(1.00964 0.00276606 0)
(1.00883 0.00326386 0)
(1.00778 0.00362757 0)
(1.00662 0.00369248 0)
(1.00566 0.00342902 0)
(1.00498 0.00297616 0)
(1.00452 0.00245478 0)
(1.00423 0.00193545 0)
(1.00404 0.00145501 0)
(1.00392 0.00102894 0)
(1.0037 0.000660458 0)
(0.996297 0.000345933 0)
(0.823126 0.000102274 0)
(0.830262 0.000121699 0)
(1.00457 0.000407653 0)
(1.01191 0.000775643 0)
(1.01196 0.00121009 0)
(1.01178 0.00171624 0)
(1.01147 0.00229433 0)
(1.011 0.00293198 0)
(1.0103 0.00359417 0)
(1.0093 0.00420653 0)
(1.00798 0.00462648 0)
(1.00649 0.00465764 0)
(1.00524 0.00428549 0)
(1.00434 0.00369396 0)
(1.00372 0.003032 0)
(1.00331 0.00238233 0)
(1.00305 0.00178671 0)
(1.0029 0.00126169 0)
(1.00266 0.000809409 0)
(0.995238 0.00042415 0)
(0.82222 0.000125696 0)
(0.831375 0.000158299 0)
(1.00585 0.00052928 0)
(1.01318 0.00100627 0)
(1.01321 0.001569 0)
(1.01298 0.00222334 0)
(1.0126 0.00296826 0)
(1.01201 0.00378542 0)
(1.01113 0.00462632 0)
(1.00988 0.00539174 0)
(1.0082 0.00589688 0)
(1.0063 0.00590085 0)
(1.00468 0.00540192 0)
(1.00351 0.00463949 0)
(1.0027 0.00379891 0)
(1.00217 0.00298021 0)
(1.00183 0.00223272 0)
(1.00163 0.00157536 0)
(1.00136 0.00100979 0)
(0.993923 0.000528456 0)
(0.821096 0.000156192 0)
(0.832813 0.000203881 0)
(1.00751 0.000682315 0)
(1.01483 0.00129694 0)
(1.01482 0.0020216 0)
(1.01453 0.00286274 0)
(1.01405 0.00381817 0)
(1.0133 0.00486268 0)
(1.01218 0.00593164 0)
(1.01059 0.00689515 0)
(1.00845 0.00751533 0)
(1.00603 0.00749234 0)
(1.00396 0.00683711 0)
(1.00246 0.00585861 0)
(1.00142 0.00478944 0)
(1.00074 0.00375328 0)
(1.0003 0.00281013 0)
(1.00004 0.00198224 0)
(0.999733 0.00127075 0)
(0.992281 0.000665295 0)
(0.819691 0.000197039 0)
(0.834663 0.000262021 0)
(1.00963 0.000876504 0)
(1.01694 0.00166599 0)
(1.01688 0.00259674 0)
(1.01651 0.00367619 0)
(1.0159 0.0049004 0)
(1.01494 0.00623511 0)
(1.01351 0.00759506 0)
(1.01148 0.00881147 0)
(1.00875 0.00957934 0)
(1.00566 0.00952381 0)
(1.00302 0.00867115 0)
(1.00111 0.00741829 0)
(0.999791 0.00605776 0)
(0.998917 0.00474356 0)
(0.998361 0.00354967 0)
(0.998023 0.00250294 0)
(0.997678 0.00160405 0)
(0.990205 0.00083958 0)
(0.817917 0.000248452 0)
(0.837044 0.000337635 0)
(1.01237 0.00112744 0)
(1.01966 0.00214108 0)
(1.01954 0.0033358 0)
(1.01906 0.00471996 0)
(1.01827 0.00628766 0)
(1.01704 0.00799287 0)
(1.01521 0.00972337 0)
(1.0126 0.01126 0)
(1.00911 0.012212 0)
(1.00518 0.0121109 0)
(1.00183 0.0110046 0)
(0.999397 0.0094019 0)
(0.997723 0.00767079 0)
(0.996613 0.00600326 0)
(0.995908 0.00449073 0)
(0.995479 0.00316584 0)
(0.995082 0.00202862 0)
(0.987582 0.00106192 0)
(0.815675 0.000314315 0)
(0.840107 0.000434659 0)
(1.01588 0.00145131 0)
(1.02315 0.00275583 0)
(1.02295 0.00429236 0)
(1.02233 0.00606988 0)
(1.0213 0.00807898 0)
(1.01971 0.0102576 0)
(1.01735 0.0124579 0)
(1.01401 0.0143954 0)
(1.00954 0.0155708 0)
(1.00454 0.0154005 0)
(1.00029 0.0139651 0)
(0.997212 0.0119158 0)
(0.995094 0.00971383 0)
(0.993691 0.00759832 0)
(0.992799 0.0056821 0)
(0.992258 0.00400482 0)
(0.991797 0.00256575 0)
(0.984264 0.00134291 0)
(0.812841 0.000397587 0)
(0.844061 0.000562253 0)
(1.02041 0.00187301 0)
(1.02764 0.00355403 0)
(1.02733 0.00553321 0)
(1.02652 0.00781983 0)
(1.02519 0.0103986 0)
(1.02312 0.0131844 0)
(1.02007 0.0159804 0)
(1.01576 0.0184163 0)
(1.01005 0.0198551 0)
(1.00369 0.0195766 0)
(0.998308 0.0177121 0)
(0.994428 0.0150924 0)
(0.991758 0.0122936 0)
(0.98999 0.00961177 0)
(0.988867 0.00718604 0)
(0.988186 0.00506429 0)
(0.987645 0.00324433 0)
(0.980069 0.00169796 0)
(0.80926 0.000502471 0)
(0.849184 0.000730609 0)
(1.02627 0.0024286 0)
(1.03346 0.00460484 0)
(1.033 0.00716329 0)
(1.03193 0.0101124 0)
(1.03018 0.0134273 0)
(1.02747 0.0169895 0)
(1.02349 0.0205352 0)
(1.01793 0.0235807 0)
(1.01062 0.025317 0)
(1.00256 0.024867 0)
(0.995768 0.022441 0)
(0.990887 0.0190946 0)
(0.987529 0.0155409 0)
(0.985307 0.0121445 0)
(0.983895 0.00907615 0)
(0.983039 0.0063943 0)
(0.982397 0.00409517 0)
(0.974769 0.00214267 0)
(0.804737 0.000633903 0)
(0.855855 0.000954708 0)
(1.03389 0.00316443 0)
(1.04101 0.00599673 0)
(1.04034 0.00931975 0)
(1.03891 0.0131396 0)
(1.03658 0.0174124 0)
(1.03301 0.0219686 0)
(1.0278 0.0264499 0)
(1.0206 0.0302242 0)
(1.01124 0.032273 0)
(1.00104 0.0315508 0)
(0.992511 0.0283898 0)
(0.986392 0.0241222 0)
(0.982182 0.0196206 0)
(0.979394 0.0153291 0)
(0.97762 0.0114556 0)
(0.976544 0.00807076 0)
(0.975775 0.00516876 0)
(0.968084 0.00270361 0)
(0.799033 0.000799538 0)
(0.864615 0.00126273 0)
(1.04386 0.00416388 0)
(1.05087 0.00787866 0)
(1.04991 0.0122222 0)
(1.04796 0.0171943 0)
(1.04482 0.0227163 0)
(1.04004 0.0285384 0)
(1.03316 0.0341675 0)
(1.0238 0.03878 0)
(1.01183 0.0411136 0)
(0.998993 0.0399618 0)
(0.988338 0.0358417 0)
(0.980701 0.030415 0)
(0.975435 0.0247307 0)
(0.971937 0.0193221 0)
(0.969706 0.0144413 0)
(0.96835 0.0101753 0)
(0.967421 0.00651703 0)
(0.959648 0.00340934 0)
(0.791838 0.00100816 0)
(0.876335 0.00168435 0)
(1.05711 0.00552743 0)
(1.06395 0.0104683 0)
(1.0625 0.0162064 0)
(1.05977 0.0227324 0)
(1.05541 0.0298919 0)
(1.04891 0.0373066 0)
(1.03974 0.0442959 0)
(1.02755 0.0498046 0)
(1.01231 0.0523111 0)
(0.996245 0.0504894 0)
(0.983024 0.0451281 0)
(0.973543 0.0382659 0)
(0.966974 0.0311302 0)
(0.962577 0.0243447 0)
(0.95975 0.0182104 0)
(0.958022 0.0128375 0)
(0.956873 0.00822312 0)
(0.948991 0.00430012 0)
(0.782746 0.00127108 0)
(0.891954 0.00236301 0)
(1.07479 0.00764147 0)
(1.08132 0.0142754 0)
(1.07912 0.0219509 0)
(1.07514 0.0305618 0)
(1.06893 0.0398289 0)
(1.05991 0.0491705 0)
(1.0476 0.0576614 0)
(1.03172 0.0639944 0)
(1.01242 0.0664127 0)
(0.992507 0.0635627 0)
(0.976254 0.0566152 0)
(0.964573 0.0480132 0)
(0.956403 0.039139 0)
(0.950862 0.0306923 0)
(0.947249 0.0230218 0)
(0.945014 0.0162683 0)
(0.943566 0.0104405 0)
(0.935536 0.00547827 0)
(0.771288 0.00162274 0)
(0.915356 0.00326102 0)
(1.09985 0.0103295 0)
(1.10547 0.0198769 0)
(1.10164 0.0304006 0)
(1.09537 0.0419393 0)
(1.08614 0.0538875 0)
(1.0734 0.0654132 0)
(1.05677 0.0753451 0)
(1.03618 0.0821799 0)
(1.01198 0.0840232 0)
(0.987596 0.0796389 0)
(0.967879 0.0706989 0)
(0.953631 0.0600484 0)
(0.943505 0.0491634 0)
(0.936463 0.0387723 0)
(0.931714 0.0292456 0)
(0.928644 0.0207495 0)
(0.926604 0.0133356 0)
(0.918207 0.00691129 0)
(0.756234 0.00204417 0)
(0.943581 0.00573314 0)
(1.13367 0.0184334 0)
(1.13774 0.0307718 0)
(1.13093 0.0451409 0)
(1.12075 0.0599519 0)
(1.10679 0.0746069 0)
(1.08871 0.0879885 0)
(1.06639 0.0987424 0)
(1.04 0.10528 0)
(1.01013 0.105698 0)
(0.980749 0.0990664 0)
(0.957182 0.0876842 0)
(0.940057 0.0747398 0)
(0.927655 0.0617011 0)
(0.918763 0.0492575 0)
(0.912519 0.0377568 0)
(0.908296 0.0273639 0)
(0.90543 0.0180834 0)
(0.896529 0.0101391 0)
(0.7389 0.00301248 0)
(1.01724 0.0127978 0)
(1.18619 0.0251684 0)
(1.18317 0.0488629 0)
(1.16983 0.0685212 0)
(1.15266 0.0873243 1.72167e-33)
(1.13142 0.104422 -7.35765e-34)
(1.10603 0.11876 0)
(1.07659 0.129149 0)
(1.04343 0.134168 0)
(1.00721 0.132076 0)
(0.972626 0.122372 0)
(0.94519 0.108062 0)
(0.925018 0.092633 0)
(0.909995 0.0774045 0)
(0.898697 0.0628956 0)
(0.890155 0.0492882 0)
(0.883683 0.0366268 0)
(0.878561 0.0248597 0)
(0.866858 0.0128109 0)
(0.704268 0.00529945 0)
(1.07124 0.0399894 1.42292e-19)
(1.25028 0.0624585 -1.10771e-19)
(1.23619 0.0926836 0)
(1.21255 0.11243 7.92212e-20)
(1.18576 0.131403 -6.39978e-20)
(1.15558 0.147794 7.76273e-34)
(1.12185 0.160652 0)
(1.08456 0.168859 3.68197e-20)
(1.04398 0.171032 -1.17756e-19)
(1.00071 0.165474 2.34482e-20)
(0.959844 0.152158 0)
(0.927337 0.134807 -5.33682e-20)
(0.903058 0.117055 -6.26038e-20)
(0.884373 0.100091 1.09224e-19)
(0.869579 0.0843519 -8.53876e-20)
(0.857552 0.0700009 0)
(0.847538 0.0570923 -3.00754e-20)
(0.838845 0.0457928 0)
(0.824458 0.0344258 -1.68915e-19)
(0.670578 0.0220736 1.96113e-19)
(1.11554 0.0966606 -2.09794e-20)
(1.30177 0.143483 3.86889e-19)
(1.28106 0.158165 -3.8134e-20)
(1.24875 0.172901 -2.3218e-19)
(1.21339 0.188098 -1.35555e-19)
(1.17503 0.201296 2.18507e-19)
(1.13342 0.211326 0)
(1.08852 0.216759 0)
(1.04053 0.215992 1.87625e-19)
(0.98997 0.207199 0)
(0.942251 0.1907 1.96801e-19)
(0.904109 0.170926 5.72453e-20)
(0.875454 0.151795 9.8654e-22)
(0.853131 0.134429 -1.16891e-19)
(0.835185 0.11917 0)
(0.820391 0.106049 0)
(0.807968 0.0949207 -4.87934e-19)
(0.797267 0.0856133 1.23096e-18)
(0.781948 0.0790935 -7.29714e-19)
(0.638855 0.0557215 -8.50919e-19)
(1.14319 0.160724 -2.93911e-19)
(1.33398 0.227343 1.1066e-19)
(1.31165 0.230189 4.85988e-20)
(1.2744 0.241848 4.11694e-19)
(1.23358 0.252308 1.35448e-20)
(1.18923 0.261149 -5.77912e-19)
(1.14128 0.267259 1.88558e-19)
(1.08982 0.269033 0)
(1.03514 0.264651 -3.97562e-19)
(0.977855 0.252109 3.26237e-19)
(0.924018 0.23206 -5.27132e-19)
(0.881214 0.209642 2.42008e-19)
(0.849301 0.188973 -1.45302e-19)
(0.824696 0.170953 3.34036e-19)
(0.805213 0.155688 0)
(0.789479 0.142982 -1.16924e-19)
(0.776605 0.132495 0)
(0.765871 0.123681 6.61049e-19)
(0.750921 0.118175 -1.56708e-18)
(0.614445 0.0878813 9.6518e-19)
(1.1619 0.224904 1.07442e-18)
(1.35334 0.306 -4.87076e-19)
(1.33057 0.302098 -9.3212e-20)
(1.29036 0.311936 0)
(1.2462 0.318659 -2.89323e-19)
(1.19767 0.323675 3.50897e-19)
(1.14481 0.325984 -2.00649e-19)
(1.08783 0.323967 0)
(1.02721 0.315708 2.82665e-19)
(0.963782 0.299052 -2.31129e-19)
(0.904425 0.274982 4.4772e-19)
(0.857694 0.249379 0)
(0.823362 0.226561 -3.07725e-19)
(0.797372 0.207183 1.77594e-19)
(0.777212 0.191114 4.24595e-19)
(0.761281 0.177966 -3.72426e-19)
(0.748519 0.167261 5.93783e-19)
(0.738112 0.158272 -1.31725e-18)
(0.723618 0.152543 8.32485e-19)
(0.592565 0.116342 -1.0296e-18)
(1.17469 0.285879 -5.49834e-19)
(1.36532 0.382315 4.33884e-19)
(1.34274 0.372452 -3.01823e-19)
(1.29983 0.381429 5.08738e-19)
(1.25309 0.385046 -4.24984e-19)
(1.20124 0.386876 1.20265e-19)
(1.1443 0.38581 4.01458e-21)
(1.08256 0.380209 -3.56017e-19)
(1.01662 0.368084 -2.97284e-19)
(0.947536 0.34712 -4.8961e-19)
(0.883089 0.318592 -9.56282e-19)
(0.832905 0.289188 -2.77748e-19)
(0.796673 0.263532 3.32628e-21)
(0.769797 0.242096 -5.71588e-19)
(0.749387 0.224555 -4.02106e-21)
(0.733579 0.210357 5.28684e-19)
(0.721143 0.198897 -1.56235e-19)
(0.71118 0.189333 -9.35619e-20)
(0.697202 0.182932 0)
(0.571415 0.141278 2.11789e-18)
(1.18363 0.345305 0)
(1.37304 0.455997 -1.12192e-19)
(1.3503 0.44152 -9.7235e-20)
(1.30494 0.449768 -1.18094e-20)
(1.25598 0.450685 4.44428e-19)
(1.20119 0.44982 -2.64167e-19)
(1.14066 0.445787 2.25423e-19)
(1.07464 0.436901 5.75482e-19)
(1.00378 0.421063 -1.59865e-19)
(0.92934 0.395735 2.56298e-19)
(0.859988 0.362393 5.10623e-19)
(0.806547 0.328585 5.96194e-19)
(0.768673 0.299405 -3.44363e-19)
(0.741196 0.275252 6.08323e-19)
(0.720801 0.255655 -4.74329e-19)
(0.70534 0.239908 0)
(0.693408 0.227279 -1.16685e-18)
(0.684014 0.216844 1.57391e-18)
(0.67066 0.209477 1.16116e-19)
(0.550237 0.162875 -2.17102e-18)
(1.19013 0.403664 -2.25087e-20)
(1.37768 0.526193 6.78512e-19)
(1.35434 0.509205 7.25924e-19)
(1.30696 0.51637 -7.02363e-19)
(1.25596 0.515089 3.25492e-19)
(1.19851 0.511943 -2.74443e-19)
(1.13468 0.505322 4.68394e-19)
(1.06469 0.493485 -1.92714e-19)
(0.98916 0.474183 -6.70917e-19)
(0.90947 0.444561 2.17249e-21)
(0.835154 0.40615 -5.42485e-19)
(0.77839 0.367373 -6.2936e-19)
(0.738934 0.333988 3.6892e-19)
(0.711011 0.30647 -2.15931e-19)
(0.690825 0.284259 5.0196e-19)
(0.675904 0.266509 0)
(0.664649 0.252347 -7.03432e-19)
(0.655957 0.240783 1.03588e-18)
(0.643367 0.23221 1.97597e-18)
(0.528541 0.181229 -2.28133e-18)
(1.19504 0.460239 9.94223e-19)
(1.37979 0.593194 -5.71674e-19)
(1.35594 0.574973 -6.47266e-19)
(1.30677 0.580922 7.44929e-19)
(1.25384 0.57791 9.74502e-21)
(1.19391 0.572846 -5.70331e-19)
(1.12701 0.564 -2.56029e-19)
(1.05326 0.549576 -2.17871e-19)
(0.973204 0.527137 -3.62744e-19)
(0.888232 0.493425 5.79386e-19)
(0.808685 0.449814 5.7128e-19)
(0.748279 0.405548 1.00593e-18)
(0.70712 0.367257 0)
(0.678811 0.335695 -1.56942e-21)
(0.658994 0.310302 -1.32512e-18)
(0.644806 0.2901 3.06657e-19)
(0.634418 0.274064 1.4753e-18)
(0.626584 0.261122 -4.33174e-19)
(0.614935 0.251128 9.11115e-19)
(0.506027 0.196383 -7.11386e-20)
(1.19878 0.514498 2.7453e-20)
(1.38004 0.65759 -4.54005e-19)
(1.35596 0.638457 -4.45768e-19)
(1.30499 0.643337 1.14173e-18)
(1.25021 0.638927 -9.98745e-19)
(1.18796 0.632246 5.96124e-19)
(1.11818 0.621519 2.70065e-19)
(1.04085 0.604889 6.81734e-19)
(0.956357 0.579719 7.63074e-19)
(0.865982 0.54226 -6.32459e-19)
(0.780753 0.493478 0)
(0.71613 0.443263 -3.58588e-19)
(0.672945 0.399317 4.11682e-19)
(0.644215 0.362952 4.78713e-19)
(0.624916 0.333747 -2.76604e-19)
(0.611681 0.31062 -6.53859e-19)
(0.602384 0.292362 -1.90209e-19)
(0.595602 0.277793 6.03876e-21)
(0.585106 0.266182 0)
(0.48253 0.208358 0)
(1.20153 0.566409 3.61128e-19)
(1.37902 0.719683 0)
(1.35487 0.699579 -4.56775e-19)
(1.3021 0.703588 1.70928e-19)
(1.24555 0.69799 1.0695e-18)
(1.18111 0.68994 -2.85246e-19)
(1.10863 0.677644 2.81891e-19)
(1.0279 0.659198 -4.76711e-19)
(0.939055 0.631772 5.97636e-19)
(0.843115 0.591062 -1.80533e-19)
(0.751611 0.537334 3.23502e-19)
(0.681927 0.480807 1.14162e-18)
(0.636143 0.430388 -1.04699e-21)
(0.60685 0.388323 -5.05272e-19)
(0.588231 0.35457 8.72625e-19)
(0.576234 0.327991 -2.13464e-21)
(0.56832 0.307157 2.03491e-19)
(0.562848 0.290713 -9.40973e-19)
(0.553763 0.277324 9.8444e-19)
(0.458017 0.217174 -1.13667e-18)
(1.20344 0.616171 3.34741e-22)
(1.37708 0.779498 0)
(1.35295 0.758354 0)
(1.29838 0.76163 -1.97353e-19)
(1.24018 0.754981 -3.69558e-19)
(1.17371 0.74576 3.20795e-19)
(1.09872 0.732173 -5.7982e-19)
(1.01478 0.712302 0)
(0.921712 0.683152 -8.62416e-19)
(0.820057 0.639846 9.06772e-19)
(0.721591 0.581642 8.85583e-19)
(0.645721 0.518591 -4.09857e-19)
(0.596437 0.4608 -4.60654e-19)
(0.566275 0.411907 1.05903e-18)
(0.548542 0.372671 -3.08894e-19)
(0.538204 0.342029 -3.59724e-19)
(0.532102 0.318264 -2.02634e-19)
(0.528296 0.299731 -9.66105e-19)
(0.520961 0.284431 1.45589e-19)
(0.432615 0.222866 1.15957e-18)
(1.20464 0.663957 1.25234e-19)
(1.37445 0.836979 2.60377e-19)
(1.35036 0.814788 2.54473e-20)
(1.29408 0.817403 1.26535e-21)
(1.23435 0.809798 -2.20127e-19)
(1.16602 0.799563 6.44011e-19)
(1.08874 0.78493 0)
(1.00184 0.76401 2.75924e-19)
(0.904714 0.733709 -2.17557e-19)
(0.797254 0.688613 1.53959e-18)
(0.69111 0.626693 -1.87936e-19)
(0.607654 0.557161 2.16074e-19)
(0.553526 0.491043 0)
(0.521906 0.433839 -5.62212e-19)
(0.505318 0.387829 6.24163e-19)
(0.497323 0.352356 0)
(0.493724 0.325334 -4.22706e-19)
(0.492104 0.304599 1.25208e-18)
(0.486949 0.287415 1.41513e-19)
(0.407063 0.225676 -1.34967e-18)
(1.2052 0.709842 2.58888e-19)
(1.37121 0.892057 -3.46418e-19)
(1.34721 0.868867 0)
(1.28932 0.870841 -4.22692e-19)
(1.22821 0.862345 0)
(1.15822 0.851219 -7.15093e-19)
(1.0789 0.835748 0)
(0.989323 0.814134 0)
(0.888403 0.783271 -2.51655e-19)
(0.775159 0.737321 -1.45034e-18)
(0.660673 0.672774 -1.6215e-18)
(0.567994 0.597187 2.30526e-19)
(0.507106 0.521831 7.84854e-19)
(0.472927 0.454335 5.74082e-19)
(0.457757 0.399598 -1.98244e-18)
(0.453276 0.358204 -7.35275e-19)
(0.453431 0.32772 4.39208e-19)
(0.454874 0.305042 0)
(0.452378 0.286534 1.15751e-18)
(0.38275 0.226462 -1.34332e-18)
(1.20519 0.753815 -2.56825e-19)
(1.36744 0.944718 3.51492e-19)
(1.34361 0.920554 0)
(1.28422 0.921898 -9.33795e-21)
(1.22189 0.912551 1.86067e-19)
(1.15046 0.900625 0)
(1.06937 0.884489 1.74558e-19)
(0.977441 0.86249 1.7016e-19)
(0.873064 0.831637 -5.11165e-19)
(0.754203 0.785859 2.09447e-19)
(0.630863 0.720121 0)
(0.527183 0.639455 1.00574e-18)
(0.456914 0.554209 3.51203e-21)
(0.41819 0.473843 2.99413e-19)
(0.404488 0.407207 3.41379e-19)
(0.405502 0.357949 0)
(0.41191 0.323874 -6.14463e-19)
(0.418281 0.300358 1.2123e-18)
(0.419289 0.282057 -1.28027e-18)
(0.360361 0.226057 2.59566e-18)
(1.20458 0.795942 0)
(1.36323 0.994972 0)
(1.33958 0.969852 2.22139e-19)
(1.27885 0.970544 0)
(1.21548 0.960362 0)
(1.14283 0.947698 -7.4903e-19)
(1.06026 0.931032 1.83146e-19)
(0.966342 0.908911 1.76105e-20)
(0.858929 0.878591 -1.28541e-19)
(0.734795 0.834044 0)
(0.602342 0.768867 -2.36098e-19)
(0.485892 0.684821 -8.08e-19)
(0.402856 0.589665 -9.12483e-19)
(0.356186 0.493377 -3.3802e-19)
(0.343143 0.409676 3.33756e-19)
(0.352716 0.348539 -7.50217e-19)
(0.370549 0.310269 1.17208e-18)
(0.386596 0.288522 -7.50877e-20)
(0.393289 0.274151 -1.06115e-18)
(0.343054 0.225647 -1.31874e-19)
(1.20348 0.836203 0)
(1.35854 1.04271 2.59605e-19)
(1.33519 1.01672 -2.28076e-19)
(1.27326 1.01672 0)
(1.20902 1.00572 0)
(1.13538 0.992362 1.57716e-18)
(1.05162 0.975269 0)
(0.956084 0.95323 0)
(0.846112 0.923881 -1.14598e-18)
(0.717228 0.881577 2.58565e-19)
(0.575777 0.818971 -2.25257e-18)
(0.445057 0.734106 0)
(0.345172 0.630176 -1.00745e-18)
(0.285026 0.514916 -3.401e-20)
(0.269634 0.406143 -1.10478e-18)
(0.291378 0.324317 3.84027e-19)
(0.330371 0.278089 -5.0139e-20)
(0.36611 0.262191 -1.02123e-18)
(0.381079 0.257594 4.46825e-19)
(0.338291 0.226782 1.41694e-19)
(1.20205 0.874362 0)
(1.35341 1.08805 2.25413e-19)
(1.33053 1.06119 -2.37144e-19)
(1.26749 1.06051 -6.83493e-19)
(1.2026 1.0487 -2.25916e-19)
(1.12819 1.03468 1.91349e-19)
(1.04353 1.01722 -1.7471e-19)
(0.946775 0.995408 1.35608e-18)
(0.834781 0.967361 1.22598e-18)
(0.701844 0.92818 2.11453e-18)
(0.55191 0.870226 1.87616e-18)
(0.405945 0.788011 3.11077e-19)
(0.284802 0.678372 1.4136e-18)
(0.202994 0.542368 7.75748e-19)
(0.177965 0.397932 7.699e-19)
(0.214742 0.278812 -3.36236e-19)
(0.299073 0.21651 -2.84003e-19)
(0.384511 0.222681 3.32228e-19)
(0.421008 0.251406 -9.33403e-20)
(0.393304 0.255724 2.94955e-19)
(1.19988 0.910605 -1.90855e-19)
(1.34809 1.13113 -3.66887e-19)
(1.32555 1.10321 -1.15256e-19)
(1.26155 1.10181 2.65309e-20)
(1.19617 1.08914 6.93658e-19)
(1.12116 1.07445 -4.49125e-19)
(1.03587 1.05665 1.81346e-19)
(0.938261 1.03514 -2.86694e-20)
(0.824772 1.00861 -1.44579e-18)
(0.688582 0.973233 -2.27675e-18)
(0.531208 0.921986 1.37947e-19)
(0.369975 0.846629 0)
(0.223398 0.736606 0)
(0.108486 0.580369 -4.46967e-19)
(0.0575067 0.38573 -1.27644e-18)
(0.104011 0.188591 6.75522e-19)
(0.252353 0.0562537 1.42163e-19)
(0.390113 0.0587073 0)
(0.44814 0.118846 1.81711e-19)
(0.426674 0.213852 -3.94059e-20)
(1.197 0.946135 1.18118e-19)
(1.34273 1.1715 -9.1556e-20)
(1.3202 1.14294 2.33219e-19)
(1.25558 1.14075 3.46893e-19)
(1.18984 1.12728 2.25576e-19)
(1.11446 1.11197 -1.29877e-19)
(1.0288 1.0939 0)
(0.930705 1.07278 -1.72116e-18)
(0.816281 1.04793 1.7859e-19)
(0.677759 1.01683 0)
(0.514326 0.973968 0)
(0.338871 0.910301 1.86358e-19)
(0.163996 0.809657 2.04373e-19)
(0.00290603 0.643205 -4.83816e-19)
(-0.0996285 0.39161 8.87653e-19)
(-0.0753431 0.0837039 -6.08242e-19)
(0.195218 -0.0569364 -1.09418e-19)
(0.606825 0.148882 -3.29555e-19)
(0.795523 0.308798 2.82569e-19)
(0.9204 0.616516 -1.50201e-19)
(1.1938 0.979132 -7.42713e-20)
(1.33714 1.2093 0)
(1.31467 1.18044 0)
(1.24957 1.17742 1.27915e-19)
(1.18354 1.16311 -1.03361e-19)
(1.10792 1.14713 -3.19666e-20)
(1.02211 1.12871 7.24504e-19)
(0.923822 1.10791 1.85646e-18)
(0.808978 1.08467 2.68084e-18)
(0.669072 1.0579 -1.66072e-19)
(0.501429 1.02432 3.25441e-19)
(0.31458 0.975721 -1.78333e-18)
(0.113157 0.892006 -1.66836e-18)
(-0.100988 0.722865 -2.6947e-19)
(-0.315735 0.396743 0)
(-0.458577 -0.040836 3.83157e-19)
(-0.321237 -0.180011 -1.17834e-19)
(0.0235153 -0.00465851 1.19484e-18)
(0.343808 0.248206 -8.21498e-19)
(0.45217 0.523629 -7.99041e-19)
(1.19035 1.01008 1.42321e-19)
(1.33109 1.24485 7.30284e-20)
(1.30889 1.21576 1.15063e-20)
(1.24334 1.21196 -9.85233e-20)
(1.17708 1.1969 0)
(1.10141 1.18035 -9.13054e-19)
(1.01561 1.16168 -9.75261e-19)
(0.917418 1.14131 5.38218e-20)
(0.80261 1.11986 -1.42298e-18)
(0.662207 1.09782 -1.64168e-19)
(0.492182 1.07515 1.52359e-19)
(0.296165 1.04809 1.56154e-18)
(0.0625316 1.00833 1.62035e-18)
(-0.260089 0.943548 2.71159e-19)
(-0.726307 0.842968 1.14654e-18)
(-1.13378 0.881539 0)
(-1.20164 1.57821 0)
(-0.927328 2.41508 -9.52258e-19)
(-0.555867 2.56349 2.85629e-19)
(-0.512237 2.85246 4.30957e-19)
(1.1867 1.03927 -6.73449e-20)
(1.32479 1.27866 -3.07419e-19)
(1.30316 1.24935 6.18235e-19)
(1.23713 1.24495 -5.30246e-19)
(1.17077 1.22932 1.27381e-19)
(1.09518 1.21238 -9.87689e-19)
(1.00958 1.19368 0)
(0.911759 1.17399 -1.6042e-18)
(0.797512 1.15464 0)
(0.657748 1.13782 2.48705e-18)
(0.488066 1.12691 -1.69174e-19)
(0.291995 1.12291 1.89509e-19)
(0.0645965 1.12572 1.8666e-18)
(-0.210369 1.14412 -5.19163e-19)
(-0.536843 1.20687 -5.59014e-19)
(-0.904294 1.39137 0)
(-1.18934 1.84182 0)
(-1.0039 2.56031 0)
(-0.587611 2.94765 3.61448e-19)
(-0.396879 3.06425 1.33123e-19)
(1.18283 1.06671 0)
(1.31843 1.31077 0)
(1.29749 1.28122 -2.07047e-19)
(1.23087 1.27628 4.58193e-19)
(1.16453 1.26016 -4.47449e-19)
(1.08911 1.24293 9.27089e-19)
(1.00384 1.22431 1.17291e-19)
(0.906644 1.20542 -9.13155e-20)
(0.793456 1.18826 1.91329e-19)
(0.655436 1.1767 -2.85691e-18)
(0.48869 1.17731 3.22428e-19)
(0.298033 1.19517 1.56283e-18)
(0.0809439 1.23474 -1.87749e-18)
(-0.176998 1.30987 -1.85757e-18)
(-0.476675 1.44373 6.07321e-19)
(-0.770231 1.69437 0)
(-0.970221 2.15606 4.42283e-19)
(-0.904405 2.61663 1.45209e-19)
(-0.608418 2.83069 -1.63244e-19)
(-0.513327 2.90778 3.76487e-20)
(1.17842 1.09215 0)
(1.31183 1.34083 -1.41255e-19)
(1.29159 1.31106 5.63391e-20)
(1.22439 1.30571 -4.63005e-19)
(1.15822 1.28925 4.69699e-19)
(1.08306 1.27189 0)
(0.998248 1.25352 0)
(0.901897 1.23549 0)
(0.790203 1.22049 1.23321e-18)
(0.654921 1.2139 1.46405e-19)
(0.493486 1.22514 0)
(0.313062 1.2624 -1.56883e-18)
(0.115098 1.33214 0)
(-0.105914 1.44908 1.32536e-18)
(-0.335029 1.62737 -8.76497e-19)
(-0.520231 1.86977 -6.97358e-19)
(-0.635218 2.23267 -1.10344e-18)
(-0.614101 2.55707 -4.52105e-19)
(-0.4418 2.67869 -4.17802e-19)
(-0.369744 2.74296 3.18027e-19)
(1.17397 1.11621 7.49498e-21)
(1.30548 1.36929 2.71814e-20)
(1.28577 1.33941 5.39032e-20)
(1.21801 1.3338 3.95465e-19)
(1.15208 1.31708 0)
(1.07715 1.29967 0)
(0.992849 1.28153 0)
(0.897495 1.26431 1.08525e-19)
(0.787664 1.25126 -1.5443e-18)
(0.656008 1.24914 0)
(0.501886 1.26971 0)
(0.335304 1.32298 0)
(0.161486 1.41459 0)
(-0.0192551 1.55489 9.73988e-19)
(-0.188634 1.74959 2.16786e-18)
(-0.298691 1.97486 5.70222e-19)
(-0.354026 2.25022 8.91921e-19)
(-0.359575 2.49502 -6.59438e-19)
(-0.292083 2.58604 1.64456e-19)
(-0.267256 2.64307 0)
(1.16908 1.13964 1.28988e-21)
(1.2991 1.39709 2.13391e-19)
(1.27956 1.36712 9.25694e-20)
(1.21132 1.36121 3.82524e-20)
(1.14568 1.34414 -1.20249e-19)
(1.07106 1.32663 1.05961e-18)
(0.987446 1.30867 -9.3387e-20)
(0.893367 1.29217 -1.53534e-18)
(0.785858 1.28092 0)
(0.658681 1.28279 -1.61572e-19)
(0.513368 1.31111 1.46876e-19)
(0.36279 1.3767 0)
(0.21466 1.48368 0)
(0.071087 1.63851 -1.1999e-18)
(-0.0536979 1.84104 1.71426e-19)
(-0.123577 2.05229 -4.42545e-19)
(-0.167104 2.25627 9.25798e-19)
(-0.227056 2.43736 4.78384e-19)
(-0.210442 2.52002 -6.89063e-19)
(-0.185053 2.59359 2.99404e-19)
(1.1629 1.16336 2.80613e-20)
(1.29185 1.42528 -1.46996e-19)
(1.27221 1.39516 -1.322e-19)
(1.2039 1.38891 0)
(1.13875 1.37142 0)
(1.06465 1.35374 -8.07407e-19)
(0.981954 1.33589 7.59909e-19)
(0.88941 1.31997 1.38566e-18)
(0.784605 1.31019 7.58872e-20)
(0.662579 1.31525 2.29342e-18)
(0.527259 1.34942 -2.32775e-18)
(0.394245 1.4234 0)
(0.27292 1.53836 0)
(0.166088 1.69447 -8.44447e-19)
(0.0839937 1.88379 -9.51753e-19)
(0.0568088 2.06807 0)
(0.0521812 2.25086 -1.05225e-18)
(0.00151421 2.44867 3.39383e-20)
(-0.00656626 2.54614 4.85541e-19)
(0.0194905 2.61507 -1.39224e-19)
(1.15583 1.18901 -7.05761e-20)
(1.28412 1.45542 5.63479e-20)
(1.26411 1.42499 0)
(1.19602 1.41821 0)
(1.13135 1.4001 0)
(1.0578 1.38201 0)
(0.97606 1.36391 -8.29713e-19)
(0.885176 1.34811 1.41728e-18)
(0.783355 1.33913 0)
(0.667044 1.34621 -2.09893e-18)
(0.54264 1.38409 4.22431e-18)
(0.427809 1.46293 1.61689e-19)
(0.331759 1.58173 1.817e-19)
(0.254177 1.73963 1.41123e-18)
(0.196032 1.9347 -7.72719e-19)
(0.17592 2.13439 0)
(0.169085 2.3263 3.35057e-19)
(0.0983008 2.50218 7.52713e-20)
(0.0294483 2.57995 8.58454e-20)
(-0.0919254 2.62884 -1.75142e-20)
(1.14726 1.21668 4.15123e-20)
(1.2756 1.48771 -1.65154e-21)
(1.25463 1.45695 0)
(1.18696 1.44905 7.36006e-20)
(1.12275 1.42996 -3.3931e-19)
(1.04984 1.41104 0)
(0.969238 1.39225 0)
(0.880308 1.37607 -2.5421e-18)
(0.781885 1.36721 -1.57127e-19)
(0.671873 1.37517 2.17953e-18)
(0.559132 1.41481 -2.03837e-18)
(0.462887 1.49534 1.07147e-18)
(0.392273 1.61335 0)
(0.346963 1.76565 -7.75232e-19)
(0.325599 1.95165 4.52612e-19)
(0.343696 2.12834 3.6868e-19)
(0.36731 2.27629 0)
(0.291028 2.48529 2.97057e-20)
(0.217767 2.68805 -3.17534e-19)
(0.234944 2.7793 -6.10445e-20)
(1.1365 1.24612 -1.13241e-19)