/*--------------------------------*- C++ -*----------------------------------*\
  =========                 |
  \\      /  F ield         | OpenFOAM: The Open Source CFD Toolbox
   \\    /   O peration     | Website:  https://openfoam.org
    \\  /    A nd           | Version:  9
     \\/     M anipulation  |
\*---------------------------------------------------------------------------*/
FoamFile
{
    format      ascii;
    class       volScalarField;
    location    "27";
    object      p;
}
// * * * * * * * * * * * * * * * * * * * * * * * * * * * * * * * * * * * * * //

dimensions      [0 2 -2 0 0 0 0];

internalField   nonuniform List<scalar> 
2200
(
0.493551
0.472052
0.456143
0.440474
0.425865
0.413339
0.402977
0.394861
0.389131
0.386072
0.386431
0.390091
0.396278
0.404713
0.415303
0.428006
0.44273
0.458521
0.474497
0.49601
0.425995
0.422737
0.419814
0.415695
0.410227
0.403749
0.397114
0.391123
0.386571
0.384094
0.384433
0.387566
0.392603
0.398954
0.405846
0.412497
0.418116
0.422265
0.425175
0.428483
0.386091
0.386313
0.388369
0.389707
0.390096
0.38924
0.387237
0.384522
0.381891
0.380306
0.38069
0.382981
0.386133
0.389234
0.391496
0.392485
0.392178
0.391096
0.389304
0.38906
0.363582
0.365033
0.367637
0.370099
0.372553
0.374568
0.375729
0.375963
0.375546
0.375116
0.37558
0.376785
0.377795
0.378006
0.377195
0.375449
0.373192
0.370869
0.368252
0.366835
0.349313
0.351277
0.354113
0.356972
0.359828
0.362646
0.36509
0.366906
0.368084
0.368743
0.36928
0.369533
0.369071
0.3678
0.365766
0.363262
0.360617
0.357825
0.355012
0.353086
0.342166
0.343767
0.345971
0.348494
0.351141
0.353781
0.356293
0.358619
0.360514
0.361815
0.362442
0.362243
0.361207
0.359519
0.35747
0.35518
0.352776
0.350393
0.348265
0.346682
0.338789
0.339804
0.341089
0.342992
0.345168
0.347331
0.349465
0.35167
0.35376
0.355407
0.356169
0.355878
0.354824
0.353376
0.351799
0.350036
0.348165
0.346462
0.345278
0.344272
0.336276
0.336913
0.33759
0.338975
0.340672
0.342402
0.344143
0.345997
0.34791
0.349657
0.350573
0.350471
0.349815
0.348915
0.347854
0.346656
0.345351
0.344227
0.343671
0.343029
0.333563
0.333992
0.334444
0.335521
0.336862
0.338289
0.339763
0.341316
0.342942
0.344564
0.345685
0.346072
0.345975
0.345599
0.344993
0.344196
0.343295
0.342525
0.342215
0.341779
0.329992
0.330277
0.330698
0.331729
0.333027
0.334464
0.335984
0.337528
0.339082
0.340666
0.342081
0.342994
0.343351
0.34323
0.342771
0.342077
0.341338
0.340677
0.340408
0.340116
0.325677
0.325823
0.326248
0.327319
0.32871
0.330328
0.332142
0.334044
0.335962
0.337849
0.339608
0.340783
0.341236
0.341107
0.340585
0.339913
0.339197
0.338555
0.338295
0.338146
0.321277
0.321323
0.321731
0.322744
0.3241
0.325748
0.327679
0.329864
0.332266
0.334739
0.336879
0.33819
0.338675
0.338657
0.338326
0.337852
0.337285
0.336798
0.336603
0.336543
0.316994
0.316978
0.317383
0.318234
0.319467
0.320988
0.322782
0.324924
0.327527
0.330451
0.333121
0.334981
0.336047
0.3366
0.33675
0.33661
0.336343
0.336092
0.335968
0.335949
0.312773
0.312655
0.31307
0.313793
0.315008
0.316506
0.318272
0.320446
0.32314
0.326396
0.329729
0.332414
0.334299
0.335469
0.33608
0.336322
0.336377
0.336343
0.33629
0.336275
0.308311
0.308265
0.308574
0.309341
0.31063
0.312276
0.314327
0.316883
0.320023
0.323853
0.327925
0.331289
0.333665
0.335227
0.336255
0.336851
0.337146
0.337261
0.337282
0.337272
0.303316
0.303313
0.303592
0.304373
0.305765
0.307583
0.309979
0.313101
0.31701
0.321795
0.32685
0.330967
0.333855
0.335857
0.337273
0.33816
0.338664
0.338942
0.33904
0.339028
0.297399
0.297359
0.297716
0.298528
0.299892
0.301834
0.304519
0.308141
0.312864
0.318809
0.325167
0.330435
0.334222
0.336955
0.338901
0.340201
0.341025
0.341501
0.341665
0.341631
0.289993
0.289933
0.290318
0.291265
0.292819
0.295035
0.298136
0.302379
0.308033
0.315286
0.323225
0.329925
0.334896
0.338513
0.341109
0.342912
0.344111
0.344793
0.345034
0.34498
0.281073
0.281002
0.281434
0.28255
0.284462
0.287238
0.291116
0.296391
0.303373
0.312283
0.322043
0.330298
0.336473
0.340975
0.344242
0.346532
0.348077
0.348931
0.349228
0.349153
0.270263
0.270209
0.270792
0.272218
0.274639
0.278174
0.283117
0.289806
0.298619
0.309706
0.321627
0.331673
0.339127
0.344597
0.348515
0.351256
0.353091
0.35409
0.354458
0.354372
0.257025
0.256933
0.257673
0.259506
0.262632
0.267178
0.273487
0.282032
0.293159
0.306945
0.321516
0.333713
0.342709
0.349299
0.354004
0.357331
0.35955
0.360747
0.361175
0.361059
0.240349
0.240293
0.241327
0.243746
0.247822
0.253751
0.261983
0.272934
0.28695
0.303999
0.32172
0.336411
0.347233
0.35517
0.360892
0.364919
0.367557
0.368974
0.369482
0.369337
0.219487
0.219364
0.220786
0.224069
0.229579
0.237597
0.248454
0.262621
0.280284
0.301219
0.322576
0.340125
0.353046
0.362492
0.369312
0.374145
0.377343
0.37906
0.379649
0.379446
0.192012
0.192154
0.194461
0.199256
0.207078
0.218159
0.232782
0.25122
0.273374
0.298904
0.324409
0.345089
0.360253
0.37138
0.379482
0.385241
0.389034
0.391034
0.391698
0.391459
0.155503
0.155908
0.159743
0.167461
0.179175
0.195114
0.214994
0.238801
0.266385
0.29723
0.327291
0.35136
0.368964
0.381909
0.391406
0.398248
0.40281
0.405232
0.405988
0.405622
0.106705
0.107253
0.114625
0.127537
0.145638
0.168547
0.195183
0.225624
0.259555
0.296282
0.331232
0.358869
0.379054
0.393961
0.405025
0.413103
0.418533
0.421277
0.421998
0.421553
0.0410722
0.0441066
0.0599733
0.0818519
0.108727
0.139758
0.174267
0.212241
0.253258
0.29662
0.337199
0.369145
0.392662
0.410276
0.423541
0.433516
0.440507
0.443829
0.444494
0.444226
-0.0346758
-0.0242393
0.00260113
0.0343128
0.0709157
0.110844
0.153463
0.199229
0.247606
0.298022
0.344844
0.381826
0.409441
0.430471
0.446682
0.459063
0.468366
0.472987
0.474213
0.474523
-0.101115
-0.0850794
-0.0515575
-0.0116095
0.0341075
0.0826168
0.133354
0.186845
0.242475
0.29979
0.352652
0.394385
0.425464
0.449287
0.467752
0.482004
0.492367
0.498331
0.500265
0.500272
-0.15071
-0.136592
-0.097854
-0.0521251
0.00061039
0.0562281
0.114281
0.174982
0.237546
0.301499
0.359929
0.405711
0.439599
0.465537
0.485763
0.501361
0.512334
0.518401
0.520328
0.520469
-0.191527
-0.178377
-0.136367
-0.0868412
-0.0288682
0.0323914
0.096674
0.163762
0.232606
0.302523
0.365947
0.415173
0.451465
0.478818
0.499625
0.515515
0.526978
0.533287
0.535505
0.535689
-0.226773
-0.213343
-0.169043
-0.116738
-0.0547567
0.0110459
0.0805153
0.153011
0.22731
0.302572
0.370611
0.423028
0.460985
0.489034
0.510455
0.526775
0.5384
0.545076
0.547474
0.547654
-0.257597
-0.244059
-0.197829
-0.143196
-0.0778913
-0.00830524
0.0654869
0.142573
0.221734
0.302012
0.374164
0.428998
0.468183
0.497245
0.519025
0.535451
0.547564
0.554396
0.557016
0.557165
-0.285418
-0.27184
-0.22396
-0.167153
-0.0989577
-0.0262096
0.0512383
0.132352
0.215896
0.300649
0.376494
0.433715
0.474551
0.504248
0.526475
0.543194
0.55512
0.562284
0.564626
0.564487
-0.310879
-0.297361
-0.248201
-0.189268
-0.118467
-0.0430516
0.0375234
0.122167
0.20958
0.298245
0.377714
0.437676
0.480032
0.510705
0.533381
0.550249
0.562051
0.568927
0.571406
0.571311
-0.334902
-0.321088
-0.270978
-0.210036
-0.136869
-0.0591341
0.0241314
0.111831
0.202685
0.295178
0.378638
0.441535
0.485404
0.517016
0.540054
0.556879
0.568695
0.575467
0.577948
0.577971
-0.357489
-0.343521
-0.292636
-0.229867
-0.154658
-0.0747938
0.0108847
0.101295
0.195318
0.291604
0.378834
0.444653
0.490747
0.523383
0.546745
0.563666
0.575487
0.582056
0.584612
0.584632
-0.378846
-0.364911
-0.313385
-0.249072
-0.172124
-0.0902716
-0.0023528
0.0905258
0.187445
0.287146
0.37825
0.447548
0.495887
0.52956
0.553614
0.570717
0.582556
0.589071
0.591426
0.591439
-0.399422
-0.385283
-0.333376
-0.267834
-0.189443
-0.105744
-0.0157153
0.0794612
0.179118
0.282286
0.377517
0.450153
0.500681
0.5361
0.560844
0.578129
0.589844
0.596075
0.598384
0.598335
-0.4197
-0.40497
-0.352751
-0.286179
-0.206597
-0.121246
-0.0292711
0.0680951
0.170294
0.276524
0.375019
0.451211
0.505209
0.542839
0.568572
0.585979
0.59738
0.603406
0.605383
0.605225
-0.439663
-0.424136
-0.371608
-0.304097
-0.223527
-0.136752
-0.0430408
0.05628
0.160676
0.269494
0.371719
0.452126
0.509511
0.549726
0.577022
0.594664
0.605407
0.610557
0.612224
0.611973
-0.459194
-0.442917
-0.389969
-0.321542
-0.24013
-0.152187
-0.0570389
0.0439553
0.150389
0.261845
0.367521
0.451525
0.513092
0.556805
0.586339
0.604533
0.61413
0.61804
0.618764
0.618482
-0.478091
-0.461275
-0.407834
-0.338499
-0.256333
-0.167452
-0.0711357
0.0313351
0.139543
0.253151
0.361344
0.44969
0.515786
0.563725
0.596602
0.616398
0.624951
0.624989
0.624214
0.62469
-0.496345
-0.479131
-0.425159
-0.354956
-0.272093
-0.182433
-0.0851851
0.0184195
0.128044
0.243415
0.354496
0.447029
0.517374
0.570246
0.607688
0.630543
0.639465
0.635148
0.629852
0.62757
-0.513912
-0.496386
-0.441903
-0.370903
-0.287387
-0.197076
-0.0991162
0.00536367
0.116227
0.233331
0.346734
0.441846
0.516827
0.575668
0.619217
0.647461
0.660929
0.651077
0.646242
0.650986
-0.530812
-0.512976
-0.458006
-0.386312
-0.302211
-0.211338
-0.112783
-0.00758084
0.104245
0.222791
0.337713
0.435357
0.514542
0.57883
0.629592
0.665946
0.688436
0.668933
0.624438
0.580637
-0.546979
-0.528909
-0.473508
-0.401258
-0.316679
-0.225349
-0.126343
-0.0206339
0.0918908
0.21132
0.32729
0.426712
0.508832
0.578714
0.637383
0.684855
0.722678
0.729949
0.749004
0.800031
-0.562378
-0.544239
-0.488489
-0.415862
-0.330975
-0.239361
-0.140097
-0.0341376
0.0786633
0.19838
0.315124
0.415482
0.499254
0.572679
0.634961
0.684448
0.71511
0.715967
0.686792
0.695338
-0.576974
-0.558935
-0.502907
-0.430066
-0.345013
-0.253281
-0.153952
-0.0480151
0.0646452
0.184328
0.301121
0.401004
0.484049
0.556739
0.617572
0.66253
0.665945
0.625159
0.568328
0.558939
-0.590792
-0.572995
-0.516758
-0.443857
-0.358782
-0.267122
-0.167932
-0.0622835
0.0499085
0.168923
0.284831
0.383334
0.463425
0.530005
0.583504
0.601675
0.572866
0.503728
0.43285
0.41946
-0.603865
-0.586415
-0.53006
-0.457257
-0.372297
-0.28089
-0.182037
-0.0769228
0.0344363
0.15228
0.266739
0.362762
0.436542
0.49014
0.519452
0.511317
0.463413
0.364362
0.278431
0.261001
-0.61665
-0.59961
-0.543208
-0.470629
-0.3859
-0.294886
-0.196534
-0.0921622
0.0180896
0.134291
0.246259
0.338214
0.405632
0.443053
0.437897
0.404255
0.300243
0.179259
0.0727076
0.0493135
-0.630033
-0.613352
-0.556898
-0.4846
-0.400164
-0.309575
-0.211804
-0.108297
0.000625861
0.11461
0.223448
0.310347
0.369972
0.384756
0.347394
0.262273
0.105488
-0.04715
-0.174839
-0.199912
-0.644517
-0.628075
-0.571442
-0.499395
-0.415258
-0.325067
-0.22791
-0.125361
-0.01796
0.0934729
0.198277
0.279462
0.327012
0.31593
0.256283
0.10587
-0.0993369
-0.316169
-0.498509
-0.544668
-0.660176
-0.643822
-0.586893
-0.51504
-0.43116
-0.341323
-0.244792
-0.143292
-0.0375437
0.0709684
0.170576
0.246553
0.278958
0.234996
0.141586
-0.0544123
-0.296691
-0.596727
-0.927627
-1.07056
-0.677068
-0.66073
-0.603344
-0.531596
-0.4479
-0.358388
-0.262503
-0.162117
-0.0581968
0.0470756
0.140866
0.210484
0.226799
0.149725
0.00497918
-0.215313
-0.465443
-0.827979
-1.43618
-2.01925
-0.695205
-0.678798
-0.620848
-0.549121
-0.465501
-0.376257
-0.280997
-0.181787
-0.0797715
0.0222856
0.110364
0.172266
0.171394
0.0722186
-0.129302
-0.383723
-0.605705
-0.865347
-1.46087
-3.05479
-0.714625
-0.698147
-0.639477
-0.567709
-0.484091
-0.395111
-0.300512
-0.202529
-0.102518
-0.00378558
0.0783006
0.130865
0.111556
0.00997348
-0.230092
-0.496506
-0.66248
-0.71987
-0.739697
-1.14442
-0.735237
-0.718762
-0.659385
-0.587658
-0.504052
-0.415414
-0.321607
-0.225057
-0.127393
-0.032614
0.0440032
0.086076
0.0492973
-0.0394435
-0.283079
-0.516383
-0.646947
-0.667701
-0.624211
-0.669608
-0.757034
-0.740563
-0.68056
-0.608994
-0.525406
-0.437235
-0.344394
-0.249477
-0.154482
-0.0640931
0.00795854
0.0407199
-0.00789483
-0.0930308
-0.320573
-0.509386
-0.606237
-0.617026
-0.662806
-0.674738
-0.779859
-0.76322
-0.702946
-0.631718
-0.548112
-0.460553
-0.36884
-0.275726
-0.183666
-0.0980325
-0.0309513
-0.00686467
-0.0580203
-0.152649
-0.353469
-0.501836
-0.586752
-0.550408
-0.577358
-0.579995
-0.803534
-0.786479
-0.726467
-0.655692
-0.571971
-0.485217
-0.394775
-0.303672
-0.214839
-0.133905
-0.0717089
-0.0575014
-0.103854
-0.223114
-0.39472
-0.501808
-0.560366
-0.591811
-0.576228
-0.583186
-0.827434
-0.810062
-0.751088
-0.680675
-0.59673
-0.511001
-0.421943
-0.332916
-0.247599
-0.171216
-0.113271
-0.110952
-0.147003
-0.288515
-0.438153
-0.518033
-0.516652
-0.578192
-0.553383
-0.561762
-0.851159
-0.83377
-0.776293
-0.706091
-0.622069
-0.53759
-0.449921
-0.363039
-0.281576
-0.209779
-0.154873
-0.163328
-0.197813
-0.344912
-0.473136
-0.556896
-0.524298
-0.55854
-0.552763
-0.554582
-0.874177
-0.857198
-0.801181
-0.731254
-0.647613
-0.56448
-0.478211
-0.393435
-0.316061
-0.248781
-0.194556
-0.213741
-0.259599
-0.394375
-0.493403
-0.560335
-0.576097
-0.559058
-0.563929
-0.557745
-0.895841
-0.87958
-0.824816
-0.755418
-0.673002
-0.591134
-0.506168
-0.423374
-0.349669
-0.287947
-0.232902
-0.26312
-0.327108
-0.440854
-0.494574
-0.532865
-0.600972
-0.551709
-0.565819
-0.557338
-0.915191
-0.899995
-0.846614
-0.777933
-0.697515
-0.61653
-0.532833
-0.452026
-0.381256
-0.325847
-0.269008
-0.307961
-0.401456
-0.505756
-0.504918
-0.418995
-0.532223
-0.502817
-0.542777
-0.542767
-0.931127
-0.917309
-0.865727
-0.798161
-0.719997
-0.639753
-0.557472
-0.478309
-0.409436
-0.360966
-0.303444
-0.341959
-0.478998
-0.585447
-0.552904
-0.434819
-0.482696
-0.511306
-0.538553
-0.549096
-0.942595
-0.930548
-0.881513
-0.815352
-0.738975
-0.659605
-0.578689
-0.50117
-0.432844
-0.390018
-0.338416
-0.363705
-0.554879
-0.753285
-0.858943
-0.873999
-0.870961
-0.853065
-0.831171
-0.81449
-0.948558
-0.938456
-0.892504
-0.828024
-0.753097
-0.674979
-0.595414
-0.519005
-0.450993
-0.409214
-0.368276
-0.37653
-0.613913
-0.979087
-1.44512
-1.70929
-1.75445
-1.70482
-1.59529
-1.50955
-0.948162
-0.939954
-0.897683
-0.835128
-0.76157
-0.684784
-0.606289
-0.530021
-0.460781
-0.415061
-0.382576
-0.37695
-0.612894
-1.00646
-1.55052
-1.86723
-1.89606
-1.77971
-1.67334
-1.60757
-0.940307
-0.933202
-0.895218
-0.835156
-0.763371
-0.687651
-0.609752
-0.533075
-0.459794
-0.404665
-0.370586
-0.345332
-0.477152
-0.618234
-0.795229
-0.862145
-0.796134
-0.700236
-0.582905
-0.485624
-0.922661
-0.915597
-0.88364
-0.827402
-0.757883
-0.683189
-0.605285
-0.526824
-0.447112
-0.37602
-0.322802
-0.229636
-0.163344
0.0498223
0.270517
0.466528
0.647853
0.769627
0.83493
0.866705
-0.890678
-0.884075
-0.861224
-0.811445
-0.74489
-0.6712
-0.592764
-0.511383
-0.424047
-0.332313
-0.25009
-0.0964039
0.135411
0.530185
0.947273
1.28831
1.52894
1.67249
1.73737
1.75914
-0.843974
-0.839249
-0.829963
-0.788273
-0.725425
-0.652646
-0.573836
-0.489971
-0.398112
-0.288832
-0.180327
-0.040016
0.268416
0.670756
1.0864
1.44034
1.70304
1.86107
1.9302
1.9479
-0.802706
-0.801782
-0.797766
-0.761369
-0.702612
-0.631362
-0.552079
-0.467177
-0.375664
-0.262937
-0.148085
-0.0542853
0.202166
0.535546
0.870667
1.15743
1.38388
1.5245
1.59126
1.6126
-0.770727
-0.773056
-0.765743
-0.73444
-0.677276
-0.608229
-0.531203
-0.448189
-0.362306
-0.265441
-0.159275
-0.0933392
0.081626
0.340209
0.601326
0.813314
0.980356
1.09397
1.14893
1.16736
-0.725021
-0.727777
-0.723795
-0.699687
-0.646532
-0.582223
-0.511056
-0.434485
-0.357452
-0.27868
-0.182461
-0.12676
-0.0175272
0.179491
0.39023
0.55126
0.673881
0.763172
0.803988
0.814276
-0.660997
-0.663345
-0.662485
-0.645753
-0.602762
-0.549042
-0.488634
-0.422683
-0.355328
-0.289618
-0.206471
-0.154514
-0.0937768
0.0492852
0.213061
0.32908
0.416123
0.479332
0.508246
0.515697
-0.579841
-0.581665
-0.581639
-0.570868
-0.541818
-0.504103
-0.458246
-0.406304
-0.348226
-0.293545
-0.224998
-0.176886
-0.144145
-0.0389029
0.0784955
0.157046
0.21878
0.265753
0.284838
0.290677
-0.492888
-0.494429
-0.494489
-0.48837
-0.472444
-0.449813
-0.418995
-0.383174
-0.334432
-0.292769
-0.239523
-0.195788
-0.179549
-0.0957841
-0.013259
0.0387757
0.0840645
0.119199
0.136246
0.141619
-0.416479
-0.417533
-0.418025
-0.415638
-0.40869
-0.397077
-0.379025
-0.357225
-0.318015
-0.289311
-0.250475
-0.217444
-0.204091
-0.139789
-0.0810909
-0.0418853
-0.00941113
0.0131912
0.0262215
0.0305806
-0.36016
-0.360755
-0.361585
-0.361849
-0.360193
-0.355548
-0.345997
-0.334341
-0.30396
-0.283694
-0.254806
-0.234314
-0.220078
-0.177867
-0.135469
-0.103706
-0.0797879
-0.0674349
-0.0629396
-0.061716
-0.325135
-0.325535
-0.326515
-0.328004
-0.329183
-0.328376
-0.323432
-0.316014
-0.295728
-0.276567
-0.252211
-0.238735
-0.226649
-0.199439
-0.169436
-0.148795
-0.135949
-0.130169
-0.129452
-0.130438
-0.307516
-0.307666
-0.308408
-0.310069
-0.312114
-0.312651
-0.309841
-0.303822
-0.289575
-0.269873
-0.243489
-0.230444
-0.221258
-0.205862
-0.187273
-0.177633
-0.172301
-0.169194
-0.169868
-0.172713
-0.303748
-0.303629
-0.30389
-0.304951
-0.306352
-0.306271
-0.303578
-0.297378
-0.285049
-0.265496
-0.23643
-0.217668
-0.209693
-0.20178
-0.191257
-0.189681
-0.191424
-0.197803
-0.200931
-0.202738
-0.312023
-0.31166
-0.311504
-0.311985
-0.312959
-0.309314
-0.307136
-0.299936
-0.286563
-0.268884
-0.235313
-0.210501
-0.196162
-0.196583
-0.196354
-0.203316
-0.202663
-0.21042
-0.21513
-0.215232
-0.331961
-0.330952
-0.330151
-0.32966
-0.329076
-0.326822
-0.323803
-0.316459
-0.305137
-0.285289
-0.247186
-0.219236
-0.195787
-0.212272
-0.202265
-0.203545
-0.195916
-0.185256
-0.185543
-0.186504
-0.361594
-0.360906
-0.360213
-0.359155
-0.358165
-0.356076
-0.354018
-0.34866
-0.34265
-0.325157
-0.291037
-0.254684
-0.241079
-0.247725
-0.216018
-0.192918
-0.171656
-0.145829
-0.13412
-0.145014
-0.400048
-0.399453
-0.39911
-0.39857
-0.398209
-0.398121
-0.399773
-0.401671
-0.406112
-0.399977
-0.367659
-0.314457
-0.304582
-0.295878
-0.25546
-0.214298
-0.184295
-0.166904
-0.152064
-0.161862
-0.445191
-0.444805
-0.444844
-0.445532
-0.447442
-0.45185
-0.461239
-0.477059
-0.498172
-0.513714
-0.481014
-0.398914
-0.363684
-0.344221
-0.309309
-0.27446
-0.242064
-0.238424
-0.228738
-0.228583
-0.491877
-0.492036
-0.493087
-0.495472
-0.500912
-0.512388
-0.534541
-0.571793
-0.619742
-0.67427
-0.645428
-0.523887
-0.453657
-0.405814
-0.36367
-0.328715
-0.283606
-0.270425
-0.281171
-0.2777
-0.529428
-0.530364
-0.532817
-0.537752
-0.54808
-0.568889
-0.607997
-0.673309
-0.770908
-0.87376
-0.847768
-0.696976
-0.600466
-0.516076
-0.4338
-0.374983
-0.346792
-0.324685
-0.335703
-0.336713
-0.545363
-0.547136
-0.551536
-0.559337
-0.573996
-0.603379
-0.658432
-0.752511
-0.904644
-1.05021
-1.03817
-0.878613
-0.750115
-0.623451
-0.52442
-0.451655
-0.436662
-0.432061
-0.427982
-0.428025
-0.528839
-0.531609
-0.534837
-0.543901
-0.562999
-0.597404
-0.659244
-0.765712
-0.94132
-1.13281
-1.15356
-0.970194
-0.813308
-0.667953
-0.578991
-0.536045
-0.496607
-0.507803
-0.499325
-0.497867
-0.48041
-0.482797
-0.486327
-0.493459
-0.510255
-0.544405
-0.606685
-0.713724
-0.880629
-1.06453
-1.09314
-0.92111
-0.749608
-0.649214
-0.578877
-0.542679
-0.533714
-0.530163
-0.5261
-0.524434
-0.400439
-0.402292
-0.405609
-0.411836
-0.425064
-0.452506
-0.503939
-0.593585
-0.730017
-0.872393
-0.894269
-0.749855
-0.610199
-0.572278
-0.547882
-0.509828
-0.521864
-0.515689
-0.512373
-0.510155
-0.3029
-0.303998
-0.305909
-0.309826
-0.318641
-0.337484
-0.373226
-0.435817
-0.529366
-0.624147
-0.630477
-0.524334
-0.473851
-0.467397
-0.468904
-0.474245
-0.470679
-0.464069
-0.458843
-0.456582
-0.202878
-0.203321
-0.20398
-0.205392
-0.209722
-0.220121
-0.240742
-0.277789
-0.332818
-0.390943
-0.382399
-0.313353
-0.328329
-0.343955
-0.360312
-0.384632
-0.370601
-0.367648
-0.366074
-0.364348
-0.116378
-0.11634
-0.116356
-0.116595
-0.117779
-0.121371
-0.128923
-0.143023
-0.162664
-0.186837
-0.178195
-0.182392
-0.200368
-0.227415
-0.250562
-0.261715
-0.256801
-0.256125
-0.255288
-0.254436
-0.0486669
-0.0482491
-0.047771
-0.0462583
-0.0447051
-0.0441427
-0.0449112
-0.0483356
-0.0497708
-0.0424722
-0.0400334
-0.0747123
-0.0967259
-0.122525
-0.138655
-0.142169
-0.142772
-0.143188
-0.142379
-0.142169
-0.00376078
-0.0031261
-0.00204126
0.000598095
0.00312177
0.00511508
0.00762802
0.0104884
0.0143377
0.0187895
-0.000701655
-0.0201165
-0.0270649
-0.0344667
-0.0401036
-0.0337388
-0.0338402
-0.0361023
-0.0371785
-0.0376276
-1.42408
-0.548122
-0.275186
0.0117375
0.204873
0.371954
0.511849
0.653862
0.805645
0.882645
-0.412673
0.0114103
0.0374363
0.232603
0.367056
0.487202
0.591593
0.683495
0.714021
0.669921
-0.011636
0.212014
0.254663
0.394945
0.488057
0.573657
0.644286
0.696897
0.700986
0.713379
0.230317
0.382541
0.418985
0.527558
0.58645
0.648481
0.695797
0.72939
0.739348
0.762436
0.419991
0.524232
0.55448
0.628129
0.672635
0.716708
0.750286
0.775242
0.785677
0.816732
0.566059
0.638717
0.66924
0.715303
0.752341
0.783873
0.809144
0.830174
0.844854
0.872768
0.688644
0.741171
0.767414
0.796878
0.825683
0.850229
0.870791
0.890305
0.905497
0.931769
0.794358
0.832854
0.854389
0.875765
0.897402
0.917357
0.935066
0.953408
0.968374
0.991977
0.889997
0.919118
0.936444
0.952228
0.968886
0.985298
1.00104
1.01813
1.03173
1.05404
0.979119
1.00005
1.01527
1.02874
1.04259
1.05657
1.07014
1.08478
1.09631
1.11598
1.06554
1.08145
1.09545
1.10745
1.11952
1.13121
1.14235
1.15405
1.16171
1.17852
1.15114
1.1641
1.17791
1.1896
1.20017
1.20992
1.21869
1.22694
1.23051
1.2418
1.24052
1.25152
1.26499
1.27421
1.28164
1.28882
1.29602
1.30259
1.30359
1.31103
1.33897
1.34371
1.35175
1.35624
1.35951
1.36398
1.36998
1.37775
1.38157
1.39146
1.45229
1.43858
1.43114
1.42551
1.42284
1.42424
1.43075
1.44316
1.45791
1.48756
1.57318
1.51747
1.4866
1.46954
1.46139
1.46139
1.47007
1.48957
1.52159
1.59077
)
;

boundaryField
{
    wall-4
    {
        type            zeroGradient;
    }
    pressure-outlet-7
    {
        type            fixedValue;
        value           uniform 0;
    }
    velocity-inlet-6
    {
        type            zeroGradient;
    }
    velocity-inlet-5
    {
        type            zeroGradient;
    }
    frontAndBackPlanes
    {
        type            empty;
    }
}


// ************************************************************************* //
