/*--------------------------------*- C++ -*----------------------------------*\
  =========                 |
  \\      /  F ield         | OpenFOAM: The Open Source CFD Toolbox
   \\    /   O peration     | Website:  https://openfoam.org
    \\  /    A nd           | Version:  9
     \\/     M anipulation  |
\*---------------------------------------------------------------------------*/
FoamFile
{
    format      ascii;
    class       volVectorField;
    location    "27";
    object      U;
}
// * * * * * * * * * * * * * * * * * * * * * * * * * * * * * * * * * * * * * //

dimensions      [0 1 -1 0 0 0 0];

internalField   nonuniform List<vector> 
2200
(
(0.878841 -0.0304127 0)
(1.00577 -0.0512884 0)
(1.00321 -0.0354054 0)
(1.00017 -0.0244645 0)
(0.999802 -0.0167314 0)
(0.999947 -0.0108272 0)
(0.999985 -0.00693223 0)
(1.00005 -0.00425473 0)
(1.00008 -0.00225803 0)
(1.00016 -0.000666046 0)
(1.00009 0.000900607 0)
(1.00007 0.00250525 0)
(1.00007 0.00447417 0)
(0.999971 0.00714966 0)
(0.99999 0.0109921 0)
(0.999803 0.0168049 0)
(1.00016 0.0245412 0)
(1.00335 0.0352926 0)
(1.00584 0.0513351 0)
(0.878914 0.0304029 0)
(0.711991 -0.0327617 0)
(0.99663 -0.0630059 0)
(1.03335 -0.0561483 0)
(1.02489 -0.0463506 0)
(1.01582 -0.0359919 0)
(1.00972 -0.0262314 0)
(1.00601 -0.0179563 0)
(1.00372 -0.0113538 0)
(1.00242 -0.00613804 0)
(1.00196 -0.00175158 0)
(1.00187 0.00252971 0)
(1.0024 0.00689749 0)
(1.00364 0.0120408 0)
(1.00598 0.0185042 0)
(1.00954 0.0267351 0)
(1.01567 0.0365184 0)
(1.02478 0.0468014 0)
(1.03307 0.0569629 0)
(0.996534 0.0631422 0)
(0.711706 0.0328857 0)
(0.535568 -0.0238868 0)
(0.96991 -0.0569312 0)
(1.05647 -0.054715 0)
(1.05233 -0.0487929 0)
(1.03633 -0.0403772 0)
(1.02439 -0.0321135 0)
(1.01578 -0.0240231 0)
(1.01034 -0.0162275 0)
(1.00734 -0.00898821 0)
(1.00593 -0.00250136 0)
(1.00594 0.00377269 0)
(1.00723 0.0101924 0)
(1.01016 0.0172759 0)
(1.0154 0.0249378 0)
(1.02408 0.0328087 0)
(1.03613 0.0409571 0)
(1.05211 0.0492983 0)
(1.05635 0.0540427 0)
(0.969298 0.0574147 0)
(0.534715 0.0238828 0)
(0.392301 -0.0136413 0)
(0.911686 -0.0463699 0)
(1.05746 -0.0469563 0)
(1.06964 -0.0444133 0)
(1.05512 -0.0383938 0)
(1.03939 -0.0317981 0)
(1.02737 -0.0249618 0)
(1.01882 -0.0177473 0)
(1.01347 -0.0102963 0)
(1.01099 -0.00277384 0)
(1.01088 0.00475081 0)
(1.01319 0.0120696 0)
(1.01839 0.0192353 0)
(1.02696 0.0262149 0)
(1.03889 0.032947 0)
(1.0545 0.0393169 0)
(1.06882 0.0452783 0)
(1.05612 0.0478822 0)
(0.910376 0.0466926 0)
(0.390738 0.0137374 0)
(0.307931 -0.0044702 0)
(0.846886 -0.0322588 0)
(1.04922 -0.0397171 0)
(1.07908 -0.0379765 0)
(1.06792 -0.0335218 0)
(1.05171 -0.0281537 0)
(1.03833 -0.0227047 0)
(1.02805 -0.0166664 0)
(1.02088 -0.0098652 0)
(1.0171 -0.00249111 0)
(1.01688 0.00502297 0)
(1.02031 0.0122769 0)
(1.02733 0.0189134 0)
(1.0375 0.0247966 0)
(1.05067 0.0298043 0)
(1.06677 0.0349346 0)
(1.0777 0.0391012 0)
(1.04763 0.0408498 0)
(0.84433 0.032611 0)
(0.305369 0.0046154 0)
(0.264761 0.000133281 0)
(0.789478 -0.0199591 0)
(1.03345 -0.0312945 0)
(1.08313 -0.0317848 0)
(1.07668 -0.0284799 0)
(1.06036 -0.023685 0)
(1.04718 -0.0195019 0)
(1.03649 -0.0145228 0)
(1.0287 -0.0085857 0)
(1.0243 -0.00175609 0)
(1.0241 0.00523038 0)
(1.02813 0.0118726 0)
(1.03556 0.0174538 0)
(1.04573 0.0219284 0)
(1.05882 0.0258671 0)
(1.07511 0.0303228 0)
(1.08122 0.033199 0)
(1.03076 0.0325007 0)
(0.785287 0.0204085 0)
(0.261217 -1.39992e-08 0)
(0.240884 0.00104267 0)
(0.738699 -0.0122031 0)
(1.01374 -0.0249628 0)
(1.08381 -0.0267451 0)
(1.08247 -0.0243058 0)
(1.06717 -0.0201134 0)
(1.05382 -0.0162273 0)
(1.04319 -0.0119461 0)
(1.03511 -0.00699146 0)
(1.03025 -0.00109116 0)
(1.02987 0.00527078 0)
(1.034 0.0108511 0)
(1.04151 0.0153968 0)
(1.05211 0.0192954 0)
(1.06522 0.0228276 0)
(1.08007 0.0265259 0)
(1.08085 0.0285394 0)
(1.00946 0.0262944 0)
(0.732495 0.0127524 0)
(0.236218 -0.000903971 0)
(0.226868 0.00097539 0)
(0.696756 -0.00777087 0)
(0.993294 -0.0200913 0)
(1.08225 -0.022492 0)
(1.08663 -0.0207129 0)
(1.07275 -0.0172689 0)
(1.05918 -0.0136059 0)
(1.04852 -0.00962002 0)
(1.0405 -0.00515709 0)
(1.03557 -1.47278e-05 0)
(1.03505 0.0056305 0)
(1.03909 0.0104172 0)
(1.04648 0.0142699 0)
(1.05648 0.017724 0)
(1.06972 0.0205697 0)
(1.08328 0.0235155 0)
(1.0782 0.0247922 0)
(0.987222 0.0217112 0)
(0.688275 0.00844285 0)
(0.22094 -0.000831839 0)
(0.217977 0.000746097 0)
(0.663015 -0.0051991 0)
(0.973493 -0.0165725 0)
(1.07895 -0.0191735 0)
(1.08927 -0.0178723 0)
(1.07704 -0.0150093 0)
(1.06354 -0.0117299 0)
(1.05302 -0.00799875 0)
(1.04535 -0.0038115 0)
(1.04071 0.000911131 0)
(1.04006 0.0059238 0)
(1.0435 0.0101707 0)
(1.05031 0.0137931 0)
(1.05998 0.016613 0)
(1.07323 0.0195421 0)
(1.08471 0.0217723 0)
(1.07299 0.0222107 0)
(0.964442 0.0186466 0)
(0.651233 0.00610657 0)
(0.210319 -0.000544845 0)
(0.211672 0.00037463 0)
(0.635601 -0.00364786 0)
(0.95476 -0.0138378 0)
(1.07524 -0.016621 0)
(1.09148 -0.0157232 0)
(1.08066 -0.013287 0)
(1.06695 -0.0101935 0)
(1.05643 -0.00655776 0)
(1.04888 -0.00241112 0)
(1.04438 0.00210601 0)
(1.0434 0.00648374 0)
(1.04624 0.010454 0)
(1.05248 0.0136547 0)
(1.0625 0.0164564 0)
(1.07558 0.0185364 0)
(1.08524 0.0199423 0)
(1.0673 0.0200459 0)
(0.943287 0.0162362 0)
(0.620757 0.00465686 0)
(0.202153 -0.000151932 0)
(0.20728 0.000125509 0)
(0.615558 -0.00216816 0)
(0.939509 -0.0105933 0)
(1.07244 -0.0132371 0)
(1.09392 -0.0124904 0)
(1.08431 -0.0105973 0)
(1.07031 -0.00812906 0)
(1.05934 -0.00498174 0)
(1.05138 -0.00118044 0)
(1.0465 0.00321163 0)
(1.04522 0.00734293 0)
(1.04796 0.0110907 0)
(1.05427 0.0139154 0)
(1.06398 0.0160417 0)
(1.07719 0.017179 0)
(1.08576 0.0181862 0)
(1.06159 0.0179108 0)
(0.923187 0.0136785 0)
(0.595684 0.00350695 0)
(0.195098 0.000190503 0)
(0.204498 -8.24786e-06 0)
(0.601767 -0.000896208 0)
(0.925825 -0.0071566 0)
(1.06965 -0.00954525 0)
(1.09645 -0.00889119 0)
(1.08795 -0.00708211 0)
(1.07407 -0.00475923 0)
(1.06284 -0.00198873 0)
(1.05424 0.00113588 0)
(1.04859 0.00487697 0)
(1.04704 0.0084091 0)
(1.04999 0.0112298 0)
(1.05668 0.0130615 0)
(1.06646 0.0141359 0)
(1.07934 0.0153559 0)
(1.08595 0.015794 0)
(1.05576 0.0149416 0)
(0.905562 0.0106604 0)
(0.577407 0.00248474 0)
(0.189407 0.000331429 0)
(0.203624 -0.000127266 0)
(0.594082 8.53763e-05 0)
(0.91624 -0.00365406 0)
(1.0677 -0.00583118 0)
(1.09889 -0.00521019 0)
(1.0916 -0.00350304 0)
(1.0783 -0.00139609 0)
(1.06734 0.00103439 0)
(1.05868 0.0037532 0)
(1.05269 0.00669973 0)
(1.05068 0.00945595 0)
(1.05303 0.0112933 0)
(1.05902 0.0124183 0)
(1.06829 0.0133196 0)
(1.08044 0.0136423 0)
(1.08531 0.0137443 0)
(1.04924 0.0125295 0)
(0.889537 0.00814131 0)
(0.563609 0.00182709 0)
(0.184614 0.000351477 0)
(0.204144 -9.16818e-05 0)
(0.592116 0.000953189 0)
(0.9094 -0.00103473 0)
(1.0659 -0.0029473 0)
(1.10116 -0.00234862 0)
(1.09487 -0.000602881 0)
(1.08179 0.00152323 0)
(1.07089 0.00396146 0)
(1.06233 0.0066283 0)
(1.05623 0.00919611 0)
(1.05358 0.0115652 0)
(1.0549 0.012808 0)
(1.0599 0.0133748 0)
(1.0683 0.0135438 0)
(1.07987 0.012947 0)
(1.08309 0.0124107 0)
(1.04165 0.0107644 0)
(0.875543 0.00644563 0)
(0.553491 0.00160939 0)
(0.180789 0.000358196 0)
(0.206242 0.00028071 0)
(0.592828 0.00136536 0)
(0.90554 0.00108486 0)
(1.06489 0.000198193 0)
(1.10282 0.00098612 0)
(1.09722 0.00248481 0)
(1.08398 0.00437813 0)
(1.07269 0.0066139 0)
(1.06378 0.00918848 0)
(1.0573 0.0116145 0)
(1.05409 0.0137092 0)
(1.05491 0.0144748 0)
(1.05954 0.0145378 0)
(1.06768 0.0140731 0)
(1.07865 0.0130036 0)
(1.08063 0.0121166 0)
(1.03476 0.0101073 0)
(0.863747 0.00571049 0)
(0.54474 0.00168538 0)
(0.177028 0.000385249 0)
(0.209479 0.000475282 0)
(0.595736 0.00199311 0)
(0.905865 0.00327507 0)
(1.06482 0.00288723 0)
(1.10488 0.0040758 0)
(1.0997 0.00578193 0)
(1.08626 0.00772133 0)
(1.07445 0.0100257 0)
(1.06489 0.0125341 0)
(1.05764 0.0149152 0)
(1.0536 0.0166636 0)
(1.05369 0.0169786 0)
(1.05804 0.0163503 0)
(1.066 0.0152136 0)
(1.07614 0.0137742 0)
(1.07627 0.0120959 0)
(1.0263 0.00932054 0)
(0.852098 0.00514329 0)
(0.536699 0.00175781 0)
(0.17334 0.000388685 0)
(0.215204 0.00058264 0)
(0.603624 0.00280517 0)
(0.909261 0.00489966 0)
(1.067 0.00583046 0)
(1.10761 0.00717128 0)
(1.10296 0.00891014 0)
(1.08964 0.01104 0)
(1.07773 0.0136286 0)
(1.06767 0.0162616 0)
(1.05945 0.0187578 0)
(1.05419 0.0202024 0)
(1.05302 0.0201038 0)
(1.05646 0.0188597 0)
(1.06369 0.0169972 0)
(1.07299 0.0149893 0)
(1.07179 0.012889 0)
(1.01888 0.00981207 0)
(0.842437 0.00556442 0)
(0.528891 0.00208358 0)
(0.169318 0.000424118 0)
(0.220587 0.000638581 0)
(0.61105 0.00317251 0)
(0.91387 0.00614513 0)
(1.06991 0.00754768 0)
(1.11118 0.00927936 0)
(1.10696 0.0115836 0)
(1.09374 0.0142479 0)
(1.08177 0.0174565 0)
(1.07132 0.0207373 0)
(1.0623 0.0237704 0)
(1.05571 0.0251615 0)
(1.05301 0.0248557 0)
(1.0549 0.0232382 0)
(1.06098 0.0209936 0)
(1.069 0.0182454 0)
(1.06558 0.014984 0)
(1.00865 0.0109135 0)
(0.829882 0.00634584 0)
(0.519111 0.0026064 0)
(0.164378 0.000513775 0)
(0.228965 0.000838114 0)
(0.624688 0.00411151 0)
(0.923261 0.00828697 0)
(1.07473 0.0106379 0)
(1.11517 0.0124633 0)
(1.11133 0.0147678 0)
(1.09813 0.0179139 0)
(1.08581 0.0218531 0)
(1.07452 0.0258995 0)
(1.06412 0.029589 0)
(1.05566 0.0311838 0)
(1.05164 0.0308142 0)
(1.05216 0.0287144 0)
(1.05712 0.0255662 0)
(1.06342 0.0221136 0)
(1.05827 0.0179658 0)
(0.999046 0.0132198 0)
(0.819211 0.0079992 0)
(0.508746 0.00334336 0)
(0.15845 0.000638257 0)
(0.237662 0.00113449 0)
(0.637543 0.00496369 0)
(0.933092 0.0101073 0)
(1.08052 0.0133886 0)
(1.11973 0.0160712 0)
(1.11623 0.0191888 0)
(1.10317 0.0233253 0)
(1.09036 0.0280724 0)
(1.07796 0.0329822 0)
(1.06596 0.037218 0)
(1.05585 0.038779 0)
(1.0501 0.0378007 0)
(1.04874 0.0350754 0)
(1.05211 0.0312689 0)
(1.05634 0.027069 0)
(1.04816 0.0214898 0)
(0.984621 0.0154479 0)
(0.801854 0.00934888 0)
(0.493613 0.0040385 0)
(0.150566 0.00076797 0)
(0.250757 0.00145288 0)
(0.65748 0.00679008 0)
(0.947893 0.0134878 0)
(1.08862 0.0181084 0)
(1.12558 0.0213779 0)
(1.12266 0.0253672 0)
(1.10982 0.0302002 0)
(1.0963 0.0360122 0)
(1.08234 0.0417055 0)
(1.06791 0.0461307 0)
(1.05502 0.0474607 0)
(1.04703 0.0459024 0)
(1.04417 0.0422725 0)
(1.04561 0.0371336 0)
(1.04756 0.0315165 0)
(1.03661 0.0249393 0)
(0.971122 0.0181066 0)
(0.788092 0.0113441 0)
(0.479172 0.00485082 0)
(0.14204 0.000870094 0)
(0.2662 0.00197935 0)
(0.681044 0.0082374 0)
(0.966565 0.0171221 0)
(1.10029 0.0233522 0)
(1.13426 0.0284345 0)
(1.13104 0.0335973 0)
(1.1178 0.0400936 0)
(1.10316 0.0469457 0)
(1.08729 0.0533437 0)
(1.07044 0.0578478 0)
(1.05524 0.058584 0)
(1.04482 0.0555135 0)
(1.039 0.0503866 0)
(1.0377 0.0442376 0)
(1.03685 0.0372949 0)
(1.02221 0.0296068 0)
(0.951878 0.0214122 0)
(0.763959 0.0133486 0)
(0.456751 0.00572102 0)
(0.130637 0.0010217 0)
(0.287855 0.00280678 0)
(0.712928 0.0120609 0)
(0.991425 0.0230432 0)
(1.1155 0.0316248 0)
(1.14499 0.0378481 0)
(1.14135 0.0453275 0)
(1.1273 0.0530462 0)
(1.11087 0.0609137 0)
(1.09233 0.0677946 0)
(1.07201 0.0717417 0)
(1.05286 0.0711194 0)
(1.03925 0.0665062 0)
(1.03173 0.0599033 0)
(1.02814 0.0519713 0)
(1.02436 0.0434452 0)
(1.00659 0.0343602 0)
(0.93377 0.0252206 0)
(0.745272 0.0162386 0)
(0.436821 0.00691675 0)
(0.119055 0.00111133 0)
(0.318078 0.00385917 0)
(0.755842 0.0149226 0)
(1.02357 0.030339 0)
(1.13623 0.0415055 0)
(1.16079 0.0510824 0)
(1.15453 0.0607594 0)
(1.13812 0.070271 0)
(1.11873 0.0791817 0)
(1.09679 0.0859197 0)
(1.07288 0.0888386 0)
(1.05074 0.0865299 0)
(1.03434 0.0797945 0)
(1.02297 0.0707676 0)
(1.01609 0.0612323 0)
(1.00955 0.0512585 0)
(0.98798 0.0411609 0)
(0.908921 0.030429 0)
(0.711441 0.0193184 0)
(0.403393 0.00788836 0)
(0.102959 0.00125338 0)
(0.354627 0.0077208 0)
(0.809067 0.0246324 0)
(1.06499 0.0428862 0)
(1.16315 0.0581678 0)
(1.17978 0.0693508 0)
(1.17002 0.0821765 0)
(1.14993 0.0931297 0)
(1.1267 0.102197 0)
(1.1005 0.108185 0)
(1.07195 0.10939 0)
(1.04495 0.104445 0)
(1.02452 0.0946546 0)
(1.01172 0.0836845 0)
(1.00281 0.0720426 0)
(0.992989 0.060287 0)
(0.967414 0.0482465 0)
(0.883478 0.0359217 0)
(0.684139 0.0230901 0)
(0.376671 0.00957756 0)
(0.0885494 0.00117325 0)
(0.4376 0.0113986 0)
(0.890238 0.0349373 0)
(1.11958 0.0626472 0)
(1.19613 0.081792 0)
(1.20468 0.096412 2.10495e-34)
(1.1878 0.112173 -1.06964e-34)
(1.16238 0.122916 0)
(1.13411 0.131142 0)
(1.10285 0.135228 0)
(1.06959 0.133388 0)
(1.03892 0.124827 0)
(1.01573 0.112576 0)
(0.998529 0.0987179 0)
(0.985962 0.0851635 0)
(0.973534 0.0718606 0)
(0.943283 0.0586857 0)
(0.850365 0.0441129 0)
(0.636146 0.028056 0)
(0.326218 0.00994523 0)
(0.0662229 0.00090548 0)
(0.506023 0.0263586 6.07601e-21)
(0.983207 0.0591452 -5.06079e-21)
(1.17841 0.0950946 0)
(1.23181 0.117532 7.45711e-21)
(1.23062 0.135752 -6.04216e-21)
(1.20529 0.151173 1.12853e-34)
(1.1739 0.160711 0)
(1.13978 0.167227 7.55116e-21)
(1.10282 0.168843 -2.59039e-20)
(1.06393 0.163995 5.50407e-21)
(1.02785 0.152428 0)
(0.999547 0.135925 -1.61239e-20)
(0.980356 0.119545 -1.98154e-20)
(0.96553 0.103658 3.47609e-20)
(0.947805 0.088354 -2.77624e-20)
(0.908979 0.0722315 0)
(0.801993 0.0543373 -1.04271e-20)
(0.573895 0.0338567 0)
(0.274819 0.013619 -5.66662e-20)
(0.0482835 0.00150843 6.70072e-20)
(0.537234 0.054705 -1.46552e-21)
(1.03886 0.102157 -7.1684e-21)
(1.22328 0.146361 7.38445e-21)
(1.26419 0.165839 -3.77389e-21)
(1.25411 0.184233 -1.22286e-20)
(1.22074 0.197592 2.04669e-20)
(1.1831 0.205284 0)
(1.14278 0.209878 0)
(1.09991 0.208903 4.09288e-20)
(1.05507 0.200778 0)
(1.01298 0.184919 5.66166e-20)
(0.979961 0.166387 1.72992e-20)
(0.954474 0.148543 3.30605e-22)
(0.93356 0.131437 -3.86523e-20)
(0.912919 0.115178 0)
(0.870814 0.0989875 0)
(0.760884 0.0760277 -1.74105e-19)
(0.540142 0.0511068 4.36133e-19)
(0.261095 0.0215223 -2.58898e-19)
(0.0456011 0.00459601 -3.06474e-19)
(0.541371 0.0778392 4.35251e-20)
(1.06985 0.159523 -1.14589e-20)
(1.25669 0.207958 -1.41945e-21)
(1.29019 0.225106 4.2512e-21)
(1.2724 0.240916 1.38143e-20)
(1.2325 0.250263 -4.9573e-20)
(1.18905 0.254608 1.99358e-20)
(1.14285 0.256112 0)
(1.09415 0.251759 -8.57511e-20)
(1.04317 0.240502 8.58617e-20)
(0.996172 0.22251 -1.54026e-19)
(0.959342 0.20262 7.39455e-20)
(0.931533 0.182666 -5.19329e-20)
(0.909 0.164185 1.14871e-19)
(0.883313 0.146656 0)
(0.837845 0.128843 -4.40283e-20)
(0.731785 0.105234 0)
(0.527912 0.0705612 2.47241e-19)
(0.264942 0.0359066 -5.86836e-19)
(0.055456 0.00723519 3.67981e-19)
(0.531004 0.110009 -2.3671e-19)
(1.08468 0.217465 9.29152e-20)
(1.27656 0.273961 1.40956e-20)
(1.30767 0.289462 0)
(1.28467 0.302235 -8.09609e-21)
(1.23987 0.306836 1.20618e-20)
(1.19151 0.30712 -2.12641e-20)
(1.14017 0.304837 0)
(1.08629 0.296726 6.07394e-20)
(1.03003 0.281667 -5.9575e-20)
(0.97753 0.260122 1.34891e-19)
(0.934379 0.235795 0)
(0.900885 0.214527 -1.0983e-19)
(0.873431 0.196189 6.09708e-20)
(0.849466 0.179777 1.61542e-19)
(0.808748 0.162872 -1.42175e-19)
(0.711498 0.136668 2.32275e-19)
(0.523978 0.0968619 -5.15079e-19)
(0.279168 0.0522241 3.2626e-19)
(0.0676349 0.0129256 -4.08646e-19)
(0.516202 0.134223 1.57759e-19)
(1.08945 0.272561 -1.16573e-19)
(1.28685 0.340948 4.33169e-20)
(1.31683 0.354974 -5.14084e-20)
(1.29017 0.364808 2.75362e-20)
(1.24205 0.364911 -1.61471e-22)
(1.18989 0.361241 3.64661e-21)
(1.13423 0.355024 -5.43428e-20)
(1.07557 0.343001 -6.22624e-20)
(1.01444 0.324307 -1.28277e-19)
(0.957748 0.299634 -2.90766e-19)
(0.913729 0.274966 -9.45828e-20)
(0.881264 0.254077 2.56912e-21)
(0.855773 0.23541 -2.16046e-19)
(0.826387 0.216992 -6.3449e-21)
(0.782572 0.196202 2.08264e-19)
(0.690739 0.167178 -6.42085e-20)
(0.519388 0.123094 -3.73884e-20)
(0.290196 0.0699493 0)
(0.0768032 0.0189654 8.74787e-19)
(0.497225 0.155141 0)
(1.08085 0.322375 3.85177e-20)
(1.28852 0.404567 2.52181e-20)
(1.3195 0.418774 -1.23119e-20)
(1.29036 0.426685 -3.95826e-20)
(1.23984 0.422787 -6.18542e-21)
(1.18473 0.415483 2.0441e-20)
(1.12577 0.405346 9.24054e-20)
(1.06369 0.389289 -3.60766e-20)
(0.999123 0.366615 5.93511e-20)
(0.938856 0.337855 1.56683e-19)
(0.88995 0.31006 2.08277e-19)
(0.85143 0.285216 -1.28429e-19)
(0.819913 0.263663 2.34368e-19)
(0.796775 0.245601 -1.8733e-19)
(0.761723 0.228697 0)
(0.68033 0.198746 -4.90315e-19)
(0.520861 0.150359 6.59421e-19)
(0.299189 0.0876596 4.96457e-20)
(0.0832023 0.0247831 -9.26943e-19)
(0.482583 0.175942 -5.34649e-21)
(1.07237 0.371514 -2.68509e-19)
(1.28569 0.465957 -1.90586e-19)
(1.31734 0.480389 1.5072e-19)
(1.2861 0.486637 -1.79168e-20)
(1.23381 0.479262 1.21839e-21)
(1.17649 0.468705 3.10028e-20)
(1.11503 0.454931 -1.97045e-20)
(1.04991 0.435239 -1.35637e-19)
(0.981499 0.408921 4.73388e-22)
(0.918015 0.377448 -1.7083e-19)
(0.868381 0.346966 -2.22852e-19)
(0.833196 0.321528 1.43499e-19)
(0.808129 0.301928 -8.43082e-20)
(0.778818 0.283577 2.03789e-19)
(0.738624 0.259982 0)
(0.659595 0.228478 -3.04162e-19)
(0.5114 0.175463 4.4965e-19)
(0.3014 0.103524 8.57881e-19)
(0.0860579 0.0300103 -1.00896e-18)
(0.467543 0.193512 -5.26726e-19)
(1.05822 0.415972 2.64569e-19)
(1.27868 0.523508 1.90832e-19)
(1.31154 0.53902 -1.64826e-19)
(1.27861 0.544262 1.12573e-20)
(1.22504 0.53382 1.7401e-20)
(1.16604 0.520315 -2.3259e-20)
(1.1025 0.503201 -3.50039e-20)
(1.03481 0.48009 -8.02254e-20)
(0.963697 0.449901 1.34616e-19)
(0.897897 0.41418 1.6591e-19)
(0.8467 0.380153 3.5102e-19)
(0.807595 0.35285 0)
(0.774035 0.32872 5.67773e-21)
(0.751099 0.307598 -5.64027e-19)
(0.719595 0.289975 1.30131e-19)
(0.648802 0.256648 6.54466e-19)
(0.504606 0.199364 -1.92533e-19)
(0.295704 0.117971 4.06177e-19)
(0.0849853 0.0329161 -3.40417e-20)
(0.458428 0.21257 6.10901e-21)
(1.04686 0.459914 2.50823e-19)
(1.26967 0.57872 1.48801e-19)
(1.30308 0.595016 -3.10072e-19)
(1.26856 0.599068 1.74034e-19)
(1.21405 0.585883 -3.06117e-20)
(1.15371 0.569871 2.1449e-20)
(1.08847 0.549815 9.27731e-20)
(1.01869 0.523659 1.50957e-19)
(0.945294 0.490421 -1.64835e-19)
(0.877245 0.451643 0)
(0.82449 0.415323 -1.36179e-19)
(0.786278 0.384819 1.56345e-19)
(0.762004 0.360975 2.05584e-19)
(0.733663 0.340877 -1.18222e-19)
(0.696558 0.3154 -2.95443e-19)
(0.626175 0.281203 -8.92827e-20)
(0.489896 0.217294 -1.22727e-21)
(0.285986 0.127566 0)
(0.0811552 0.0352202 0)
(0.44992 0.228119 -2.71198e-19)
(1.03352 0.500043 0)
(1.25845 0.630138 1.74879e-19)
(1.29247 0.647898 -8.37379e-20)
(1.2567 0.651039 -1.77481e-19)
(1.20157 0.63537 4.99397e-20)
(1.14019 0.617145 1.70295e-20)
(1.07364 0.594508 -5.627e-20)
(1.00222 0.565524 1.04684e-19)
(0.927112 0.528737 -6.17316e-20)
(0.857228 0.485528 9.37692e-20)
(0.802216 0.445813 4.27513e-19)
(0.762712 0.413502 1.35274e-20)
(0.727337 0.385775 -2.11342e-19)
(0.705793 0.36267 4.02471e-19)
(0.677817 0.341561 4.49954e-21)
(0.613118 0.302111 9.55218e-20)
(0.477047 0.234762 -4.60894e-19)
(0.274999 0.134608 4.68096e-19)
(0.0759965 0.0368252 -5.58334e-19)
(0.44362 0.24711 3.78734e-23)
(1.0221 0.539404 0)
(1.24669 0.679307 0)
(1.2806 0.698292 7.4894e-20)
(1.24371 0.700192 7.38041e-20)
(1.1881 0.682108 -3.36269e-20)
(1.12584 0.661976 -1.12178e-20)
(1.05817 0.637087 0)
(0.985066 0.605711 -1.61631e-19)
(0.906987 0.566436 2.39804e-19)
(0.833315 0.521811 2.77988e-19)
(0.777424 0.478201 -1.59677e-19)
(0.73805 0.441523 -1.97538e-19)
(0.714238 0.414406 4.65675e-19)
(0.686869 0.39012 -1.42535e-19)
(0.652626 0.360059 -1.72196e-19)
(0.587601 0.321408 -1.04661e-19)
(0.457563 0.246025 -4.98776e-19)
(0.261702 0.139502 7.09817e-20)
(0.0700491 0.0371975 6.05173e-19)
(0.439881 0.265767 -1.10242e-19)
(1.01046 0.575634 -1.72027e-19)
(1.23376 0.72477 2.35451e-20)
(1.26779 0.745501 7.93135e-24)
(1.23012 0.746562 1.51465e-20)
(1.17413 0.726378 -1.0816e-19)
(1.11108 0.70447 0)
(1.04236 0.67761 3.69801e-20)
(0.967833 0.644249 -2.91594e-20)
(0.888591 0.60266 3.87393e-19)
(0.815024 0.552649 -6.71527e-20)
(0.756827 0.505298 7.52546e-20)
(0.71402 0.468156 0)
(0.679296 0.433865 -2.5346e-19)
(0.658363 0.405479 3.12745e-19)
(0.63289 0.382374 0)
(0.571659 0.334693 -2.27938e-19)
(0.439627 0.2572 6.6778e-19)
(0.247496 0.142363 7.90776e-20)
(0.0636897 0.0366623 -7.47979e-19)
(0.437931 0.282708 -2.47771e-19)
(1.00077 0.61107 3.18198e-19)
(1.22113 0.768271 0)
(1.25465 0.790398 1.91598e-19)
(1.21622 0.790383 0)
(1.15993 0.768139 9.13707e-20)
(1.09618 0.744623 0)
(1.02661 0.716025 0)
(0.95082 0.680742 -5.24414e-20)
(0.868868 0.636583 -3.7342e-19)
(0.789723 0.584844 -5.15839e-19)
(0.728754 0.536191 9.24759e-20)
(0.688475 0.491655 3.41176e-19)
(0.664772 0.45893 2.82978e-19)
(0.639046 0.430712 -1.00354e-18)
(0.60599 0.394905 -4.11129e-19)
(0.54337 0.349647 2.39504e-19)
(0.416701 0.262654 0)
(0.231891 0.143255 6.83612e-19)
(0.0569852 0.0352274 -8.09618e-19)
(0.436518 0.298487 2.75656e-19)
(0.990517 0.643271 -3.51861e-19)
(1.20806 0.807987 0)
(1.24133 0.83202 -1.03624e-20)
(1.20236 0.831494 -7.74088e-20)
(1.14578 0.807645 0)
(1.08141 0.782679 2.90046e-21)
(1.01088 0.7524 3.36963e-20)
(0.933252 0.715659 -8.2638e-20)
(0.848852 0.670281 4.24572e-20)
(0.768983 0.617212 0)
(0.707685 0.562437 3.74302e-19)
(0.66396 0.51763 4.19636e-21)
(0.6274 0.476537 1.53365e-19)
(0.607695 0.441302 1.83943e-19)
(0.584331 0.412796 0)
(0.525077 0.356113 -4.00227e-19)
(0.396631 0.267826 7.84899e-19)
(0.21566 0.142154 -8.33557e-19)
(0.0505113 0.0330172 1.75244e-18)
(0.435448 0.31348 0)
(0.981959 0.675213 0)
(1.19572 0.846157 -1.916e-19)
(1.2281 0.871556 0)
(1.18852 0.870252 0)
(1.13178 0.844846 1.54009e-19)
(1.06687 0.8186 3.62893e-22)
(0.995566 0.786964 1.71405e-20)
(0.917142 0.749171 -1.37431e-20)
(0.832171 0.702254 0)
(0.749694 0.645676 -8.1087e-20)
(0.682866 0.589821 -3.08392e-19)
(0.634657 0.5395 -3.81239e-19)
(0.611113 0.497809 -1.56552e-19)
(0.586547 0.462621 2.01494e-19)
(0.55567 0.418052 -4.77494e-19)
(0.49504 0.366431 8.64526e-19)
(0.371027 0.267512 5.67466e-21)
(0.19906 0.139015 -8.04424e-19)
(0.0442883 0.0304089 -1.19136e-19)
(0.434256 0.32813 0)
(0.972801 0.704218 -2.76045e-19)
(1.18324 0.880847 2.15527e-19)
(1.21503 0.907972 0)
(1.17501 0.906376 0)
(1.1181 0.879885 -3.46959e-19)
(1.0528 0.852594 0)
(0.981007 0.819781 0)
(0.901188 0.780463 -1.64917e-19)
(0.812806 0.732373 7.00036e-20)
(0.725477 0.674761 -6.74528e-19)
(0.657139 0.616298 0)
(0.612426 0.562846 -4.13997e-19)
(0.571424 0.51409 1.13579e-20)
(0.551551 0.467142 -6.45252e-19)
(0.531112 0.431594 2.58225e-19)
(0.47561 0.36309 3.20901e-21)
(0.352614 0.265756 -9.1846e-19)
(0.184377 0.134637 4.35628e-19)
(0.0393435 0.0279685 1.2746e-19)
(0.4332 0.342308 0)
(0.965222 0.733171 -3.31495e-19)
(1.17153 0.914426 2.29525e-19)
(1.20222 0.942604 4.65592e-19)
(1.16171 0.94033 8.61799e-20)
(1.10482 0.912736 -5.61528e-20)
(1.03934 0.884578 3.01643e-20)
(0.966893 0.850679 3.81004e-20)
(0.886078 0.81096 1.76414e-19)
(0.79681 0.76255 4.73204e-19)
(0.709371 0.704826 5.59918e-19)
(0.637126 0.644333 1.0375e-19)
(0.57869 0.586644 5.99109e-19)
(0.552295 0.533072 3.82204e-19)
(0.527677 0.487137 4.65052e-19)
(0.498951 0.427362 -2.87238e-19)
(0.443381 0.365612 -3.38226e-19)
(0.327068 0.256756 3.96736e-19)
(0.169123 0.126449 -2.34539e-19)
(0.0367264 0.0285413 4.1495e-19)
(0.432014 0.356054 4.39557e-19)
(0.957055 0.759187 5.25706e-19)
(1.15977 0.944878 1.26935e-19)
(1.18974 0.974416 1.62007e-20)
(1.14891 0.971835 -3.08008e-19)
(1.092 0.943471 1.01231e-19)
(1.02623 0.914637 -3.60511e-20)
(0.953481 0.880013 -2.14657e-20)
(0.87183 0.839357 -1.8823e-19)
(0.780766 0.789662 -5.21276e-19)
(0.688489 0.730358 3.56605e-20)
(0.609197 0.66832 0)
(0.557678 0.608471 0)
(0.508814 0.550251 -1.95927e-19)
(0.485487 0.487267 -7.64153e-19)
(0.467785 0.434848 6.22136e-19)
(0.42363 0.342634 3.76547e-19)
(0.323945 0.236361 0)
(0.17563 0.105079 7.48541e-19)
(0.030973 0.00734604 -4.46962e-19)
(0.431016 0.369065 -2.34658e-19)
(0.95021 0.785081 2.03737e-19)
(1.14877 0.974445 -2.85148e-19)
(1.17766 1.00473 -2.99429e-19)
(1.13645 1.00144 -1.2554e-19)
(1.07964 0.97222 2.28113e-20)
(1.01395 0.942839 0)
(0.941019 0.907597 -3.28356e-20)
(0.858561 0.866662 2.62193e-20)
(0.765683 0.817989 0)
(0.670796 0.760174 0)
(0.590516 0.69735 6.99864e-20)
(0.523099 0.633153 1.02414e-19)
(0.487224 0.56923 -2.11525e-19)
(0.45626 0.509125 5.51243e-19)
(0.425979 0.421599 -6.82907e-19)
(0.380241 0.330778 -8.06978e-19)
(0.308504 0.211745 7.13715e-19)
(0.209479 0.12746 -2.68982e-19)
(0.118879 0.0889958 1.55148e-19)
(0.429727 0.381331 2.7391e-19)
(0.942728 0.80808 0)
(1.13777 1.00112 0)
(1.16599 1.03251 -9.94817e-20)
(1.12459 1.02888 8.05283e-20)
(1.0679 0.999027 -2.08442e-20)
(1.00208 0.969169 -1.32426e-19)
(0.928832 0.933456 -2.43614e-20)
(0.84567 0.892135 3.01561e-19)
(0.751357 0.841846 -4.06948e-20)
(0.654287 0.782178 9.14312e-20)
(0.568262 0.720188 -5.94415e-19)
(0.503185 0.658974 -6.30059e-19)
(0.440162 0.592631 -1.13055e-19)
(0.401148 0.508579 0)
(0.375479 0.432517 -1.19069e-20)
(0.341862 0.275962 4.44925e-19)
(0.297162 0.113053 -7.47642e-19)
(0.256772 -0.0386408 5.59529e-19)
(0.0798859 -0.0909264 4.53145e-19)
(0.428595 0.392974 -5.9811e-19)
(0.936319 0.831033 -2.60216e-19)
(1.12744 1.02718 6.57032e-21)
(1.15469 1.0592 1.32157e-19)
(1.11301 1.05495 0)
(1.05641 1.02446 3.36101e-19)
(0.990658 0.994295 1.57914e-19)
(0.917348 0.958311 -3.50509e-20)
(0.833517 0.917101 -1.47017e-19)
(0.737382 0.868594 -3.90204e-20)
(0.636624 0.813401 3.62424e-20)
(0.54669 0.752032 5.24152e-19)
(0.466515 0.686145 6.15532e-19)
(0.416606 0.614287 1.09308e-19)
(0.368467 0.543616 5.8901e-19)
(0.307163 0.419964 0)
(0.205264 0.269899 0)
(0.0372315 0.265866 5.41542e-19)
(-0.0695392 0.62912 -3.32973e-20)
(0.00161229 1.50975 -6.84867e-19)
(0.42702 0.404036 3.26313e-19)
(0.929345 0.851448 7.73815e-19)
(1.11709 1.05082 -1.1514e-18)
(1.14369 1.08396 6.80486e-19)
(1.10182 1.07962 -7.34865e-20)
(1.04536 1.0488 4.55584e-19)
(0.979473 1.01851 0)
(0.905835 0.982533 5.474e-20)
(0.821349 0.941493 0)
(0.724707 0.892666 4.55585e-19)
(0.623401 0.834187 -5.07724e-20)
(0.528726 0.775622 5.69288e-20)
(0.450773 0.719469 6.89805e-19)
(0.364202 0.654731 -2.44439e-19)
(0.279117 0.558364 -3.05555e-19)
(0.209237 0.482295 0)
(0.10613 0.571619 0)
(0.0357003 1.26427 0)
(0.0775309 2.43381 -3.05508e-19)
(0.107696 2.8964 -1.88958e-19)
(0.425578 0.414605 0)
(0.923357 0.871851 0)
(1.10742 1.07402 4.13059e-19)
(1.13311 1.10785 -5.65786e-19)
(1.09099 1.10317 3.75339e-19)
(1.03456 1.07207 -4.15372e-19)
(0.968708 1.04186 -1.75852e-20)
(0.895031 1.00606 1.36918e-20)
(0.810181 0.965864 2.35001e-20)
(0.711527 0.919023 -5.20758e-19)
(0.604164 0.867944 8.3466e-20)
(0.505384 0.81318 5.03874e-19)
(0.411353 0.753198 -6.82566e-19)
(0.341177 0.681026 -7.80568e-19)
(0.273706 0.623256 2.69432e-19)
(0.206083 0.743295 0)
(0.141521 1.50174 3.85414e-19)
(0.13938 2.67324 4.28665e-19)
(0.146013 3.08104 -4.79706e-19)
(0.13662 3.21906 5.24457e-19)
(0.423709 0.42442 0)
(0.916839 0.889758 6.36582e-19)
(1.09775 1.0949 -1.06684e-19)
(1.12286 1.12989 7.20728e-19)
(1.08057 1.12537 -3.93977e-19)
(1.02432 1.09428 0)
(0.958388 1.06424 0)
(0.884547 1.02888 0)
(0.799213 0.989364 4.76876e-20)
(0.700261 0.943493 1.60398e-20)
(0.594872 0.88964 0)
(0.493701 0.837396 -4.95566e-19)
(0.406925 0.790398 0)
(0.295522 0.737824 5.56621e-19)
(0.214807 0.814741 -3.66426e-19)
(0.17025 1.44586 -3.03377e-19)
(0.175283 2.66332 -7.3623e-19)
(0.194762 3.12589 -3.75314e-19)
(0.185011 3.2711 -4.62285e-19)
(0.169813 3.31204 3.83934e-19)
(0.422052 0.433638 -2.16095e-19)
(0.911252 0.907731 1.52047e-20)
(1.08877 1.11549 -1.15442e-19)
(1.11309 1.15121 -5.74661e-19)
(1.07057 1.14658 0)
(1.01435 1.11551 0)
(0.9485 1.08589 0)
(0.874695 1.05103 -3.71576e-21)
(0.789205 1.01278 -6.76513e-20)
(0.688936 0.96934 0)
(0.578077 0.923201 0)
(0.47249 0.878115 0)
(0.363753 0.832191 0)
(0.307122 0.824296 3.79904e-19)
(0.284698 1.18234 9.71327e-19)
(0.271522 2.34193 2.98252e-19)
(0.282302 3.08112 5.6602e-19)
(0.275005 3.29024 -3.90494e-19)
(0.224364 3.35817 1.4456e-19)
(0.190319 3.37078 0)
(0.420027 0.442324 2.19528e-19)
(0.904922 0.923727 -1.3793e-18)
(1.07955 1.13441 -3.88191e-19)
(1.1034 1.17137 -9.35204e-20)
(1.06073 1.16711 1.00071e-19)
(1.00476 1.1363 -6.85296e-19)
(0.938906 1.10705 4.43837e-20)
(0.865116 1.07292 2.18706e-19)
(0.779415 1.03587 0)
(0.67904 0.993941 -2.99941e-20)
(0.570142 0.947044 2.72853e-20)
(0.465352 0.902484 0)
(0.382167 0.874502 0)
(0.327852 0.998068 -4.72654e-19)
(0.292644 1.83609 2.25837e-20)
(0.289073 2.93038 -1.83472e-19)
(0.307877 3.29482 3.39084e-19)
(0.280846 3.39718 1.88319e-19)
(0.213078 3.42285 -1.20348e-19)
(0.187074 3.43147 5.81934e-20)
(0.417923 0.451084 4.24182e-19)
(0.898954 0.941459 1.32336e-18)
(1.07024 1.15488 4.75778e-19)
(1.0934 1.19251 0)
(1.05061 1.18814 0)
(0.994762 1.15738 5.25343e-19)
(0.929143 1.12867 -2.99008e-19)
(0.855587 1.09515 -2.03625e-19)
(0.770043 1.05925 -6.04943e-21)
(0.669102 1.02029 2.58361e-19)
(0.557339 0.98092 -4.78638e-19)
(0.446322 0.945432 0)
(0.363744 0.948086 0)
(0.344453 1.34459 -2.85432e-19)
(0.355912 2.44765 -3.60782e-19)
(0.397668 3.19943 0)
(0.423306 3.38241 -1.41439e-19)
(0.353498 3.44726 1.68605e-19)
(0.279043 3.49154 -2.47562e-19)
(0.254509 3.51764 1.6755e-19)
(0.414974 0.460283 -8.0392e-19)
(0.891349 0.958374 -6.30549e-19)
(1.05965 1.17509 0)
(1.0825 1.21394 0)
(1.03971 1.20993 0)
(0.984292 1.17929 0)
(0.918868 1.15078 3.17557e-19)
(0.845635 1.11783 -2.97534e-19)
(0.760301 1.08345 0)
(0.660204 1.04627 -2.30838e-19)
(0.550678 1.00647 8.26707e-19)
(0.450804 0.975246 3.76153e-20)
(0.401526 1.06467 5.67221e-20)
(0.40578 1.7264 4.40526e-19)
(0.42481 2.88159 -1.82046e-19)
(0.460733 3.32886 0)
(0.443266 3.45895 2.01562e-21)
(0.353722 3.54796 9.83661e-20)
(0.270476 3.61674 2.95447e-19)
(0.194496 3.59674 -2.27756e-19)
(0.411952 0.469571 3.81235e-19)
(0.883917 0.97807 -6.23802e-19)
(1.04861 1.19774 0)
(1.07087 1.23697 -1.48747e-19)
(1.0281 1.23258 5.58919e-19)
(0.972981 1.20173 0)
(0.908095 1.17357 0)
(0.835461 1.14115 5.66509e-19)
(0.750888 1.1074 -2.12959e-21)
(0.650842 1.07263 1.42076e-19)
(0.537536 1.0401 -3.75033e-19)
(0.447467 1.03135 2.48171e-19)
(0.407947 1.23601 0)
(0.441871 2.14536 -2.18963e-19)
(0.490356 3.13811 1.64465e-19)
(0.551891 3.43615 1.86901e-20)
(0.545588 3.53923 0)
(0.47692 3.63142 -1.54262e-19)
(0.401607 3.67621 -6.70938e-19)
(0.31801 3.64697 -1.68337e-19)
(0.407501 0.479264 -7.42883e-19)
(0.874302 0.996475 8.88567e-19)
(1.03597 1.21988 6.54896e-19)
(1.05815 1.26023 -1.68684e-19)
(1.01552 1.25606 -8.53094e-19)
(0.961078 1.2251 0)