/*--------------------------------*- C++ -*----------------------------------*\
  =========                 |
  \\      /  F ield         | OpenFOAM: The Open Source CFD Toolbox
   \\    /   O peration     | Website:  https://openfoam.org
    \\  /    A nd           | Version:  9
     \\/     M anipulation  |
\*---------------------------------------------------------------------------*/
FoamFile
{
    format      ascii;
    class       volScalarField;
    location    "33";
    object      p;
}
// * * * * * * * * * * * * * * * * * * * * * * * * * * * * * * * * * * * * * //

dimensions      [0 2 -2 0 0 0 0];

internalField   nonuniform List<scalar> 
2200
(
1.14523
1.12373
1.10782
1.09215
1.07753
1.065
1.05462
1.04649
1.04073
1.03771
1.03808
1.04179
1.04805
1.05654
1.06717
1.07989
1.09465
1.11049
1.12649
1.148
1.07767
1.07441
1.07148
1.06735
1.06188
1.05539
1.04876
1.04278
1.03823
1.03576
1.03615
1.03934
1.04441
1.05079
1.05771
1.06441
1.07003
1.07416
1.07707
1.08039
1.03775
1.03797
1.04003
1.04137
1.04176
1.04089
1.0389
1.03618
1.0336
1.03203
1.03248
1.03481
1.03797
1.04112
1.0434
1.04439
1.0441
1.04301
1.04123
1.041
1.01533
1.01678
1.01938
1.02183
1.02424
1.02624
1.02737
1.02754
1.02709
1.02669
1.02719
1.02845
1.02956
1.02988
1.02912
1.02741
1.02522
1.02297
1.02037
1.01895
1.00107
1.00305
1.00585
1.00866
1.01149
1.01429
1.01671
1.01853
1.01969
1.02036
1.02094
1.02128
1.02091
1.01967
1.01773
1.01528
1.01267
1.00993
1.00716
1.00522
0.993721
0.995314
0.997514
1.00005
1.00272
1.00537
1.00792
1.0103
1.01224
1.01364
1.01433
1.01415
1.01316
1.01149
1.00948
1.00723
1.00483
1.00245
1.00033
0.99875
0.990446
0.991463
0.992729
0.994591
0.996721
0.998849
1.00098
1.00317
1.00526
1.00696
1.00778
1.00757
1.00662
1.00529
1.00377
1.00213
1.00035
0.998714
0.997567
0.996553
0.988008
0.988683
0.989313
0.990607
0.992202
0.993852
0.995529
0.997324
0.999203
1.00094
1.00194
1.00202
1.00151
1.00074
0.999815
0.998735
0.997572
0.996571
0.996082
0.995406
0.984883
0.985324
0.985732
0.986756
0.988042
0.989437
0.990908
0.992496
0.994195
0.995902
0.997131
0.997636
0.997628
0.997319
0.996803
0.996107
0.995343
0.99466
0.994405
0.993955
0.981051
0.981328
0.981717
0.982654
0.983837
0.985157
0.986604
0.988165
0.989834
0.991591
0.993097
0.994024
0.994428
0.994449
0.994187
0.993743
0.993185
0.992667
0.992452
0.992159
0.976785
0.976968
0.977369
0.978273
0.979454
0.980843
0.982392
0.984065
0.985843
0.987772
0.98963
0.991016
0.991777
0.992048
0.991939
0.991605
0.991182
0.990774
0.990574
0.990375
0.972098
0.972226
0.972607
0.973471
0.974704
0.97623
0.978022
0.980031
0.982212
0.984572
0.986886
0.988634
0.989622
0.989979
0.989942
0.989707
0.989399
0.989111
0.988947
0.9888
0.966985
0.967057
0.967438
0.968314
0.969595
0.971241
0.973263
0.975657
0.97842
0.981445
0.984275
0.986245
0.98737
0.98789
0.988066
0.988039
0.987884
0.987708
0.987589
0.987485
0.961562
0.961591
0.961972
0.962872
0.964237
0.965969
0.96808
0.970653
0.973814
0.977449
0.980925
0.983469
0.985083
0.986114
0.986739
0.986909
0.986913
0.986853
0.986792
0.98673
0.956084
0.955983
0.956408
0.957284
0.958746
0.960591
0.962812
0.965545
0.968965
0.973133
0.977458
0.981005
0.98351
0.985207
0.986227
0.986731
0.986977
0.987047
0.98703
0.986988
0.950287
0.950241
0.9506
0.951537
0.953187
0.955244
0.957811
0.961012
0.965009
0.969939
0.975259
0.979778
0.983042
0.985266
0.986673
0.987581
0.988078
0.9883
0.988349
0.98831
0.943941
0.943937
0.944273
0.945278
0.947129
0.949518
0.952632
0.956621
0.961612
0.967724
0.97425
0.979693
0.983594
0.986318
0.988217
0.989479
0.990206
0.990592
0.990707
0.990664
0.936557
0.936495
0.936947
0.938148
0.94015
0.94285
0.946495
0.95127
0.957399
0.965001
0.973076
0.979786
0.984673
0.988172
0.990675
0.992328
0.993351
0.993927
0.994123
0.994072
0.92789
0.927795
0.928282
0.929569
0.931787
0.934883
0.939093
0.944707
0.952063
0.961349
0.971369
0.979821
0.986086
0.990659
0.993929
0.996189
0.997681
0.998493
0.998765
0.998685
0.917167
0.917084
0.917636
0.919139
0.921768
0.925511
0.930656
0.937544
0.946525
0.95787
0.97015
0.980526
0.988285
0.99404
0.998222
1.00119
1.00316
1.00421
1.00456
1.00445
0.904091
0.903983
0.904675
0.906544
0.909818
0.914574
0.921131
0.929854
0.941163
0.955163
0.970038
0.982497
0.991841
0.998756
1.00383
1.00748
1.00993
1.0112
1.01161
1.01146
0.887603
0.887533
0.888529
0.890973
0.895239
0.901414
0.909838
0.921042
0.935305
0.95256
0.970526
0.985422
0.996527
1.00481
1.01087
1.01519
1.01809
1.01957
1.02003
1.01986
0.866685
0.866548
0.86788
0.871222
0.876918
0.885164
0.89631
0.910724
0.928619
0.949784
0.971379
0.989128
1.00227
1.0121
1.0193
1.02449
1.02793
1.02965
1.03017
1.02994
0.839045
0.839124
0.841309
0.84607
0.854117
0.865563
0.880445
0.899079
0.921421
0.947121
0.972808
0.993736
1.00921
1.02075
1.0293
1.03547
1.03949
1.04144
1.04201
1.04172
0.802074
0.8024
0.806131
0.813972
0.826004
0.84225
0.86243
0.886494
0.914239
0.945196
0.975431
0.999714
1.01759
1.03095
1.04088
1.0481
1.05274
1.05497
1.05559
1.0552
0.752848
0.753325
0.760522
0.77348
0.791986
0.815446
0.8426
0.873351
0.907413
0.944244
0.979288
1.00706
1.02748
1.04275
1.05418
1.06246
1.06773
1.07009
1.07062
1.07018
0.687261
0.690239
0.705744
0.727341
0.75464
0.786511
0.821661
0.859931
0.901059
0.944455
0.985025
1.01704
1.04074
1.05857
1.07202
1.08199
1.08846
1.09116
1.09153
1.09127
0.612186
0.622107
0.648092
0.679619
0.716805
0.757559
0.800699
0.84673
0.895313
0.945798
0.992632
1.0297
1.05732
1.07848
1.09476
1.10682
1.11492
1.11811
1.11851
1.11876
0.545807
0.561181
0.593724
0.633529
0.679905
0.72934
0.780558
0.834401
0.890291
0.947621
1.00032
1.04197
1.07312
1.09692
1.11511
1.12883
1.13791
1.14245
1.14363
1.1436
0.495682
0.509368
0.547218
0.592866
0.646315
0.702936
0.761538
0.822669
0.885424
0.94932
1.00782
1.05366
1.08766
1.11345
1.13344
1.14871
1.1584
1.16309
1.16421
1.16431
0.45461
0.467365
0.508537
0.558013
0.616718
0.679012
0.743916
0.811474
0.880569
0.950705
1.01439
1.06379
1.10018
1.12774
1.14861
1.16444
1.1747
1.17956
1.1809
1.18101
0.419148
0.432184
0.47577
0.528033
0.590772
0.657594
0.727743
0.800841
0.875616
0.951343
1.01963
1.0723
1.11061
1.13913
1.16056
1.17666
1.18724
1.19249
1.19403
1.19417
0.388137
0.401295
0.446854
0.501555
0.567659
0.638254
0.712833
0.790707
0.870481
0.951259
1.02383
1.07916
1.11897
1.14839
1.17026
1.18657
1.1977
1.20323
1.20496
1.20507
0.360245
0.37351
0.420687
0.477575
0.546592
0.62042
0.698798
0.780771
0.864952
0.950194
1.02657
1.08454
1.12583
1.15605
1.17866
1.19516
1.20655
1.21228
1.21404
1.21401
0.3347
0.347954
0.396383
0.455393
0.527043
0.603644
0.685237
0.770753
0.858857
0.94824
1.02865
1.08923
1.13195
1.1631
1.18601
1.20279
1.21402
1.21975
1.2215
1.22131
0.31064
0.324187
0.373485
0.434557
0.508497
0.587509
0.671913
0.760608
0.852398
0.94602
1.03013
1.09321
1.13769
1.16957
1.19285
1.20969
1.22072
1.22643
1.22818
1.22808
0.288021
0.301691
0.351794
0.414679
0.490598
0.571792
0.658733
0.750309
0.845428
0.942521
1.02998
1.09646
1.14292
1.17581
1.19947
1.21629
1.22741
1.23289
1.23472
1.23464
0.26662
0.280293
0.331089
0.39551
0.473146
0.556335
0.645552
0.739659
0.837582
0.938058
1.03017
1.09994
1.14821
1.18223
1.20624
1.2231
1.23407
1.2395
1.24114
1.24109
0.245956
0.259858
0.311145
0.376864
0.455983
0.540986
0.632257
0.72864
0.829372
0.933627
1.0295
1.1022
1.15335
1.18884
1.21329
1.23016
1.24097
1.24609
1.2477
1.24759
0.225618
0.240155
0.291811
0.358636
0.439013
0.525653
0.618819
0.717356
0.820727
0.92801
1.02728
1.10424
1.15817
1.19537
1.22084
1.23765
1.24798
1.25287
1.25416
1.25399
0.205602
0.220941
0.272972
0.340802
0.422246
0.510321
0.60521
0.705725
0.811347
0.921456
1.02476
1.10542
1.16254
1.20249
1.22912
1.24585
1.25537
1.25944
1.2604
1.26018
0.186051
0.202136
0.254595
0.323354
0.405707
0.495015
0.591422
0.693709
0.801405
0.914196
1.02072
1.10516
1.16665
1.20977
1.23838
1.25522
1.26332
1.266
1.26621
1.26603
0.167094
0.183726
0.236677
0.306326
0.389484
0.479833
0.577513
0.68135
0.790921
0.905909
1.01533
1.10419
1.16989
1.2172
1.24878
1.26663
1.27309
1.27196
1.27118
1.27183
0.148765
0.165805
0.219279
0.289766
0.373642
0.464849
0.563566
0.668687
0.779877
0.896739
1.00878
1.10153
1.17203
1.22431
1.2603
1.28055
1.28637
1.28094
1.27546
1.27339
0.131084
0.148458
0.202456
0.273719
0.358244
0.450157
0.549701
0.655842
0.768284
0.886829
1.00129
1.09739
1.17248
1.23063
1.27264
1.29768
1.30722
1.29575
1.29217
1.29674
0.114057
0.131769
0.186277
0.258235
0.343338
0.43583
0.536012
0.642926
0.756359
0.876394
0.992715
1.09123
1.17088
1.235
1.28448
1.31742
1.3347
1.31085
1.26694
1.22601
0.0977459
0.11572
0.170698
0.243234
0.328813
0.421742
0.52236
0.629796
0.744007
0.865125
0.982798
1.08347
1.16632
1.23627
1.29433
1.33857
1.37111
1.36902
1.38657
1.43934
0.0821984
0.100271
0.155633
0.228576
0.31447
0.407652
0.508484
0.616184
0.730813
0.852537
0.970987
1.07248
1.15739
1.23167
1.29408
1.34145
1.36711
1.3599
1.32609
1.33649
0.0674411
0.0854393
0.141113
0.214303
0.300379
0.393653
0.49453
0.602245
0.716861
0.838592
0.957203
1.05877
1.14334
1.21713
1.27854
1.32303
1.32235
1.27748
1.2181
1.20756
0.0534707
0.0712388
0.127145
0.200418
0.286539
0.379744
0.480492
0.587972
0.702175
0.823411
0.941619
1.04183
1.12334
1.19131
1.24589
1.26313
1.23322
1.16218
1.09039
1.07425
0.040247
0.0576694
0.11371
0.186901
0.272935
0.365909
0.466349
0.573344
0.686814
0.806978
0.923515
1.02136
1.0971
1.1526
1.1825
1.17425
1.12462
1.02553
0.939664
0.92088
0.027311
0.0443255
0.100421
0.173394
0.259219
0.351834
0.45181
0.558117
0.67054
0.789055
0.903384
0.997614
1.06551
1.10551
1.10128
1.06879
0.964045
0.843686
0.737625
0.713272
0.013765
0.0304097
0.0865699
0.159266
0.244815
0.337034
0.436465
0.541945
0.653085
0.769527
0.880692
0.969542
1.03046
1.04761
1.01225
0.92781
0.773069
0.62165
0.49416
0.468627
-0.000906068
0.0155125
0.0718493
0.14429
0.229544
0.321381
0.420225
0.524776
0.634414
0.748324
0.855437
0.938622
0.988571
0.97828
0.922317
0.774451
0.57296
0.35896
0.178331
0.131798
-0.0167974
-0.000452433
0.0561854
0.128435
0.213433
0.304914
0.403135
0.506655
0.614657
0.725791
0.827966
0.905606
0.940774
0.898186
0.808902
0.617961
0.38155
0.0875648
-0.238829
-0.383324
-0.0339797
-0.0175797
0.0394891
0.111634
0.196437
0.287577
0.385144
0.487547
0.593771
0.701761
0.798149
0.869398
0.887434
0.81279
0.674135
0.462172
0.219773
-0.133716
-0.732764
-1.31107
-0.0525036
-0.0359501
0.0216774
0.0938202
0.178543
0.269388
0.366307
0.467571
0.571958
0.676732
0.767185
0.830766
0.830698
0.736664
0.543044
0.299852
0.0862078
-0.161862
-0.740332
-2.3026
-0.0723486
-0.0556484
0.00268963
0.074889
0.159594
0.250158
0.346407
0.44646
0.548873
0.650221
0.734823
0.789751
0.770376
0.675559
0.443264
0.194048
0.0359935
-0.0123368
-0.016774
-0.415852
-0.0934347
-0.0767449
-0.0176611
0.0545356
0.139219
0.229418
0.324852
0.423498
0.523607
0.621061
0.700185
0.745065
0.709308
0.627227
0.391127
0.174337
0.0531151
0.0400349
0.0889343
0.0460114
-0.115722
-0.0990783
-0.0393256
0.0327312
0.117347
0.207066
0.301516
0.398515
0.496005
0.589019
0.6633
0.69865
0.654962
0.575581
0.355244
0.179638
0.0917363
0.0836885
0.036014
0.0281511
-0.139136
-0.122411
-0.0622688
0.00947064
0.0940412
0.183112
0.276381
0.371521
0.46605
0.554345
0.62419
0.650325
0.605829
0.514696
0.327833
0.189343
0.110304
0.141989
0.118542
0.116443
-0.163496
-0.146413
-0.0863762
-0.0151086
0.069433
0.157653
0.249566
0.342632
0.433957
0.517587
0.58321
0.599191
0.562235
0.446083
0.291348
0.194645
0.140995
0.102512
0.124424
0.116837
-0.188243
-0.170838
-0.111549
-0.0408265
0.0438088
0.130902
0.221319
0.312166
0.3999
0.479124
0.540736
0.546224
0.518509
0.379417
0.247704
0.178288
0.188534
0.125887
0.150794
0.144322
-0.212836
-0.195316
-0.137482
-0.0671994
0.0174511
0.103139
0.191974
0.280544
0.36433
0.43948
0.497833
0.494693
0.469846
0.325326
0.211594
0.15102
0.182762
0.148983
0.147982
0.147046
-0.23668
-0.219469
-0.163319
-0.0935168
-0.00922102
0.0748305
0.162059
0.248261
0.327825
0.398996
0.45566
0.445417
0.413837
0.280124
0.189897
0.142889
0.126616
0.140778
0.137187
0.140865
-0.25917
-0.24269
-0.188075
-0.118929
-0.0358731
0.046559
0.132145
0.216077
0.291542
0.35807
0.414578
0.397878
0.355932
0.248954
0.180721
0.146604
0.100853
0.141206
0.135344
0.144004
-0.27924
-0.263858
-0.210867
-0.14264
-0.0619068
0.0192104
0.103113
0.184596
0.256472
0.317476
0.374606
0.351958
0.296421
0.220744
0.183076
0.18133
0.109514
0.16619
0.155512
0.162067
-0.295884
-0.281986
-0.231031
-0.16413
-0.0861691
-0.00626024
0.0758183
0.155007
0.224019
0.278431
0.336904
0.308817
0.233887
0.196057
0.213309
0.278919
0.231716
0.205606
0.188936
0.185484
-0.307811
-0.295803
-0.247602
-0.182589
-0.107132
-0.028687
0.0513816
0.128416
0.195358
0.242743
0.300677
0.271123
0.16557
0.152633
0.23129
0.264687
0.243663
0.209462
0.191017
0.182091
-0.314164
-0.304296
-0.259555
-0.196689
-0.123435
-0.0469971
0.0310302
0.106121
0.17169
0.213982
0.265891
0.244882
0.0817188
-0.0390704
-0.086076
-0.133683
-0.13255
-0.108901
-0.0874309
-0.0731642
-0.314096
-0.306186
-0.265322
-0.205036
-0.134129
-0.0598085
0.016121
0.089762
0.154966
0.196143
0.236187
0.226695
0.00616732
-0.341425
-0.754158
-0.99369
-1.03663
-0.99002
-0.877408
-0.789404
-0.306727
-0.29954
-0.26336
-0.20632
-0.138119
-0.066027
0.00813614
0.0809209
0.147367
0.193018
0.225598
0.226252
0.0142424
-0.362808
-0.848634
-1.07714
-1.0813
-0.961326
-0.861224
-0.804771
-0.288712
-0.281271
-0.251538
-0.199553
-0.134674
-0.0648341
0.00806453
0.081372
0.152039
0.207886
0.247245
0.276983
0.222218
0.157288
0.0527526
0.0631248
0.154646
0.251037
0.353073
0.438871
-0.254435
-0.247592
-0.228416
-0.184326
-0.123595
-0.0558301
0.0162999
0.0918551
0.169907
0.243829
0.308295
0.41642
0.567044
0.847464
1.09627
1.31965
1.51274
1.6341
1.69688
1.72416
-0.20818
-0.204037
-0.19754
-0.162198
-0.106404
-0.0399952
0.0320822
0.110813
0.198229
0.295101
0.395941
0.547645
0.82123
1.24294
1.65366
1.99784
2.23864
2.37972
2.44249
2.46344
-0.171358
-0.170855
-0.165942
-0.138154
-0.0870074
-0.0213607
0.0529188
0.134684
0.228224
0.339143
0.459623
0.589713
0.891714
1.27656
1.6545
1.98043
2.22027
2.36086
2.4227
2.43962
-0.140668
-0.141689
-0.136072
-0.116068
-0.0679736
-0.00253596
0.0735162
0.15602
0.247996
0.356338
0.471667
0.558632
0.79753
1.1029
1.39124
1.64108
1.83861
1.95869
2.01433
2.03108
-0.11012
-0.110088
-0.11003
-0.0961405
-0.0482499
0.016217
0.0912876
0.171921
0.257074
0.35231
0.459046
0.518901
0.688677
0.931019
1.15899
1.34757
1.49759
1.5957
1.64012
1.65248
-0.0791149
-0.0792789
-0.0833002
-0.0699163
-0.0240154
0.0375521
0.108752
0.184473
0.261149
0.33949
0.436201
0.485051
0.591827
0.775723
0.955596
1.09532
1.2032
1.27814
1.31172
1.319
-0.0266892
-0.0272935
-0.0326663
-0.0216716
0.0159521
0.068769
0.131638
0.198298
0.265156
0.328507
0.412794
0.459298
0.519939
0.654437
0.793561
0.897158
0.973929
1.02765
1.05161
1.05876
0.0496344
0.0476811
0.0455763
0.053269
0.0788966
0.116647
0.164254
0.217351
0.272752
0.324916
0.394623
0.43877
0.474363
0.57204
0.674691
0.748144
0.803625
0.842931
0.860846
0.866917
0.139277
0.137828
0.13621
0.140412
0.15469
0.177328
0.207061
0.244281
0.287796
0.328646
0.383519
0.422172
0.447787
0.520856
0.59367
0.641908
0.683362
0.714864
0.72773
0.731442
0.22353
0.222317
0.221127
0.222402
0.227977
0.238567
0.253919
0.276151
0.307558
0.335704
0.37575
0.410475
0.427276
0.485758
0.538006
0.570052
0.598382
0.618914
0.628855
0.631816
0.290697
0.289838
0.288614
0.287359
0.287377
0.289898
0.295884
0.306432
0.325536
0.34341
0.368806
0.399082
0.408526
0.455096
0.491462
0.516212
0.534421
0.544998
0.54982
0.550384
0.336214
0.335652
0.334322
0.331423
0.327621
0.325323
0.325944
0.32936
0.338959
0.349661
0.364556
0.384945
0.394149
0.425147
0.450024
0.467723
0.479556
0.484292
0.484818
0.483952
0.362137
0.361671
0.360406
0.357071
0.351691
0.347021
0.344486
0.343934
0.348165
0.35411
0.36336
0.372286
0.38194
0.398967
0.415778
0.42757
0.43404
0.437026
0.43633
0.434584
0.374851
0.37445
0.373284
0.370302
0.365092
0.359931
0.355846
0.353302
0.354515
0.356826
0.362455
0.365405
0.369368
0.379757
0.391047
0.398628
0.402073
0.402004
0.400718
0.398814
0.379731
0.379399
0.378368
0.376022
0.371695
0.367332
0.36325
0.359882
0.359326
0.359468
0.361364
0.361924
0.36176
0.368379
0.375279
0.379016
0.379879
0.376239
0.373213
0.371928
0.380785
0.380535
0.379713
0.377915
0.374599
0.371267
0.367743
0.364523
0.363189
0.3617
0.360684
0.359265
0.357037
0.364018
0.368902
0.369628
0.369246
0.36841
0.366331
0.364856
0.379706
0.379525
0.378939
0.377608
0.375153
0.372719
0.370281
0.367505
0.366332
0.363611
0.360565
0.35662
0.35158
0.362753
0.370178
0.372829
0.376424
0.380508
0.38177
0.378597
0.377494
0.37737
0.377034
0.376023
0.374356
0.37283
0.371873
0.369557
0.368995
0.366308
0.363409
0.357736
0.352681
0.363631
0.375047
0.382945
0.387924
0.388638
0.388901
0.387319
0.374226
0.374187
0.374123
0.37372
0.37292
0.371565
0.371404
0.370704
0.371375
0.371995
0.372951
0.366363
0.363489
0.371717
0.379635
0.384309
0.38323
0.380149
0.379281
0.379529
0.369179
0.369261
0.369405
0.369282
0.369079
0.368752
0.369002
0.371778
0.374134
0.378632
0.385501
0.379087
0.377164
0.382224
0.385737
0.388674
0.390945
0.394268
0.396224
0.396486
0.360358
0.360648
0.361164
0.362216
0.362168
0.363907
0.36504
0.369404
0.374109
0.380618
0.390782
0.392833
0.388685
0.393587
0.401109
0.414528
0.434362
0.4473
0.451138
0.447139
0.346359
0.34669
0.347433
0.349443
0.351108
0.354013
0.355648
0.361479
0.369221
0.381505
0.397838
0.407923
0.401213
0.405307
0.415799
0.42921
0.445634
0.458799
0.463281
0.455514
0.326988
0.327681
0.328516
0.330134
0.332437
0.336756
0.342923
0.349392
0.359023
0.374293
0.393105
0.403036
0.408447
0.394545
0.391589
0.393537
0.390915
0.388058
0.391019
0.38936
0.29845
0.299538
0.300988
0.303238
0.306398
0.310767
0.317122
0.323822
0.33227
0.344546
0.36328
0.37384
0.373571
0.349163
0.34193
0.335287
0.327467
0.316365
0.317745
0.319848
0.257157
0.258202
0.260033
0.263287
0.267804
0.27352
0.279084
0.283636
0.288077
0.29644
0.317071
0.324305
0.305786
0.297895
0.30627
0.310268
0.326849
0.329387
0.313716
0.320463
0.205448
0.206272
0.207893
0.211178
0.215651
0.220787
0.224028
0.224437
0.221094
0.217174
0.239062
0.260825
0.233189
0.24366
0.273937
0.288415
0.314336
0.338586
0.305869
0.310981
0.142831
0.143478
0.145814
0.150706
0.155927
0.159357
0.157827
0.149172
0.128073
0.126193
0.164618
0.201568
0.168985
0.162508
0.187189
0.21149
0.200874
0.206454
0.203771
0.201645
0.0800135
0.0793832
0.0798295
0.0816616
0.0853032
0.0878071
0.0829143
0.0666922
0.0388575
0.0359981
0.0744621
0.124567
0.105378
0.0972986
0.0902567
0.0877797
0.07312
0.0722172
0.0867332
0.085493
0.0270363
0.0263359
0.0257974
0.0240564
0.0200518
0.0119924
-0.00219487
-0.0234255
-0.0438753
-0.0215959
0.0171418
0.045526
0.0473417
0.0452145
0.0159493
-0.0135198
-0.00433468
-8.62461e-05
0.0107087
0.0096947
-0.740706
0.120549
0.392303
0.675162
0.864009
1.02713
1.16254
1.29999
1.44784
1.52585
0.258094
0.675595
0.697922
0.890715
1.02139
1.13828
1.23959
1.32904
1.3582
1.31482
0.650318
0.870383
0.909961
1.04895
1.13941
1.2229
1.29172
1.34312
1.34635
1.35934
0.887769
1.03643
1.07251
1.1785
1.23628
1.29703
1.34325
1.37635
1.38592
1.40922
1.07351
1.17602
1.20638
1.27753
1.32192
1.36499
1.39795
1.42263
1.4328
1.46404
1.21808
1.28922
1.31964
1.36438
1.4011
1.4321
1.45699
1.4779
1.49239
1.52044
1.33913
1.3909
1.41689
1.44577
1.47419
1.49846
1.51881
1.53823
1.55334
1.57968
1.44394
1.48202
1.50332
1.52444
1.54582
1.5656
1.58322
1.60147
1.61642
1.64004
1.53897
1.56791
1.58508
1.60074
1.61725
1.63357
1.64926
1.66628
1.67989
1.7022
1.62779
1.64861
1.66375
1.67714
1.69093
1.70485
1.71839
1.733
1.74454
1.76419
1.71401
1.72988
1.74383
1.7558
1.76783
1.77949
1.79062
1.80229
1.80995
1.82677
1.79951
1.81244
1.82623
1.8379
1.84847
1.85821
1.86697
1.87521
1.87877
1.89005
1.88882
1.89981
1.91328
1.9225
1.92993
1.93712
1.9443
1.95084
1.95186
1.95928
1.98725
1.99198
2.00002
2.00451
2.00779
2.01226
2.01825
2.026
2.02984
2.03972
2.10055
2.08686
2.07942
2.0738
2.07114
2.07254
2.07901
2.09141
2.10618
2.13584
2.22148
2.16574
2.13488
2.11781
2.10966
2.10963
2.11836
2.1379
2.16987
2.23907
)
;

boundaryField
{
    wall-4
    {
        type            zeroGradient;
    }
    pressure-outlet-7
    {
        type            fixedValue;
        value           uniform 0;
    }
    velocity-inlet-6
    {
        type            zeroGradient;
    }
    velocity-inlet-5
    {
        type            zeroGradient;
    }
    frontAndBackPlanes
    {
        type            empty;
    }
}


// ************************************************************************* //
