/*--------------------------------*- C++ -*----------------------------------*\
  =========                 |
  \\      /  F ield         | OpenFOAM: The Open Source CFD Toolbox
   \\    /   O peration     | Website:  https://openfoam.org
    \\  /    A nd           | Version:  9
     \\/     M anipulation  |
\*---------------------------------------------------------------------------*/
FoamFile
{
    format      ascii;
    class       surfaceScalarField;
    location    "33";
    object      phi;
}
// * * * * * * * * * * * * * * * * * * * * * * * * * * * * * * * * * * * * * //

dimensions      [0 3 -1 0 0 0 0];

internalField   nonuniform List<scalar> 
4262
(
0.107137
0.470851
0.0955698
0.705153
0.0693702
0.858503
0.0473371
1.0208
0.0309468
1.21491
0.0197557
1.44941
0.0123623
1.73326
0.0071879
2.07621
0.00329474
2.48914
-0.000224041
2.98581
-0.00378321
2.98585
-0.0077249
2.48919
-0.012889
2.0762
-0.020052
1.73303
-0.0310241
1.44919
-0.0472445
1.21474
-0.0691379
1.02066
-0.0953675
0.858533
-0.10711
0.705328
0.470878
0.1129
0.357951
0.135322
0.682731
0.120451
0.873374
0.0978997
1.04335
0.074593
1.23821
0.0529096
1.47109
0.0346787
1.75149
0.0205039
2.09039
0.00913071
2.50051
-0.00105167
2.99599
-0.0112153
2.99602
-0.0223028
2.50027
-0.0361549
2.09005
-0.054321
1.75119
-0.0760996
1.47097
-0.0996145
1.23825
-0.122434
1.04348
-0.136493
0.872592
-0.113397
0.682232
0.357481
0.0921067
0.265845
0.125108
0.64973
0.121342
0.877139
0.105215
1.05948
0.0867184
1.25671
0.0675496
1.49026
0.0484591
1.77058
0.0304043
2.10844
0.0140738
2.51684
-0.00163693
3.0117
-0.0171133
3.01149
-0.0331376
2.5163
-0.0509455
2.10786
-0.0698131
1.77006
-0.0884003
1.48956
-0.105961
1.25581
-0.120811
1.05833
-0.125442
0.877222
-0.0923683
0.649159
0.265113
0.0639775
0.201867
0.104806
0.608902
0.106528
0.875418
0.0951591
1.07084
0.0813949
1.27047
0.0669001
1.50476
0.050779
1.7867
0.033615
2.1256
0.0159277
2.53453
-0.00265385
3.03029
-0.0210658
3.0299
-0.0383613
2.53359
-0.0549173
2.12442
-0.0701321
1.78528
-0.0839194
1.50334
-0.0975063
1.2694
-0.10901
1.06983
-0.106306
0.874518
-0.0645614
0.607414
0.200552
0.0374987
0.164368
0.0808711
0.565529
0.0913067
0.864982
0.0840973
1.07805
0.0714459
1.28313
0.0595973
1.51661
0.0468814
1.79942
0.0323091
2.14018
0.0157039
2.55113
-0.0033198
3.04931
-0.0221153
3.0487
-0.0382272
2.5497
-0.0520618
2.13825
-0.0643007
1.79751
-0.0757383
1.51478
-0.0877628
1.28142
-0.0942046
1.07627
-0.082731
0.863045
-0.0381892
0.562872
0.162363
0.0195456
0.144823
0.0573622
0.527713
0.0728471
0.849497
0.0707806
1.08012
0.0619089
1.292
0.0509245
1.52759
0.0398001
1.81054
0.0275362
2.15244
0.012896
2.56577
-0.00447545
3.06668
-0.0214625
3.06569
-0.0351543
2.5634
-0.0464262
2.14952
-0.0565715
1.80766
-0.0666766
1.52489
-0.074731
1.28948
-0.0759515
1.07749
-0.0592776
0.846371
-0.0201725
0.523767
0.14219
0.0105811
0.134242
0.0422049
0.496089
0.0583028
0.833399
0.0587496
1.07967
0.052779
1.29797
0.0435969
1.53677
0.0335539
1.82058
0.0225413
2.16345
0.00989778
2.57842
-0.00553422
3.08211
-0.0206573
3.08081
-0.0325207
2.57526
-0.0426092
2.15961
-0.0513971
1.81645
-0.0595625
1.53305
-0.0643947
1.29431
-0.0626752
1.07577
-0.0448404
0.828536
-0.0113935
0.49032
0.130796
0.00655102
0.127691
0.0329829
0.469657
0.049378
0.817004
0.0511738
1.07788
0.0464938
1.30265
0.0384871
1.54478
0.0289823
1.83009
0.018191
2.17424
0.00630123
2.59031
-0.00725756
3.09567
-0.0202209
3.09377
-0.0309366
2.58598
-0.0401211
2.1688
-0.0481993
1.82453
-0.0547798
1.53963
-0.0579136
1.29744
-0.0545295
1.07239
-0.0361085
0.810115
-0.00753509
0.461747
0.123261
0.0047667
0.122924
0.0265842
0.447839
0.0424567
0.801132
0.0448349
1.0755
0.040723
1.30676
0.0337674
1.55174
0.0252045
1.83865
0.0150881
2.18436
0.00365908
2.60174
-0.00865841
3.10799
-0.0203733
3.10549
-0.0303844
2.59599
-0.0388865
2.1773
-0.0457679
1.83141
-0.0510847
1.54495
-0.053552
1.29991
-0.04907
1.06791
-0.0303915
0.791436
-0.00592384
0.437279
0.117338
0.00360847
0.119315
0.0211769
0.430271
0.0362835
0.786025
0.039212
1.07257
0.035253
1.31072
0.0284967
1.55849
0.0203831
1.84676
0.0108499
2.19389
0.000160382
2.61242
-0.0112762
3.11943
-0.0220174
3.11623
-0.0308513
2.60482
-0.0382144
2.18466
-0.0438057
1.837
-0.048131
1.54928
-0.0497264
1.30151
-0.0441779
1.06236
-0.0257913
0.77305
-0.00507914
0.416567
0.112258
0.00267772
0.116638
0.0163332
0.416615
0.0297919
0.772566
0.0329131
1.06945
0.0293313
1.3143
0.023077
1.56475
0.0156518
1.85419
0.00703714
2.20251
-0.00271729
2.62218
-0.0134005
3.13011
-0.0231326
3.12596
-0.0308137
2.6125
-0.0367767
2.19062
-0.041856
1.84208
-0.0457752
1.55319
-0.0466852
1.30242
-0.0399977
1.05567
-0.0220561
0.755108
-0.0044832
0.398994
0.107775
0.00197588
0.114662
0.012313
0.406278
0.0242467
0.760633
0.0274292
1.06627
0.0239355
1.31779
0.0177702
1.57091
0.0105914
1.86137
0.00257629
2.21052
-0.00660977
2.63137
-0.0171789
3.14068
-0.026449
3.13523
-0.0328857
2.61894
-0.0374972
2.19524
-0.0411224
1.8457
-0.0438656
1.55594
-0.0436013
1.30215
-0.0360847
1.04815
-0.0191062
0.73813
-0.00411946
0.384007
0.103656
0.00127462
0.113387
0.00873649
0.398816
0.0185443
0.750825
0.0211105
1.0637
0.0176963
1.32121
0.0117371
1.57687
0.00487334
1.86823
-0.00271559
2.21811
-0.0113567
2.64001
-0.021075
3.1504
-0.0292928
3.14345
-0.0344605
2.62411
-0.0377584
2.19853
-0.0406959
1.84864
-0.0424042
1.55765
-0.0414566
1.30121
-0.0333604
1.04006
-0.0170275
0.721797
-0.00398781
0.370968
0.0996679
0.000455026
0.112932
0.00466893
0.394603
0.0120632
0.74343
0.0143369
1.06143
0.0110154
1.32453
0.0050947
1.58279
-0.00195297
1.87528
-0.00966876
2.22583
-0.0178419
2.64818
-0.0259997
3.15855
-0.0323328
3.14978
-0.0363057
2.62808
-0.0389583
2.20119
-0.0408383
1.85052
-0.041128
1.55794
-0.0389977
1.29907
-0.030111
1.03117
-0.014815
0.706501
-0.00372684
0.35988
0.0959411
-0.000515779
0.113448
0.000668249
0.393419
0.00572353
0.738375
0.00662154
1.06053
0.00342468
1.32773
-0.00192707
1.58814
-0.00870565
1.88206
-0.0164201
2.23354
-0.024419
2.65618
-0.0317406
3.16588
-0.0370658
3.15511
-0.0400508
2.63106
-0.041563
2.2027
-0.0416282
1.85059
-0.0406333
1.55694
-0.0371284
1.29557
-0.0275454
1.02159
-0.0130225
0.691978
-0.0033771
0.350234
0.092564
-0.00164437
0.115092
-0.00291677
0.394691
-0.000983607
0.736442
-0.000580643
1.06013
-0.00423838
1.33138
-0.00993038
1.59383
-0.0168718
1.889
-0.0246431
2.24131
-0.0327731
2.66431
-0.0399475
3.17305
-0.0442441
3.1594
-0.0456518
2.63247
-0.0453679
2.20241
-0.043873
1.84909
-0.0414415
1.55451
-0.0361201
1.29025
-0.0256042
1.01107
-0.0119522
0.678326
-0.00324997
0.341532
0.089314
-0.00286938
0.117962
-0.00644967
0.398271
-0.00828332
0.738276
-0.0100529
1.0619
-0.0139849
1.33532
-0.0196892
1.59954
-0.0266017
1.89591
-0.0343775
2.24909
-0.0421944
2.67213
-0.0487209
3.17958
-0.0519258
3.16261
-0.0518045
2.63235
-0.0495146
2.20012
-0.0465918
1.84617
-0.0425862
1.5505
-0.0363011
1.28396
-0.0252223
0.999994
-0.0119201
0.665024
-0.00336694
0.332979
0.0859471
-0.00395903
0.121921
-0.010792
0.405104
-0.0155282
0.743012
-0.019302
1.06567
-0.0245345
1.34055
-0.0314969
1.6065
-0.0393832
1.9038
-0.047478
2.25719
-0.0550601
2.67971
-0.0605597
3.18508
-0.0616561
3.1637
-0.0592566
2.62995
-0.0555548
2.19642
-0.0512782
1.84189
-0.0454601
1.54469
-0.0374417
1.27595
-0.0253752
0.987927
-0.0123532
0.652002
-0.00364063
0.324266
0.0823064
-0.00528567
0.127206
-0.0150949
0.414913
-0.0234559
0.751373
-0.029682
1.0719
-0.036124
1.34699
-0.0442354
1.61461
-0.053153
1.91272
-0.0622194
2.26625
-0.0701056
2.68759
-0.0746453
3.18962
-0.0738135
3.16287
-0.0695415
2.62568
-0.063429
2.19031
-0.0567472
1.83521
-0.0493822
1.53732
-0.0402553
1.26682
-0.0275488
0.97522
-0.0139144
0.638368
-0.00411953
0.314471
0.0781869
-0.00638555
0.133592
-0.0184255
0.426953
-0.0302082
0.763156
-0.0393928
1.08108
-0.0482696
1.35587
-0.0583073
1.62465
-0.0689333
1.92334
-0.0793584
2.27668
-0.0879001
2.69614
-0.0923498
3.19407
-0.0901088
3.16063
-0.0836063
2.61918
-0.0753935
2.1821
-0.0669049
1.82672
-0.0577992
1.52821
-0.0466396
1.25566
-0.0318139
0.960395
-0.0164776
0.623031
-0.00492561
0.302919
0.0732613
-0.00862907
0.142221
-0.0245839
0.442908
-0.0402966
0.778868
-0.0523777
1.09316
-0.0632439
1.36673
-0.0754261
1.63683
-0.088084
1.936
-0.100231
2.28882
-0.110021
2.70593
-0.114318
3.19836
-0.110051
3.15636
-0.101262
2.61039
-0.090635
2.17147
-0.0795549
1.81564
-0.0680229
1.51668
-0.0547299
1.24237
-0.0378453
0.94351
-0.0199619
0.605148
-0.00592141
0.288879
0.0673399
-0.0107692
0.15299
-0.0305724
0.462711
-0.0505265
0.798823
-0.0665318
1.10917
-0.0812351
1.38144
-0.0966275
1.65223
-0.112007
1.95138
-0.126279
2.3031
-0.136558
2.7162
-0.139631
3.20144
-0.133993
3.15073
-0.123072
2.59947
-0.109997
2.15839
-0.0968171
1.80246
-0.0829347
1.5028
-0.0660596
1.22549
-0.0450768
0.922527
-0.0236565
0.583727
-0.00695885
0.272181
0.0603811
-0.0152527
0.168243
-0.0417842
0.489243
-0.0672832
0.824321
-0.0874068
1.12929
-0.105013
1.39904
-0.123509
1.67072
-0.142084
1.96996
-0.158425
2.31944
-0.16984
2.72762
-0.172614
3.20421
-0.164231
3.14234
-0.149768
2.585
-0.133382
2.14201
-0.116219
1.7853
-0.0982735
1.48486
-0.0773903
1.20461
-0.0528951
0.898032
-0.0278392
0.558672
-0.00799592
0.252338
0.0523851
-0.0190837
0.187326
-0.0534674
0.523627
-0.0870589
0.857913
-0.113158
1.15539
-0.136405
1.42229
-0.159702
1.69402
-0.181077
1.99133
-0.198922
2.33728
-0.209752
2.73845
-0.209388
3.20385
-0.197507
3.13046
-0.180432
2.56793
-0.161146
2.12272
-0.140922
1.76507
-0.119139
1.46307
-0.0931467
1.17862
-0.0627767
0.867662
-0.0323145
0.528209
-0.00894993
0.228973
0.0434352
-0.0326238
0.21995
-0.0792227
0.570226
-0.121079
0.89977
-0.153689
1.188
-0.182256
1.45086
-0.20842
1.72018
-0.231507
2.01442
-0.249246
2.35502
-0.258566
2.74777
-0.255608
3.20089
-0.239994
3.11485
-0.218015
2.54595
-0.193556
2.09826
-0.167756
1.73927
-0.140107
1.43542
-0.10863
1.14714
-0.0732496
0.832282
-0.0377445
0.492704
-0.0101519
0.201381
0.0332833
-0.0470135
0.266964
-0.117111
0.640323
-0.17427
0.956928
-0.213375
1.2271
-0.246222
1.4837
-0.274551
1.74851
-0.296915
2.03678
-0.311843
2.36995
-0.315948
2.75188
-0.305547
3.19049
-0.28212
3.09142
-0.254852
2.51868
-0.226646
2.07006
-0.197581
1.71021
-0.165974
1.40382
-0.12876
1.10992
-0.0858232
0.789345
-0.0415767
0.448458
-0.00998389
0.169788
0.0232994
-0.0327404
0.299704
-0.0916821
0.699265
-0.144227
1.00947
-0.188139
1.27102
-0.228994
1.52456
-0.264217
1.78373
-0.298268
2.07083
-0.328598
2.40028
-0.350926
2.7742
-0.359261
3.19882
-0.349362
3.08152
-0.3254
2.49472
-0.290722
2.03538
-0.247265
1.66675
-0.198486
1.35504
-0.145195
1.05663
-0.0876822
0.731832
-0.0366707
0.397446
-0.00803007
0.141147
0.0152694
-0.0111155
0.31082
-0.0421991
0.730348
-0.0800857
1.04736
-0.116242
1.30717
-0.151387
1.55971
-0.184972
1.81732
-0.216416
2.10228
-0.2429
2.42676
-0.260522
2.79183
-0.262604
3.2009
-0.24402
3.06294
-0.2115
2.4622
-0.17345
1.99733
-0.134535
1.62784
-0.0942697
1.31477
-0.0544017
1.01677
-0.0219654
0.699396
-0.00337351
0.378854
0.000729935
0.137044
0.0159993
0.00211977
0.3087
-0.0196218
0.75209
-0.0471442
1.07488
-0.0755809
1.33561
-0.104328
1.58845
-0.133196
1.84619
-0.160791
2.12987
-0.183862
2.44983
-0.19837
2.80633
-0.198235
3.20077
-0.179344
3.04405
-0.150552
2.43341
-0.117099
1.96388
-0.0790959
1.58983
-0.0406383
1.27631
-0.00798055
0.984108
0.0120304
0.679385
0.0138077
0.377077
0.00542914
0.145422
0.0214284
0.00252129
0.306179
-0.00859999
0.763211
-0.028698
1.09498
-0.0522268
1.35914
-0.0764027
1.61263
-0.100941
1.87073
-0.124554
2.15348
-0.144177
2.46946
-0.155503
2.81766
-0.152252
3.19752
-0.132796
3.02459
-0.104861
2.40547
-0.070761
1.92978
-0.0364002
1.55547
-0.00811293
1.24803
0.0121991
0.963796
0.0216898
0.669894
0.0179145
0.380852
0.00649282
0.156844
0.0279213
0.00467112
0.301507
-0.00338098
0.771263
-0.0206645
1.11226
-0.0401739
1.37865
-0.0604878
1.63294
-0.0814863
1.89172
-0.101894
2.17389
-0.119037
2.4866
-0.129112
2.82773
-0.127004
3.19541
-0.110158
3.00775
-0.0837045
2.37902
-0.0556254
1.9017
-0.029315
1.52916
-0.00411709
1.22283
0.0151165
0.944562
0.0218614
0.663149
0.0162966
0.386417
0.0055248
0.167616
0.0334461
0.00571722
0.29579
0.000451675
0.776529
-0.0148296
1.12754
-0.0328373
1.39665
-0.0512982
1.6514
-0.0700937
1.91052
-0.0883252
2.19212
-0.103697
2.50197
-0.112552
2.83659
-0.108832
3.19169
-0.0915715
2.99049
-0.0698936
2.35734
-0.0462714
1.87808
-0.021352
1.50424
-1.85969e-05
1.20149
0.014045
0.930499
0.0190202
0.658174
0.0128728
0.392564
0.00405556
0.176433
0.0375016
0.00380614
0.291984
-0.00023137
0.780566
-0.0134056
1.14072
-0.0295899
1.41284
-0.0464956
1.66831
-0.0637754
1.9278
-0.0807253
2.20907
-0.0953676
2.51661
-0.104227
2.84545
-0.102749
3.19021
-0.0891849
2.97692
-0.0680331
2.33619
-0.0448563
1.8549
-0.0244936
1.48388
-0.00581137
1.18281
0.0072955
0.917392
0.0112931
0.654177
0.00840865
0.395449
0.00278502
0.182057
0.0402866
0.0025303
0.289454
-0.000846813
0.783944
-0.0128587
1.15273
-0.0281184
1.4281
-0.0442733
1.68446
-0.0606873
1.94421
-0.0768846
2.22527
-0.0910528
2.53078
-0.0998924
2.85429
-0.0993313
3.18965
-0.0861206
2.96371
-0.0681122
2.31818
-0.0486431
1.83543
-0.0282276
1.46347
-0.0130147
1.1676
-0.0019569
0.906334
0.0029914
0.649228
0.00143642
0.397004
0.000590214
0.182903
0.0408769
-0.000186945
0.289641
-0.00380033
0.787557
-0.0143575
1.16329
-0.0281071
1.44185
-0.0434697
1.69983
-0.0593862
1.96013
-0.07527
2.24115
-0.0895902
2.5451
-0.0996121
2.86431
-0.100368
3.1904
-0.089097
2.95244
-0.0716267
2.30071
-0.0529916
1.81679
-0.0378574
1.44833
-0.0231253
1.15287
-0.0127801
0.895989
-0.00701511
0.643463
-0.00370482
0.393693
-0.0010946
0.180293
0.0397823
-0.000705708
0.290346
-0.00573517
0.792586
-0.0158641
1.17342
-0.028775
1.45476
-0.0435461
1.7146
-0.0590335
1.97562
-0.0747393
2.25686
-0.089226
2.55959
-0.0995064
2.87459
-0.101228
3.19213
-0.0924659
2.94368
-0.0771685
2.28541
-0.0608384
1.80046
-0.044085
1.43158
-0.0301613
1.13894
-0.0187742
0.884602
-0.0110466
0.635736
-0.00662447
0.389271
-0.00198636
0.175655
0.0377959
-0.00264192
0.292988
-0.00805208
0.797997
-0.0175609
1.18293
-0.0297363
1.46693
-0.0438468
1.72871
-0.0590858
1.99086
-0.0750421
2.27282
-0.0904645
2.57501
-0.103076
2.8872
-0.109163
3.19821
-0.10201
2.93653
-0.0866089
2.27001
-0.0681238
1.78198
-0.0520835
1.41554
-0.0379365
1.1248
-0.0267645
0.87343
-0.0176669
0.626638
-0.00865895
0.380263
-0.00263104
0.169627
0.0351649
-0.00390574
0.296894
-0.00949601
0.803587
-0.0188368
1.19227
-0.0306906
1.47879
-0.0443719
1.74239
-0.059335
2.00582
-0.0753592
2.28884
-0.0910396
2.59069
-0.103644
2.89981
-0.109011
3.20358
-0.103206
2.93072
-0.0906554
2.25746
-0.0760397
1.76736
-0.0588006
1.3983
-0.0444787
1.11048
-0.0311105
0.860062
-0.0198564
0.615384
-0.0107188
0.371126
-0.00314045
0.162048
0.0320244
-0.00441758
0.301312
-0.0108131
0.809982
-0.0200312
1.20148
-0.0314356
1.49019
-0.0446449
1.7556
-0.0593806
2.02055
-0.0755143
2.30497
-0.0919861
2.60716
-0.107448
2.91527
-0.118635
3.21477
-0.117185
2.92927
-0.103832
2.24411
-0.0837451
1.74728
-0.0666668
1.38122
-0.0501917
1.094
-0.0370389
0.846909
-0.024706
0.603051
-0.0115472
0.357967
-0.00321849
0.15372
0.0288059
-0.00448551
0.305797
-0.011369
0.816866
-0.0206746
1.21079
-0.0319051
1.50142
-0.0448305
1.76852
-0.0592991
2.03502
-0.0754805
2.32115
-0.0926671
2.62435
-0.108676
2.93128
-0.118927
3.22502
-0.119061
2.9294
-0.110207
2.23525
-0.0954285
1.7325
-0.07435
1.36014
-0.0562224
1.07587
-0.0394026
0.830089
-0.024554
0.588202
-0.0122282
0.345641
-0.00312034
0.144612
0.0256856
-0.00455123
0.310348
-0.0118845
0.824199
-0.0210645
1.21997
-0.0319846
1.51234
-0.0446075
1.78115
-0.0589104
2.04933
-0.0751732
2.33742
-0.0927996
2.64198
-0.110658
2.94914
-0.126732
3.24109
-0.131917
2.93459
-0.121364
2.2247
-0.10145
1.71258
-0.0816943
1.34039
-0.060106
1.05428
-0.0429507
0.812934
-0.0277615
0.573013
-0.0120103
0.32989
-0.00273441
0.135336
0.0229512
-0.00458064
0.314929
-0.0119805
0.831599
-0.0210552
1.22905
-0.0317944
1.52308
-0.0441856
1.79354
-0.0582518
2.06339
-0.0744637
2.35363
-0.0925272
2.66004
-0.11137
2.96798
-0.127272
3.257
-0.132897
2.94021
-0.127719
2.21952
-0.114089
1.69895
-0.0897705
1.31607
-0.0653985
1.02991
-0.0411492
0.788684
-0.0217671
0.553631
-0.00966143
0.317785
-0.00192461
0.127599
0.0210266
-0.00462084
0.31955
-0.0120461
0.839024
-0.0208232
1.23782
-0.0312242
1.53348
-0.0433332
1.80565
-0.0572267
2.07729
-0.0734154
2.36982
-0.0917799
2.6784
-0.111683
2.98788
-0.131486
3.2768
-0.143885
2.95261
-0.139436
2.21507
-0.121227
1.68075
-0.098109
1.29295
-0.068299
1.0001
-0.0413413
0.761727
-0.0188674
0.531157
-0.00499621
0.303913
-0.00220583
0.124809
0.0188207
-0.00455865
0.324109
-0.0118288
0.846294
-0.0203863
1.24638
-0.0305162
1.54361
-0.0423128
1.81744
-0.0559209
2.09089
-0.0719697
2.38587
-0.0905417
2.69698
-0.11116
3.0085
-0.131292
3.29693
-0.143062
2.96438
-0.144675
2.21669
-0.134914
1.67098
-0.108707
1.26674
-0.0747974
0.966193
-0.0331475
0.720077
0.00576407
0.492245
0.0253642
0.284313
0.0221425
0.12803
0.0409632
-0.00443197
0.328541
-0.0115644
0.853427
-0.0197783
1.25459
-0.0295034
1.55334
-0.0409316
1.82887
-0.0542861
2.10425
-0.0701908
2.40177
-0.0887865
2.71557
-0.110039
3.02975
-0.133113
3.32
-0.150925
2.9822
-0.155954
2.22172
-0.143069
1.6581
-0.119818
1.24349
-0.0798148
0.92619
-0.0339209
0.674183
0.0180227
0.440302
0.0376285
0.264707
0.0164601
0.149199
0.0574234
-0.0042191
0.33276
-0.0111219
0.86033
-0.0190735
1.26255
-0.0284503
1.56272
-0.0395142
1.83994
-0.052494
2.11723
-0.0681236
2.4174
-0.0867352
2.73418
-0.108548
3.05157
-0.132405
3.34386
-0.15016
2.99995
-0.158633
2.23019
-0.157802
1.65727
-0.135967
1.22166
-0.0967067
0.886929
-0.0278078
0.605284
0.0751835
0.337311
0.170538
0.169353
0.175104
0.144633
0.232527
-0.0040588
0.336818
-0.0108623
0.867133
-0.0186773
1.27036
-0.0279768
1.57201
-0.0391876
1.85115
-0.0526252
2.13067
-0.0691468
2.43392
-0.089285
2.75432
-0.11367
3.07595
-0.142313
3.3725
-0.16863
3.02627
-0.184265
2.24582
-0.182649
1.65565
-0.166605
1.20561
-0.12577
0.846095
-0.0792057
0.55872
-0.106367
0.364472
-0.36295
0.425936
-0.930248
0.711931
0.895304
-1.59302
-0.00385518
0.340674
-0.0104314
0.873709
-0.0180735
1.278
-0.0272208
1.58116
-0.038287
1.86221
-0.05175
2.14413
-0.0686016
2.45077
-0.0896392
2.77536
-0.115906
3.10222
-0.148087
3.40468
-0.177711
3.05589
-0.198301
2.26642
-0.21693
1.67428
-0.216907
1.20559
-0.207057
0.836245
-0.287014
0.638677
-0.689794
0.767252
-1.41723
1.15337
-2.0301
1.32481
1.21932
-2.35412
-0.00364698
0.344321
-0.00995005
0.880012
-0.0172932
1.28535
-0.0261795
1.59005
-0.0370927
1.87313
-0.0506306
2.15767
-0.0678371
2.46798
-0.0896781
2.7972
-0.117625
3.13016
-0.152936
3.44
-0.189319
3.09227
-0.221852
2.29895
-0.241788
1.69422
-0.247994
1.21179
-0.33588
0.924131
-0.748611
1.05141
-1.51641
1.53505
-2.09529
1.73225
-2.33837
1.56789
1.33521
-2.45427
-0.00342478
0.347745
-0.00938243
0.88597
-0.0164752
1.29244
-0.0251515
1.59872
-0.0358589
1.88383
-0.0493467
2.17115
-0.0667544
2.48539
-0.0893152
2.81976
-0.118952
3.1598
-0.158619
3.47966
-0.202022
3.13568
-0.238011
2.33494
-0.278061
1.73427
-0.367896
1.30163
-0.696839
1.25307
-1.41835
1.77292
-2.01516
2.13185
-2.25799
1.97508
-2.37307
1.68296
1.40126
-2.43911
-0.00315861
0.350904
-0.00873058
0.891542
-0.0154454
1.29915
-0.023795
1.60707
-0.0343546
1.89439
-0.0478308
2.18463
-0.0654441
2.503
-0.0886589
2.84298
-0.119906
3.19105
-0.162112
3.52187
-0.210405
3.18397
-0.26122
2.38575
-0.313914
1.78696
-0.491472
1.47919
-1.07902
1.84063
-1.7697
2.4636
-2.09995
2.4621
-2.25172
2.12685
-2.3353
1.76655
1.46729
-2.40134
-0.0030558
0.35396
-0.00850968
0.896996
-0.0152342
1.30588
-0.0236554
1.6155
-0.0344271
1.90516
-0.048107
2.19831
-0.0661537
2.52105
-0.0902129
2.86703
-0.122946
3.22378
-0.169499
3.56842
-0.22777
3.24224
-0.28048
2.43846
-0.375109
1.88159
-0.750965
1.85504
-1.47385
2.56351
-1.95725
2.94701
-2.15979
2.66463
-2.26747
2.23454
-2.34487
1.84394
1.53188
-2.40946
-0.00310998
0.35707
-0.00879604
0.902682
-0.0158152
1.3129
-0.0246118
1.62429
-0.0358966
1.91645
-0.0502494
2.21266
-0.0691488
2.53995
-0.0943982
2.89228
-0.129243
3.25863
-0.178912
3.61809
-0.237027
3.30035
-0.305592
2.50703
-0.496039
2.07204
-1.03383
2.39284
-1.66332
3.193
-1.94805
3.23173
-2.09738
2.81397
-2.21301
2.35017
-2.30733
1.93826
1.59483
-2.37027
-0.00311325
0.360183
-0.00906351
0.908632
-0.0165518
1.32038
-0.0258787
1.63362
-0.0376453
1.92822
-0.052578
2.2276
-0.0722789
2.55965
-0.0986847
2.91869
-0.13502
3.29496
-0.187785
3.67086
-0.255553
3.36812
-0.348499
2.59997
-0.621528
2.34507
-1.24745
3.01876
-1.74476
3.69031
-1.95511
3.44208
-2.0986
2.95746
-2.22488
2.47645
-2.33839
2.05177
1.65479
-2.39836
-0.00304875
0.363232
-0.00924714
0.914831
-0.0170933
1.32823
-0.0268619
1.64339
-0.039198
1.94055
-0.0548794
2.24328
-0.0754728
2.58024
-0.10309
2.94631
-0.141551
3.33342
-0.197625
3.72693
-0.267007
3.4375
-0.390921
2.72389
-0.764387
2.71853
-1.39266
3.64703
-1.75689
4.05454
-1.93364
3.61883
-2.03939
3.06321
-2.13189
2.56895
-2.20249
2.12237
1.64877
-2.19646
-0.00292189
0.366154
-0.00934781
0.921257
-0.0177436
1.33663
-0.0281285
1.65377
-0.0410118
1.95343
-0.0572825
2.25955
-0.078688
2.60165
-0.107449
2.97507
-0.147256
3.37323
-0.204537
3.78421
-0.286313
3.51928
-0.456081
2.89365
-0.894486
3.15694
-1.44877
4.20132
-1.71688
4.32265
-1.87515
3.77709
-1.97221
3.16027
-1.97762
2.57435
-1.91477
2.05952
1.62331
-1.88931
-0.00258787
0.368742
-0.00927969
0.927948
-0.0179581
1.34531
-0.0286973
1.66451
-0.0420554
1.96679
-0.0588323
2.27633
-0.0806362
2.62345
-0.109717
3.00415
-0.150053
3.41356
-0.207546
3.8417
-0.293662
3.6054
-0.491125
3.09112
-0.964356
3.63017
-1.41402
4.65098
-1.58957
4.4982
-1.66095
3.84848
-1.66875
3.16807
-1.52504
2.43064
-1.02833
1.56281
0.594981
-0.0022106
0.370952
-0.0089914
0.934729
-0.0182763
1.35459
-0.0298266
1.67606
-0.0440868
1.98105
-0.0619735
2.29421
-0.0854635
2.64694
-0.117009
3.0357
-0.16085
3.45741
-0.22301
3.90386
-0.325762
3.70815
-0.575862
3.34122
-1.10225
4.15655
-1.46994
5.01867
-1.57235
4.60062
-1.5733
3.84943
-1.47493
3.06969
-1.23898
2.19469
-0.645199
0.969034
-0.0502182
-0.00172089
0.372673
-0.00833698
0.941345
-0.0178136
1.36407
-0.0299081
1.68816
-0.0451174
1.99626
-0.0643802
2.31347
-0.0896639
2.67223
-0.123729
3.06976
-0.17162
3.5053
-0.241956
3.9742
-0.362753
3.82895
-0.66139
3.63985
-1.20875
4.70391
-1.48441
5.29433
-1.54991
4.66611
-1.53379
3.83332
-1.3358
2.8717
-0.798415
1.65731
-0.116343
0.286962
-0.166561
-0.00101185
0.373685
-0.00728658
0.94762
-0.0172743
1.37405
-0.0301923
1.70107
-0.0461514
2.01222
-0.0664028
2.33373
-0.0932598
2.69908
-0.129737
3.10624
-0.181015
3.55657
-0.256374
4.04956
-0.399202
3.97177
-0.757721
3.99837
-1.29374
5.23993
-1.48067
5.48126
-1.50972
4.69517
-1.42833
3.75192
-1.11619
2.55957
-0.328674
0.869788
0.0305972
-0.0723089
-0.135964
-0.000110081
0.373795
-0.00540583
0.952916
-0.0153354
1.38398
-0.0286569
1.7144
-0.0454144
2.02898
-0.0669381
2.35525
-0.095469
2.72761
-0.134129
3.1449
-0.188065
3.61051
-0.273069
4.13456
-0.441474
4.14018
-0.851605
4.4085
-1.32671
5.71504
-1.4517
5.60625
-1.46271
4.70617
-1.25947
3.54868
-0.714062
2.01416
-0.0684879
0.224213
0.0339049
-0.174702
-0.102059
0.0016854
0.37211
-0.00246261
0.957064
-0.0129784
1.3945
-0.027165
1.72858
-0.044284
2.0461
-0.0665385
2.3775
-0.0961765
2.75725
-0.136546
3.18527
-0.19276
3.66672
-0.284433
4.22624
-0.475184
4.33093
-0.936586
4.86991
-1.32862
6.10707
-1.40255
5.68018
-1.36563
4.66926
-1.07937
3.26242
-0.351829
1.28662
-0.0104098
-0.117206
0.00967633
-0.194788
-0.0923825
0.00354684
0.368563
0.00133274
0.959278
-0.00870952
1.40454
-0.0226309
1.7425
-0.04017
2.06364
-0.0633871
2.40072
-0.094206
2.78807
-0.135797
3.22686
-0.194091
3.72502
-0.293602
4.32575
-0.508102
4.54543
-0.991611
5.35342
-1.27887
6.39433
-1.31991
5.72122
-1.20922
4.55857
-0.817976
2.87118
-0.101431
0.570073
0.0411686
-0.259806
0.0237983
-0.177418
-0.0685842
0.00579244
0.36277
0.00501795
0.960052
-0.00393396
1.41349
-0.0176936
1.75626
-0.0350702
2.08101
-0.0584115
2.42406
-0.0893253
2.81898
-0.131639
3.26917
-0.191166
3.78455
-0.295097
4.42968
-0.526638
4.77697
-1.00218
5.82895
-1.20897
6.60113
-1.22942
5.74167
-1.04076
4.3699
-0.502719
2.33314
-0.00439498
0.0717496
0.014502
-0.278703
0.0160716
-0.178987
-0.0525126
0.00862313
0.354147
0.0108294
0.957846
0.00454934
1.41977
-0.00768362
1.7685
-0.0254782
2.09881
-0.0489088
2.44749
-0.0798435
2.84992
-0.121481
3.31081
-0.180962
3.84403
-0.289599
4.53831
-0.536426
5.0238
-0.974724
6.26725
-1.10845
6.73486
-1.08814
5.72135
-0.859811
4.14158
-0.313003
1.78633
-0.0701544
-0.171099
-0.041056
-0.307801
-0.0112504
-0.208793
-0.063763
0.0127174
0.34143
0.0189648
0.951598
0.0143859
1.42435
0.00338956
1.77949
-0.0140312
2.11623
-0.0360095
2.46947
-0.0651391
2.87905
-0.10549
3.35116
-0.163402
3.90194
-0.271958
4.64687
-0.514247
5.26609
-0.889113
6.64212
-0.975423
6.82117
-0.952203
5.69813
-0.69478
3.88415
-0.154836
1.24639
-0.0715117
-0.254424
-0.0430564
-0.336257
-0.0138174
-0.238032
-0.0775805
0.0178196
0.32361
0.0296918
0.939726
0.0291477
1.4249
0.0198802
1.78876
0.00439615
2.13171
-0.0154994
2.48937
-0.0429461
2.9065
-0.0801548
3.38837
-0.133322
3.95511
-0.237457
4.751
-0.461294
5.48993
-0.756434
6.93726
-0.817878
6.88261
-0.733923
5.61418
-0.439766
3.59
0.00782535
0.798795
0.0271459
-0.273745
0.0194613
-0.328572
0.0189093
-0.23748
-0.0586712
0.024512
0.299098
0.0436506
0.920588
0.047066
1.42148
0.0402132
1.79561
0.0284225
2.1435
0.011151
2.50664
-0.0126351
2.93028
-0.0449432
3.42068
-0.0922396
4.0024
-0.183631
4.8424
-0.371873
5.67817
-0.56952
7.1349
-0.621943
6.93503
-0.562368
5.5546
-0.24699
3.27462
0.08155
0.470255
0.0353407
-0.227535
0.0357366
-0.328968
0.041012
-0.242755
-0.0176592
0.0321766
0.266921
0.0609408
0.891824
0.0720153
1.41041
0.0703907
1.79724
0.0620034
2.15189
0.0478232
2.52082
0.0287541
2.94935
0.00297642
3.44645
-0.0354384
4.04082
-0.098115
4.90507
-0.232728
5.81278
-0.355449
7.25762
-0.438064
7.01765
-0.48975
5.60629
-0.426751
3.21162
-0.460529
0.504033
-0.46961
-0.218455
-0.310056
-0.488523
-0.122079
-0.430731
-0.139739
0.0413555
0.225566
0.0826252
0.850554
0.102091
1.39094
0.105883
1.79345
0.102611
2.15516
0.0937851
2.52965
0.0821422
2.96099
0.0653541
3.46324
0.0414802
4.06469
0.0138161
4.93274
-0.0287623
5.85536
-0.0857988
7.31466
-0.162092
7.09394
-0.306784
5.75098
-0.509099
3.41393
-0.811299
0.806233
-0.807273
-0.22248
-0.599791
-0.696005
-0.283829
-0.746693
-0.423568
0.0501515
0.175414
0.107621
0.793084
0.140454
1.35811
0.15279
1.78111
0.156129
2.15182
0.152461
2.53331
0.148653
2.9648
0.144492
3.4674
0.143691
4.06549
0.148811
4.92762
0.216222
5.78795
0.296526
7.23436
0.306168
7.0843
0.245077
5.81207
-0.0182779
3.67729
-0.483143
1.2711
-0.714401
0.00877835
-0.661622
-0.748783
-0.3412
-1.06711
-0.764768
0.0546208
0.120794
0.13423
0.713475
0.184721
1.30762
0.20817
1.75766
0.219729
2.14026
0.224133
2.52891
0.230729
2.9582
0.240596
3.45754
0.264408
4.04168
0.314434
4.87759
0.511913
5.59047
0.867805
6.87846
1.18883
6.76327
1.51447
5.48644
1.37108
3.82067
0.766892
1.87529
0.27237
0.503301
-0.0348032
-0.44161
-0.139419
-0.962499
-0.904188
0.0497405
0.0710531
0.159782
0.603433
0.237069
1.23033
0.275792
1.71894
0.29725
2.11881
0.310156
2.516
0.32622
2.94214
0.351481
3.43228
0.404521
3.98864
0.516495
4.76562
0.850156
5.25681
1.51363
6.21499
1.93494
6.34196
2.24063
5.18075
2.20177
3.85953
1.74785
2.3292
1.26948
0.981671
0.758701
0.0691721
0.283189
-0.486987
-0.620998
0.0375277
0.0335254
0.183928
0.457033
0.291925
1.12233
0.352857
1.65801
0.386345
2.08532
0.411289
2.49106
0.43599
2.91744
0.474639
3.39363
0.547419
3.91586
0.702126
4.61091
1.08754
4.87139
1.82879
5.47374
2.24661
5.92414
2.48957
4.9378
2.50122
3.84789
2.11023
2.72019
1.54211
1.54979
0.955504
0.655774
0.429117
0.0394006
-0.191882
0.029059
0.00446642
0.205175
0.280917
0.356868
0.97064
0.443626
1.57125
0.48939
2.03955
0.524414
2.45604
0.554397
2.88746
0.599463
3.34856
0.670305
3.84502
0.815318
4.4659
1.09752
4.58919
1.76518
4.80608
2.15005
5.53927
2.3125
4.77534
2.28705
3.87334
2.02118
2.98606
1.52072
2.05025
0.973523
1.20297
0.406407
0.606517
0.214525
0.0287574
-0.0242909
0.192173
0.117501
0.412845
0.749968
0.539256
1.44484
0.602468
1.97634
0.647653
2.41085
0.680778
2.85433
0.717961
3.31138
0.765789
3.79719
0.863819
4.36787
1.01684
4.43616
1.45946
4.36346
1.87856
5.12017
1.92528
4.72861
1.84065
3.95798
1.62249
3.20422
1.22649
2.44624
0.763027
1.66644
0.317025
1.05252
0.53155
0.0292302
-0.0535211
0.133392
0.0133393
0.371769
0.511591
0.52885
1.28776
0.597421
1.90777
0.623508
2.38476
0.633212
2.84463
0.629731
3.31486
0.619907
3.80701
0.614946
4.37283
0.641048
4.41006
0.810068
4.19444
1.02827
4.90197
1.02052
4.73637
0.932145
4.04635
0.801267
3.3351
0.609564
2.63794
0.368325
1.90768
0.142687
1.27816
0.674237
0.0221486
-0.0756697
0.0695495
-0.0340617
0.211646
0.369495
0.343244
1.15616
0.419773
1.83124
0.454489
2.35005
0.474478
2.82464
0.47951
3.30983
0.474928
3.8116
0.468174
4.37958
0.462512
4.41572
0.55597
4.10099
0.712926
4.74501
0.713095
4.7362
0.633198
4.12625
0.530162
3.43814
0.397491
2.77061
0.232598
2.07257
0.0790154
1.43174
0.753253
0.0193697
-0.0950393
0.0347858
-0.0494778
0.0830768
0.321204
0.168626
1.07061
0.239199
1.76067
0.286715
2.30253
0.321745
2.78961
0.34052
3.29105
0.349719
3.8024
0.349931
4.37937
0.331648
4.43401
0.370715
4.06192
0.472137
4.64359
0.47421
4.73413
0.417157
4.1833
0.33384
3.52145
0.234263
2.87019
0.11849
2.18835
0.0226462
1.52758
0.775899
0.00470386
-0.0997432
-0.0127923
-0.0319816
-0.026449
0.33486
0.0137258
1.03043
0.0708886
1.70351
0.128859
2.24456
0.179767
2.7387
0.21921
3.25161
0.245503
3.7761
0.249704
4.37517
0.230245
4.45346
0.241417
4.05075
0.300907
4.5841
0.296346
4.73869
0.251902
4.22775
0.189099
3.58426
0.119731
2.93956
0.0477907
2.26029
-0.0119427
1.58732
0.763956
-0.0156608
-0.0840824
-0.060823
0.0131806
-0.104897
0.378935
-0.104802
1.03034
-0.0566821
1.65539
0.00537361
2.1825
0.0620455
2.68203
0.11496
3.19869
0.148354
3.74271
0.158759
4.36476
0.148688
4.46354
0.15208
4.04735
0.178887
4.5573
0.16262
4.75495
0.126207
4.26416
0.0830144
3.62745
0.0391506
2.98342
-0.00975823
2.30919
-0.0364106
1.61397
0.727546
-0.0323407
-0.0517417
-0.0940641
0.074904
-0.1572
0.442071
-0.170893