/*--------------------------------*- C++ -*----------------------------------*\
  =========                 |
  \\      /  F ield         | OpenFOAM: The Open Source CFD Toolbox
   \\    /   O peration     | Website:  https://openfoam.org
    \\  /    A nd           | Version:  9
     \\/     M anipulation  |
\*---------------------------------------------------------------------------*/
FoamFile
{
    format      ascii;
    class       volScalarField;
    location    "21";
    object      p;
}
// * * * * * * * * * * * * * * * * * * * * * * * * * * * * * * * * * * * * * //

dimensions      [0 2 -2 0 0 0 0];

internalField   nonuniform List<scalar> 
2200
(
0.397916
0.376424
0.360528
0.344872
0.33029
0.317802
0.307461
0.299352
0.293608
0.290629
0.290926
0.294455
0.300608
0.309003
0.319549
0.332186
0.346865
0.362589
0.378526
0.400037
0.330302
0.327047
0.324142
0.320061
0.314643
0.308207
0.301632
0.295688
0.291136
0.288667
0.288973
0.292032
0.296998
0.303258
0.310055
0.316641
0.322172
0.32632
0.32926
0.332537
0.290383
0.290619
0.292709
0.294079
0.294494
0.293676
0.291738
0.289117
0.286596
0.28497
0.285331
0.287568
0.290553
0.293515
0.295698
0.296686
0.296397
0.295141
0.293145
0.292926
0.267895
0.269372
0.272003
0.274484
0.276965
0.279035
0.280183
0.2804
0.280005
0.27957
0.279975
0.281101
0.282029
0.282209
0.281354
0.279499
0.277169
0.274807
0.272241
0.270783
0.253477
0.255437
0.258322
0.261263
0.264218
0.267104
0.269591
0.27146
0.27258
0.273161
0.273641
0.273885
0.27339
0.271981
0.269837
0.267198
0.264412
0.261569
0.258747
0.256806
0.246299
0.24785
0.250111
0.252751
0.255503
0.258218
0.260847
0.263337
0.26535
0.266705
0.267272
0.266909
0.265658
0.263733
0.261503
0.259085
0.256546
0.254046
0.251861
0.250318
0.243374
0.244375
0.245688
0.247605
0.249795
0.251975
0.254091
0.25628
0.258408
0.260139
0.260801
0.260267
0.259067
0.257578
0.25595
0.254141
0.252216
0.250484
0.249262
0.248262
0.241093
0.241752
0.242502
0.244011
0.245828
0.247633
0.249351
0.251063
0.252801
0.254363
0.255194
0.255106
0.254509
0.253635
0.252538
0.25116
0.24966
0.24836
0.247713
0.247053
0.238217
0.238559
0.239162
0.240672
0.242455
0.24428
0.246048
0.247694
0.249241
0.25063
0.251689
0.252127
0.251976
0.251379
0.250344
0.249052
0.24764
0.246383
0.245885
0.24554
0.235361
0.235483
0.236019
0.237401
0.239052
0.240859
0.242766
0.244657
0.246426
0.247997
0.249286
0.249945
0.249854
0.249244
0.248277
0.247178
0.245985
0.244918
0.244514
0.244393
0.232828
0.23281
0.233222
0.234169
0.235375
0.236816
0.238507
0.240429
0.242478
0.244485
0.246094
0.246949
0.247029
0.2467
0.246205
0.24554
0.244859
0.24427
0.244033
0.24402
0.229884
0.229824
0.23013
0.230724
0.23159
0.232694
0.234015
0.235686
0.237718
0.240011
0.242066
0.243446
0.244232
0.244506
0.244482
0.244337
0.244189
0.244027
0.243935
0.243936
0.226503
0.226439
0.2267
0.227194
0.228016
0.229069
0.230364
0.232028
0.234073
0.236551
0.239062
0.241029
0.242402
0.243193
0.243601
0.243848
0.243928
0.243925
0.243903
0.243904
0.22274
0.22272
0.222976
0.223491
0.224399
0.225589
0.227134
0.229111
0.231528
0.234466
0.237519
0.239951
0.241645
0.242808
0.243592
0.244043
0.244223
0.244302
0.244322
0.244324
0.218377
0.218371
0.218594
0.219142
0.22006
0.221338
0.223106
0.225448
0.228432
0.23212
0.235989
0.239115
0.241298
0.242852
0.243933
0.244601
0.244985
0.245205
0.245283
0.245274
0.213027
0.213001
0.213258
0.213851
0.214804
0.216156
0.218095
0.220762
0.224331
0.228884
0.233806
0.23789
0.240842
0.242929
0.244421
0.245418
0.246076
0.24648
0.246638
0.24662
0.206709
0.206671
0.206961
0.207599
0.208682
0.210292
0.212593
0.215771
0.22007
0.225628
0.23176
0.236961
0.240803
0.243551
0.24552
0.246859
0.247743
0.248257
0.248465
0.248436
0.199115
0.199082
0.199455
0.200295
0.201684
0.203727
0.206621
0.210617
0.215976
0.222867
0.230444
0.236908
0.241673
0.24509
0.247486
0.249112
0.250184
0.250806
0.251068
0.251036
0.190205
0.190154
0.19061
0.191674
0.193436
0.196029
0.1997
0.20475
0.211506
0.220136
0.229512
0.237452
0.243278
0.247456
0.250391
0.252402
0.253712
0.254459
0.254766
0.25472
0.179293
0.179255
0.179875
0.181257
0.183501
0.18678
0.191428
0.197842
0.206369
0.217165
0.228772
0.238515
0.245658
0.250781
0.254361
0.256818
0.258434
0.259364
0.259749
0.25969
0.16614
0.166056
0.166829
0.168576
0.171454
0.175695
0.18169
0.189882
0.200657
0.214118
0.228383
0.240261
0.248952
0.255185
0.259576
0.262605
0.264601
0.265747
0.266198
0.266113
0.149609
0.149605
0.150715
0.153018
0.156814
0.162412
0.170229
0.180801
0.194465
0.211175
0.228586
0.242957
0.253462
0.261
0.266309
0.269978
0.27239
0.273764
0.274317
0.274219
0.128706
0.12865
0.130164
0.133413
0.138657
0.146275
0.156738
0.170544
0.187861
0.208487
0.229558
0.246764
0.2593
0.268323
0.274723
0.279185
0.282168
0.28388
0.284527
0.284366
0.101209
0.101468
0.103886
0.10859
0.116088
0.126845
0.141055
0.159062
0.180886
0.206131
0.231346
0.251712
0.266528
0.277247
0.284957
0.290396
0.294016
0.296051
0.296828
0.296638
0.0645037
0.0650217
0.0690563
0.0767925
0.0882441
0.103784
0.123086
0.146491
0.173754
0.204295
0.234121
0.257939
0.275263
0.287875
0.297026
0.303607
0.308134
0.310758
0.311711
0.311373
0.0152591
0.0158381
0.0235049
0.0367663
0.0547893
0.0770499
0.103198
0.133303
0.166891
0.203344
0.2381
0.265515
0.285458
0.300124
0.310976
0.318948
0.324506
0.327626
0.328578
0.328144
-0.0513982
-0.0480425
-0.0316
-0.00919477
0.0176127
0.0481932
0.0822906
0.119854
0.16047
0.203569
0.243916
0.275696
0.299124
0.316655
0.329922
0.340036
0.34754
0.351745
0.352867
0.352641
-0.128972
-0.117285
-0.0891887
-0.0568247
-0.0203547
0.019031
0.0612704
0.106562
0.154592
0.204787
0.251492
0.288457
0.315983
0.337074
0.353544
0.366456
0.376637
0.382977
0.385727
0.386128
-0.19521
-0.178588
-0.143353
-0.102709
-0.0572512
-0.00937615
0.0409752
0.0940257
0.149343
0.206377
0.25903
0.300603
0.331682
0.355642
0.374521
0.389392
0.400819
0.408529
0.411552
0.41172
-0.244391
-0.229803
-0.189484
-0.143169
-0.0908118
-0.0358304
0.0218466
0.0820423
0.144099
0.207491
0.265556
0.311138
0.345126
0.371072
0.391342
0.407135
0.419298
0.426902
0.429971
0.430302
-0.284867
-0.271094
-0.227719
-0.17788
-0.120376
-0.059713
0.0041152
0.070481
0.138617
0.207987
0.271114
0.320234
0.356238
0.383305
0.403972
0.419905
0.431995
0.439877
0.443219
0.44358
-0.319666
-0.305647
-0.260118
-0.207884
-0.146349
-0.0811563
-0.0122759
0.0593912
0.133027
0.207785
0.275237
0.326844
0.364196
0.39192
0.413058
0.429323
0.441614
0.449671
0.453204
0.453545
-0.350163
-0.336088
-0.288687
-0.234206
-0.169385
-0.100577
-0.0275185
0.0487121
0.127166
0.206525
0.277683
0.331785
0.370594
0.399197
0.420581
0.436897
0.449304
0.45746
0.461095
0.461196
-0.3777
-0.363678
-0.314541
-0.257732
-0.190122
-0.118429
-0.0419023
0.0382191
0.120817
0.204397
0.279343
0.336099
0.376191
0.405507
0.427488
0.444033
0.456308
0.464578
0.467813
0.467849
-0.402878
-0.389005
-0.338478
-0.279371
-0.20926
-0.135138
-0.0557
0.0277562
0.114075
0.201701
0.280478
0.339694
0.381496
0.411802
0.434115
0.450678
0.462861
0.470879
0.474281
0.474433
-0.426656
-0.412433
-0.361046
-0.29992
-0.227469
-0.151116
-0.0691107
0.017265
0.106972
0.198372
0.280902
0.343263
0.387103
0.418143
0.440818
0.457501
0.469654
0.477605
0.480928
0.48114
-0.448986
-0.43454
-0.382588
-0.319816
-0.245296
-0.166767
-0.0823381
0.00669139
0.0994817
0.194569
0.281061
0.346599
0.391946
0.424219
0.447522
0.4645
0.47672
0.484399
0.487851
0.488065
-0.470036
-0.455662
-0.403246
-0.339165
-0.262958
-0.182354
-0.0955982
-0.00408532
0.0915817
0.19022
0.280555
0.349063
0.396936
0.430598
0.454535
0.471713
0.484057
0.491775
0.495021
0.495182
-0.490356
-0.475855
-0.423134
-0.357985
-0.280442
-0.19798
-0.10907
-0.0152023
0.0831622
0.184988
0.278939
0.350922
0.401714
0.43714
0.46199
0.479522
0.491787
0.499181
0.50236
0.502472
-0.510423
-0.49532
-0.442317
-0.376231
-0.297655
-0.213641
-0.122837
-0.0268291
0.0739348
0.178566
0.276095
0.352043
0.405925
0.443732
0.469844
0.487769
0.499917
0.507204
0.510009
0.509974
-0.530193
-0.514279
-0.460926
-0.393912
-0.314488
-0.229244
-0.136885
-0.0390525
0.0638292
0.17118
0.272416
0.352338
0.409891
0.450676
0.478555
0.49698
0.50869
0.515068
0.517627
0.517475
-0.549482
-0.532838
-0.479041
-0.411079
-0.330891
-0.244676
-0.15109
-0.0517306
0.0530966
0.163075
0.26767
0.351474
0.413205
0.457457
0.487978
0.507323
0.518379
0.523701
0.525352
0.524977
-0.568118
-0.55096
-0.496687
-0.42779
-0.346857
-0.259826
-0.165237
-0.0645906
0.0419502
0.154035
0.261173
0.348895
0.415039
0.463869
0.498057
0.519693
0.530311
0.532394
0.53181
0.531968
-0.586094
-0.568582
-0.513827
-0.444057
-0.362394
-0.274617
-0.179171
-0.0774653
0.030413
0.144174
0.253948
0.345744
0.416158
0.469629
0.508552
0.534029
0.545703
0.544526
0.539266
0.536752
-0.603387
-0.58559
-0.530394
-0.459855
-0.377507
-0.289032
-0.192848
-0.0903171
0.0186303
0.13392
0.245796
0.340116
0.414729
0.473957
0.519074
0.550592
0.567706
0.561613
0.555009
0.559901
-0.620009
-0.60193
-0.546308
-0.475119
-0.392179
-0.303081
-0.206269
-0.103084
0.00667635
0.123013
0.236149
0.332645
0.411382
0.475761
0.527698
0.56742
0.594863
0.582094
0.537596
0.490188
-0.635893
-0.617602
-0.561592
-0.489897
-0.406514
-0.316943
-0.21967
-0.11605
-0.00579622
0.111259
0.225509
0.323793
0.405024
0.474125
0.533054
0.583302
0.626078
0.644374
0.666594
0.716914
-0.650999
-0.632668
-0.576329
-0.504304
-0.420674
-0.33086
-0.233378
-0.129588
-0.0191283
0.0982283
0.212885
0.311349
0.394103
0.466599
0.528173
0.579012
0.61388
0.624654
0.602024
0.608646
-0.665291
-0.647093
-0.590486
-0.51828
-0.434557
-0.344703
-0.247224
-0.143499
-0.0332133
0.0838568
0.19824
0.296702
0.378258
0.449283
0.508799
0.553448
0.560198
0.523973
0.470497
0.462811
-0.678806
-0.660876
-0.604069
-0.531828
-0.448137
-0.358424
-0.261147
-0.157764
-0.0479851
0.0684156
0.181966
0.278445
0.356572
0.42167
0.473733
0.491929
0.463274
0.395952
0.325731
0.315953
-0.691588
-0.674017
-0.617103
-0.544968
-0.461418
-0.372003
-0.275105
-0.172279
-0.0633697
0.051682
0.163355
0.257186
0.329038
0.381309
0.409029
0.399936
0.353524
0.253657
0.16691
0.150946
-0.704084
-0.686929
-0.629981
-0.55807
-0.474748
-0.385731
-0.289337
-0.187293
-0.0795888
0.0336729
0.142801
0.232572
0.296813
0.333798
0.327257
0.29122
0.186872
0.0642877
-0.0436524
-0.0662366
-0.71716
-0.700368
-0.64338
-0.571742
-0.488691
-0.400084
-0.30427
-0.203143
-0.0968256
0.0141682
0.119828
0.204176
0.262283
0.276075
0.235036
0.14673
-0.0134925
-0.168271
-0.296945
-0.321827
-0.731302
-0.714758
-0.657601
-0.586212
-0.503436
-0.415202
-0.319988
-0.21985
-0.115152
-0.00689742
0.0945472
0.172719
0.220037
0.206291
0.1406
-0.0139787
-0.225243
-0.446818
-0.631674
-0.678044
-0.746564
-0.730139
-0.672682
-0.601485
-0.518951
-0.431058
-0.336474
-0.237429
-0.134459
-0.0291567
0.0674703
0.139915
0.17168
0.124471
0.0238212
-0.18061
-0.431787
-0.740919
-1.07895
-1.22039
-0.762996
-0.746635
-0.688714
-0.617633
-0.535278
-0.447704
-0.353759
-0.255831
-0.15471
-0.0528153
0.037866
0.104379
0.119938
0.0366308
-0.11692
-0.348982
-0.610901
-0.987014
-1.60954
-2.1998
-0.780589
-0.764232
-0.705733
-0.634686
-0.552402
-0.465096
-0.371773
-0.275038
-0.175851
-0.077206
0.00759875
0.0665504
0.0638798
-0.0450152
-0.255885
-0.526049
-0.76324
-1.03865
-1.65915
-3.2994
-0.799398
-0.783007
-0.723818
-0.65275
-0.570449
-0.483398
-0.390726
-0.295205
-0.19798
-0.102774
-0.0240389
0.0264256
0.00466395
-0.11216
-0.364621
-0.647616
-0.831819
-0.902849
-0.93374
-1.3538
-0.819349
-0.802922
-0.743112
-0.672085
-0.58975
-0.503009
-0.411086
-0.316963
-0.222102
-0.130821
-0.0576547
-0.0171784
-0.059308
-0.164416
-0.422711
-0.676239
-0.82319
-0.852904
-0.809636
-0.858048
-0.840436
-0.82389
-0.763632
-0.69273
-0.610328
-0.523994
-0.432987
-0.340488
-0.248291
-0.161344
-0.0933743
-0.0617176
-0.117928
-0.218029
-0.465945
-0.672495
-0.784552
-0.809019
-0.8481
-0.863599
-0.862457
-0.845558
-0.785299
-0.714658
-0.632116
-0.546326
-0.456319
-0.365499
-0.276212
-0.194037
-0.13079
-0.108201
-0.171327
-0.282999
-0.506305
-0.672475
-0.764166
-0.738746
-0.766298
-0.766515
-0.885134
-0.867909
-0.808046
-0.737752
-0.654917
-0.569807
-0.480933
-0.392006
-0.306044
-0.22891
-0.169929
-0.157705
-0.220924
-0.353572
-0.548975
-0.675572
-0.744528
-0.765188
-0.760052
-0.768389
-0.907925
-0.890549
-0.831734
-0.761679
-0.678479
-0.594277
-0.506579
-0.419506
-0.336896
-0.264527
-0.209987
-0.211349
-0.268712
-0.423889
-0.597282
-0.69802
-0.711781
-0.772011
-0.744154
-0.754907
-0.930632
-0.913393
-0.855908
-0.785889
-0.702447
-0.619249
-0.532687
-0.447403
-0.368195
-0.300714
-0.24936
-0.262956
-0.325551
-0.489826
-0.638127
-0.736997
-0.716847
-0.757005
-0.742351
-0.743114
-0.952635
-0.935851
-0.879495
-0.80969
-0.726487
-0.644347
-0.5588
-0.475306
-0.399465
-0.336564
-0.287974
-0.310165
-0.390858
-0.552684
-0.661392
-0.745024
-0.767928
-0.738317
-0.755165
-0.748498
-0.973446
-0.957385
-0.901938
-0.832351
-0.750106
-0.668836
-0.584083
-0.50211
-0.42925
-0.371083
-0.325003
-0.348053
-0.464456
-0.640541
-0.677472
-0.646156
-0.698353
-0.69878
-0.727338
-0.731927
-0.99198
-0.976902
-0.922493
-0.853275
-0.772769
-0.691785
-0.607753
-0.526968
-0.456066
-0.4031
-0.359744
-0.375869
-0.536872
-0.74934
-0.767915
-0.656118
-0.703116
-0.716793
-0.745225
-0.747122
-1.00744
-0.993636
-0.940661
-0.871955
-0.793269
-0.712238
-0.628786
-0.549109
-0.47822
-0.429286
-0.393113
-0.390158
-0.595886
-0.888349
-1.0888
-1.11048
-1.11229
-1.09546
-1.06876
-1.04628
-1.01868
-1.00645
-0.955691
-0.887968
-0.810267
-0.729064
-0.646266
-0.567394
-0.495219
-0.445033
-0.421761
-0.393533
-0.639397
-1.01807
-1.55747
-1.9009
-2.00259
-1.9572
-1.82924
-1.73766
-1.02474
-1.01422
-0.966272
-0.899531
-0.822288
-0.741399
-0.659011
-0.580143
-0.506116
-0.449335
-0.432948
-0.400938
-0.626125
-1.01039
-1.55038
-1.9547
-2.01512
-1.91568
-1.80622
-1.74196
-1.02464
-1.01585
-0.971228
-0.905725
-0.828941
-0.748418
-0.665718
-0.585403
-0.50875
-0.443294
-0.418988
-0.375851
-0.510209
-0.656051
-0.827131
-0.923536
-0.874287
-0.781133
-0.670793
-0.569542
-1.01679
-1.00933
-0.968779
-0.904776
-0.828838
-0.748921
-0.665598
-0.582631
-0.50177
-0.422983
-0.375168
-0.287834
-0.249484
-0.0515836
0.163348
0.33902
0.513001
0.644782
0.719521
0.752228
-0.999488
-0.992757
-0.957906
-0.896663
-0.8219
-0.742361
-0.658497
-0.572658
-0.486726
-0.38825
-0.3098
-0.182155
0.0417783
0.414877
0.833476
1.17383
1.41768
1.56558
1.63201
1.65242
-0.970105
-0.963891
-0.936811
-0.880054
-0.807827
-0.729141
-0.645445
-0.556828
-0.465771
-0.353382
-0.24115
-0.121798
0.176076
0.572764
1.00883
1.374
1.64325
1.8027
1.87021
1.88712
-0.92841
-0.924237
-0.905581
-0.854798
-0.786257
-0.709917
-0.628633
-0.539392
-0.445133
-0.334439
-0.206653
-0.122794
0.115763
0.470271
0.846995
1.16539
1.417
1.57191
1.64265
1.6641
-0.881822
-0.881183
-0.868796
-0.823711
-0.75927
-0.686654
-0.610177
-0.524937
-0.432638
-0.332855
-0.20622
-0.135662
0.0243572
0.290602
0.581122
0.822839
1.0169
1.1458
1.20978
1.23334
-0.828666
-0.831175
-0.820049
-0.782234
-0.725778
-0.660589
-0.590583
-0.515845
-0.42953
-0.340547
-0.221359
-0.130045
-0.0202357
0.159038
0.378137
0.550027
0.683001
0.777325
0.824455
0.839521
-0.752675
-0.755636
-0.748254
-0.722009
-0.678798
-0.627599
-0.570586
-0.509475
-0.435683
-0.35076
-0.234999
-0.130728
-0.0598471
0.0707502
0.236907
0.35488
0.446668
0.513438
0.542546
0.549847
-0.668647
-0.669378
-0.66497
-0.650363
-0.622316
-0.587646
-0.547254
-0.502001
-0.444266
-0.366969
-0.260677
-0.15936
-0.107872
-0.00946416
0.107319
0.185962
0.250653
0.300588
0.314186
0.317698
-0.597122
-0.597246
-0.594069
-0.586092
-0.571051
-0.549637
-0.52357
-0.491175
-0.44709
-0.39739
-0.304685
-0.212479
-0.152187
-0.0912405
-0.0104977
0.0475897
0.0973443
0.131535
0.151457
0.15648
-0.551353
-0.550998
-0.549263
-0.545658
-0.538646
-0.527519
-0.514475
-0.497109
-0.476107
-0.447737
-0.373969
-0.289957
-0.215474
-0.174008
-0.115092
-0.0678476
-0.0251535
0.0023245
0.0224737
0.0273689
-0.532213
-0.532039
-0.531758
-0.531015
-0.529362
-0.526863
-0.526553
-0.528046
-0.538182
-0.538242
-0.508084
-0.419728
-0.322796
-0.26616
-0.215387
-0.173266
-0.128818
-0.0974437
-0.0877851
-0.0854384
-0.529421
-0.529782
-0.530717
-0.532514
-0.53552
-0.541205
-0.554344
-0.579107
-0.626245
-0.674888
-0.714276
-0.626474
-0.490244
-0.396886
-0.317988
-0.260716
-0.213618
-0.181238
-0.17607
-0.177857
-0.52872
-0.529854
-0.532189
-0.5365
-0.543866
-0.557866
-0.585465
-0.637428
-0.730943
-0.855364
-0.96691
-0.885603
-0.733174
-0.601532
-0.464033
-0.349035
-0.284075
-0.264536
-0.25877
-0.264777
-0.516686
-0.518567
-0.521605
-0.528301
-0.539811
-0.560427
-0.60046
-0.676052
-0.814088
-1.03557
-1.21138
-1.11802
-0.923846
-0.754625
-0.590825
-0.476772
-0.42078
-0.387616
-0.378791
-0.380678
-0.484302
-0.486319
-0.489114
-0.495747
-0.510199
-0.534848
-0.579511
-0.662315
-0.813685
-1.06415
-1.28245
-1.18876
-0.977265
-0.780696
-0.639339
-0.557991
-0.505422
-0.491111
-0.484591
-0.483347
-0.429586
-0.431505
-0.434872
-0.440226
-0.451362
-0.473784
-0.516134
-0.593747
-0.733708
-0.949045
-1.11927
-1.02399
-0.832337
-0.690276
-0.612123
-0.559938
-0.529616
-0.530841
-0.528924
-0.527425
-0.35429
-0.355674
-0.358151
-0.362604
-0.371052
-0.387926
-0.419977
-0.479675
-0.585448
-0.738234
-0.844946
-0.747506
-0.616085
-0.56285
-0.539175
-0.512298
-0.515324
-0.516572
-0.515941
-0.513851
-0.269098
-0.269885
-0.271231
-0.273577
-0.278424
-0.288778
-0.3086
-0.346101
-0.411554
-0.501991
-0.568942
-0.473536
-0.420735
-0.422937
-0.425406
-0.44307
-0.449104
-0.451053
-0.449897
-0.447436
-0.186007
-0.186319
-0.186763
-0.187294
-0.188835
-0.193
-0.201481
-0.218506
-0.248011
-0.288164
-0.309937
-0.264082
-0.273198
-0.288178
-0.312819
-0.345925
-0.346091
-0.350907
-0.352262
-0.352464
-0.114008
-0.113993
-0.11392
-0.113409
-0.11291
-0.112937
-0.113459
-0.115698
-0.118718
-0.112338
-0.104391
-0.134589
-0.164121
-0.19202
-0.223623
-0.246138
-0.252182
-0.25685
-0.259247
-0.259737
-0.0578144
-0.0576261
-0.0574084
-0.0566467
-0.0555047
-0.053897
-0.050936
-0.0464404
-0.0391865
-0.0219268
-0.00710565
-0.0436085
-0.0883403
-0.121718
-0.152033
-0.16812
-0.175141
-0.180008
-0.181922
-0.182455
-0.0181533
-0.0179135
-0.0177743
-0.0172652
-0.0163179
-0.01473
-0.0114265
-0.00592342
0.00260065
0.0162931
0.0272556
-0.00866416
-0.0461729
-0.073523
-0.0991923
-0.111631
-0.118048
-0.121539
-0.12293
-0.123475
0.00689285
0.00711044
0.00713342
0.00724397
0.00778472
0.00880254
0.0112125
0.0153401
0.0217582
0.0301839
0.0351552
0.00644252
-0.0223014
-0.0427642
-0.0627888
-0.0716436
-0.0767214
-0.0790882
-0.0802793
-0.08075
0.0207268
0.0208905
0.0208436
0.0206334
0.0207906
0.0212545
0.0226357
0.025051
0.0287607
0.0326974
0.0329649
0.0123007
-0.00919494
-0.0246599
-0.0376602
-0.044318
-0.0481413
-0.049929
-0.0508997
-0.0512726
0.0267781
0.0268871
0.0268011
0.0264263
0.0262641
0.0262729
0.0268236
0.0279172
0.0295569
0.030497
0.0279099
0.0133512
-0.00217158
-0.0132766
-0.0218443
-0.0264398
-0.0298745
-0.0310613
-0.0317135
-0.0319401
0.0277913
0.0278601
0.027745
0.0272928
0.0268996
0.026556
0.0264775
0.0266544
0.0269825
0.0263458
0.0227397
0.0124815
0.00154323
-0.0062786
-0.0121757
-0.015586
-0.0176231
-0.0185071
-0.0189255
-0.0191124
0.0255775
0.0256212
0.0254892
0.025028
0.0245217
0.0239816
0.0235147
0.0231264
0.0227056
0.021418
0.0179152
0.0107216
0.00321711
-0.00216966
-0.00615976
-0.00852213
-0.00989671
-0.0105637
-0.0108885
-0.01101
0.0213569
0.021385
0.0212607
0.0208531
0.0203512
0.0197818
0.0191744
0.0185478
0.0177881
0.0163546
0.0134179
0.00848807
0.00350257
-0.000101356
-0.00274127
-0.00434474
-0.00528872
-0.0057607
-0.00599712
-0.00607485
0.0159706
0.0159923
0.0158946
0.0155846
0.015175
0.0147044
0.0141517
0.0135579
0.0127919
0.0115413
0.00933201
0.00609126
0.00293865
0.000695118
-0.000934656
-0.00194729
-0.00255843
-0.00288051
-0.00301656
-0.00305958
0.00990592
0.00992427
0.00987267
0.00967033
0.00939122
0.0090721
0.00868879
0.00829517
0.00773917
0.00691742
0.00554645
0.00368435
0.0018769
0.000589474
-0.000328264
-0.000882416
-0.00119342
-0.00133012
-0.00137291
-0.00139937
0.00348601
0.00349544
0.00349599
0.00339433
0.00327033
0.00312924
0.00296914
0.00285625
0.00260874
0.00235216
0.00186223
0.00124747
0.000605035
8.46711e-05
-0.000347903
-0.000583305
-0.000669576
-0.000657647
-0.000604995
-0.000575963
-1.56871
-0.67093
-0.396113
-0.103218
0.0954397
0.267834
0.413593
0.561598
0.719
0.795908
-0.538759
-0.105025
-0.0737371
0.124634
0.263935
0.388503
0.497172
0.592505
0.625194
0.580161
-0.126032
0.103164
0.150441
0.292195
0.389118
0.477635
0.550819
0.605244
0.610618
0.62224
0.123706
0.279963
0.317094
0.42878
0.489888
0.553634
0.602441
0.636839
0.64734
0.670174
0.317675
0.425203
0.454852
0.532059
0.576886
0.622289
0.656779
0.682163
0.692931
0.723749
0.466724
0.541376
0.571872
0.619904
0.657346
0.689623
0.71541
0.736636
0.751579
0.779324
0.591418
0.644933
0.671449
0.701748
0.731055
0.755993
0.776858
0.796517
0.811866
0.838041
0.698381
0.737409
0.759231
0.780944
0.802925
0.823132
0.841007
0.859448
0.874476
0.89803
0.794808
0.82419
0.841718
0.857659
0.874528
0.891078
0.906894
0.924065
0.937656
0.959951
0.884346
0.905427
0.920767
0.934341
0.948287
0.962351
0.975946
0.990603
1.00215
1.02182
0.971039
0.986993
1.00105
1.01311
1.02523
1.03695
1.04812
1.05984
1.06751
1.08433
1.05675
1.06974
1.08358
1.0953
1.10591
1.11568
1.12447
1.13273
1.13631
1.14759
1.14625
1.15724
1.17074
1.17995
1.18739
1.19457
1.20179
1.2084
1.20938
1.2168
1.24476
1.24949
1.25753
1.26201
1.26528
1.26975
1.27574
1.28352
1.28733
1.29723
1.35809
1.34437
1.33692
1.33126
1.32857
1.32997
1.33651
1.34894
1.36367
1.39331
1.47888
1.42323
1.39235
1.37527
1.36715
1.36716
1.37581
1.39525
1.42732
1.49647
)
;

boundaryField
{
    wall-4
    {
        type            zeroGradient;
    }
    pressure-outlet-7
    {
        type            fixedValue;
        value           uniform 0;
    }
    velocity-inlet-6
    {
        type            zeroGradient;
    }
    velocity-inlet-5
    {
        type            zeroGradient;
    }
    frontAndBackPlanes
    {
        type            empty;
    }
}


// ************************************************************************* //
