/*--------------------------------*- C++ -*----------------------------------*\
  =========                 |
  \\      /  F ield         | OpenFOAM: The Open Source CFD Toolbox
   \\    /   O peration     | Website:  https://openfoam.org
    \\  /    A nd           | Version:  9
     \\/     M anipulation  |
\*---------------------------------------------------------------------------*/
FoamFile
{
    format      ascii;
    class       volVectorField;
    location    "21";
    object      U;
}
// * * * * * * * * * * * * * * * * * * * * * * * * * * * * * * * * * * * * * //

dimensions      [0 1 -1 0 0 0 0];

internalField   nonuniform List<vector> 
2200
(
(0.878802 -0.0304063 0)
(1.00575 -0.0513025 0)
(1.00315 -0.0354041 0)
(1.00022 -0.024521 0)
(1.00004 -0.0167884 0)
(1.00015 -0.0108249 0)
(0.999982 -0.00691322 0)
(0.99985 -0.00422748 0)
(0.999852 -0.00226471 0)
(1.00017 -0.000784173 0)
(1.00006 0.000972995 0)
(0.999871 0.00245049 0)
(0.999833 0.00437412 0)
(0.999985 0.0070779 0)
(1.00016 0.0109348 0)
(1.00004 0.0168906 0)
(1.00025 0.0246108 0)
(1.00323 0.0354491 0)
(1.00576 0.0513294 0)
(0.87881 0.0304274 0)
(0.711985 -0.0327305 0)
(0.996605 -0.0629376 0)
(1.03322 -0.0561202 0)
(1.02473 -0.046342 0)
(1.01564 -0.0360927 0)
(1.00956 -0.0265705 0)
(1.00604 -0.0183339 0)
(1.00405 -0.0115056 0)
(1.00287 -0.00599154 0)
(1.00219 -0.00155036 0)
(1.00218 0.00220056 0)
(1.00278 0.00664798 0)
(1.00402 0.0120847 0)
(1.00598 0.0188176 0)
(1.00948 0.0270418 0)
(1.0156 0.036483 0)
(1.0246 0.0466299 0)
(1.03297 0.0564056 0)
(0.996455 0.0630961 0)
(0.711751 0.0327739 0)
(0.535967 -0.0238703 0)
(0.970039 -0.0567506 0)
(1.05645 -0.0544663 0)
(1.05205 -0.0483153 0)
(1.03592 -0.0398672 0)
(1.02434 -0.0316688 0)
(1.01597 -0.0235287 0)
(1.01035 -0.0159692 0)
(1.00694 -0.00894474 0)
(1.00541 -0.00247103 0)
(1.00536 0.00366809 0)
(1.00685 0.0101087 0)
(1.01021 0.0170314 0)
(1.01577 0.0244625 0)
(1.02408 0.0323702 0)
(1.03557 0.0404192 0)
(1.05174 0.0487553 0)
(1.05623 0.0546588 0)
(0.969501 0.0570114 0)
(0.535253 0.0239244 0)
(0.392995 -0.0135127 0)
(0.912282 -0.0462407 0)
(1.05781 -0.0465623 0)
(1.07002 -0.0440086 0)
(1.05505 -0.0375145 0)
(1.03924 -0.0306484 0)
(1.02749 -0.0240226 0)
(1.01903 -0.0171142 0)
(1.01358 -0.010047 0)
(1.01089 -0.00286086 0)
(1.01084 0.00452068 0)
(1.01342 0.0115584 0)
(1.01866 0.0184214 0)
(1.02697 0.0250677 0)
(1.03863 0.0315715 0)
(1.05447 0.0383438 0)
(1.06937 0.0447595 0)
(1.05684 0.0471609 0)
(0.911102 0.0465629 0)
(0.391571 0.0136011 0)
(0.30931 -0.00440425 0)
(0.847592 -0.0319595 0)
(1.04992 -0.0395523 0)
(1.07988 -0.0379196 0)
(1.06865 -0.0333438 0)
(1.05156 -0.0276769 0)
(1.038 -0.0223916 0)
(1.0279 -0.0164508 0)
(1.02115 -0.00982486 0)
(1.0177 -0.0026373 0)
(1.01752 0.0049867 0)
(1.0207 0.0119499 0)
(1.02728 0.0182977 0)
(1.03723 0.0240746 0)
(1.05084 0.029155 0)
(1.06781 0.0345467 0)
(1.07884 0.0388863 0)
(1.04845 0.0403488 0)
(0.845263 0.032324 0)
(0.307074 0.00449965 0)
(0.266981 0.000165106 0)
(0.791483 -0.0193756 0)
(1.03386 -0.0301484 0)
(1.08347 -0.0307708 0)
(1.07739 -0.0279692 0)
(1.06106 -0.0234761 0)
(1.04706 -0.0191335 0)
(1.0357 -0.0143373 0)
(1.02772 -0.00872737 0)
(1.02346 -0.00203373 0)
(1.02318 0.00507045 0)
(1.027 0.0115712 0)
(1.03467 0.0168906 0)
(1.04597 0.0213145 0)
(1.05967 0.0252758 0)
(1.07592 0.029458 0)
(1.08176 0.031921 0)
(1.03157 0.030999 0)
(0.788042 0.0197666 0)
(0.263997 -8.29381e-05 0)
(0.244327 0.00126145 0)
(0.743726 -0.0115913 0)
(1.01561 -0.0233081 0)
(1.08335 -0.0247954 0)
(1.08193 -0.0228138 0)
(1.06705 -0.0191914 0)
(1.05375 -0.0157332 0)
(1.04304 -0.0115091 0)
(1.03504 -0.00670443 0)
(1.03017 -0.00097465 0)
(1.02987 0.00478557 0)
(1.03418 0.0102681 0)
(1.04175 0.0146813 0)
(1.05184 0.0184604 0)
(1.06514 0.0215288 0)
(1.07978 0.0247802 0)
(1.08072 0.0263936 0)
(1.01186 0.0244659 0)
(0.738479 0.0120976 0)
(0.240349 -0.00115197 0)
(0.231299 0.00115121 0)
(0.702818 -0.00727104 0)
(0.996185 -0.0192753 0)
(1.08161 -0.0211962 0)
(1.08491 -0.0192638 0)
(1.07137 -0.0162179 0)
(1.05836 -0.0128933 0)
(1.04834 -0.00897904 0)
(1.04077 -0.00469863 0)
(1.03607 5.73243e-05 0)
(1.03564 0.00470306 0)
(1.03952 0.00909398 0)
(1.04632 0.0128465 0)
(1.05622 0.0161773 0)
(1.06888 0.0191036 0)
(1.08194 0.0216168 0)
(1.07806 0.0231335 0)
(0.991006 0.0206519 0)
(0.695515 0.00785147 0)
(0.226211 -0.00100576 0)
(0.223935 0.000722531 0)
(0.670864 -0.00401654 0)
(0.977739 -0.0147887 0)
(1.07941 -0.0169323 0)
(1.0875 -0.0154955 0)
(1.0746 -0.0131396 0)
(1.0612 -0.0102385 0)
(1.05095 -0.00690363 0)
(1.0434 -0.0031819 0)
(1.03887 0.000851944 0)
(1.03812 0.00511466 0)
(1.04144 0.00878252 0)
(1.04823 0.0119579 0)
(1.05784 0.0148201 0)
(1.07082 0.016756 0)
(1.08343 0.0185935 0)
(1.07433 0.0194503 0)
(0.970259 0.0164387 0)
(0.661162 0.00472872 0)
(0.21744 -0.000537858 0)
(0.220876 0.00040092 0)
(0.650699 -0.00127425 0)
(0.962191 -0.00914623 0)
(1.07647 -0.011384 0)
(1.08966 -0.0107893 0)
(1.07737 -0.00905942 0)
(1.0635 -0.00720387 0)
(1.05262 -0.00474959 0)
(1.04476 -0.0016571 0)
(1.04023 0.00190114 0)
(1.03939 0.00594448 0)
(1.04256 0.00891187 0)
(1.04938 0.011226 0)
(1.05917 0.0123905 0)
(1.07288 0.0136638 0)
(1.08422 0.0146081 0)
(1.06958 0.0143047 0)
(0.952063 0.0110773 0)
(0.638199 0.00213062 0)
(0.212624 -0.000225546 0)
(0.220559 0.000188245 0)
(0.640507 0.00015839 0)
(0.95032 -0.00451819 0)
(1.07338 -0.00647428 0)
(1.0913 -0.00649276 0)
(1.08049 -0.00528146 0)
(1.06665 -0.00385836 0)
(1.05577 -0.00217985 0)
(1.04759 0.000166045 0)
(1.04267 0.00301611 0)
(1.04151 0.00634792 0)
(1.04438 0.00846441 0)
(1.05105 0.00989238 0)
(1.06149 0.0106318 0)
(1.07448 0.0110229 0)
(1.08395 0.0110956 0)
(1.06402 0.0100293 0)
(0.937404 0.00684948 0)
(0.624874 0.000864668 0)
(0.210193 2.18712e-05 0)
(0.221409 1.37889e-06 0)
(0.636803 0.000635255 0)
(0.943507 -0.00176194 0)
(1.07112 -0.00360475 0)
(1.09255 -0.00385752 0)
(1.08307 -0.00300552 0)
(1.07001 -0.00184011 0)
(1.05971 -0.000105505 0)
(1.0519 0.00213225 0)
(1.04695 0.00467645 0)
(1.04535 0.00731177 0)
(1.04751 0.00898391 0)
(1.05328 0.00988534 0)
(1.06195 0.0107097 0)
(1.07402 0.00994252 0)
(1.08271 0.00932546 0)
(1.05887 0.00794097 0)
(0.926734 0.00483092 0)
(0.617293 0.000772148 0)
(0.208587 0.000169523 0)
(0.222768 4.57349e-05 0)
(0.636657 0.000901424 0)
(0.939395 -0.000215534 0)
(1.06908 -0.00157581 0)
(1.09265 -0.00186708 0)
(1.08404 -0.00150502 0)
(1.07168 -0.000715299 0)
(1.06185 0.00110538 0)
(1.05449 0.0033979 0)
(1.04965 0.00619307 0)
(1.04763 0.00876465 0)
(1.04903 0.0105077 0)
(1.05394 0.0111554 0)
(1.06156 0.0110889 0)
(1.07301 0.0101239 0)
(1.08 0.00924614 0)
(1.0531 0.00731183 0)
(0.917472 0.00410756 0)
(0.610956 0.00098986 0)
(0.206349 0.000241596 0)
(0.224601 0.000267909 0)
(0.637542 0.00120502 0)
(0.936305 0.00109293 0)
(1.06714 1.62241e-05 0)
(1.09201 -0.00048991 0)
(1.08411 -0.00027047 0)
(1.07227 0.000655548 0)
(1.06269 0.00257047 0)
(1.0553 0.00499564 0)
(1.05026 0.00809552 0)
(1.04787 0.0107206 0)
(1.0488 0.0125514 0)
(1.05311 0.0129862 0)
(1.06038 0.0122046 0)
(1.0708 0.0110419 0)
(1.07593 0.00922744 0)
(1.04687 0.00657041 0)
(0.909623 0.0033769 0)
(0.605959 0.000954889 0)
(0.204239 0.000228278 0)
(0.22783 0.00041302 0)
(0.640696 0.00158771 0)
(0.936036 0.0024965 0)
(1.06531 0.00182294 0)
(1.09133 0.00129568 0)
(1.08492 0.00130189 0)
(1.07407 0.00221591 0)
(1.06499 0.004204 0)
(1.05765 0.00689688 0)
(1.0521 0.0102471 0)
(1.04896 0.0129108 0)
(1.049 0.0146943 0)
(1.05225 0.0149436 0)
(1.05834 0.0142249 0)
(1.06723 0.012546 0)
(1.07049 0.0100158 0)
(1.03944 0.00676225 0)
(0.901583 0.00334969 0)
(0.600626 0.00111364 0)
(0.201854 0.000263005 0)
(0.231204 0.00041399 0)
(0.644798 0.00190212 0)
(0.937257 0.00351981 0)
(1.06403 0.00316414 0)
(1.09097 0.00278639 0)
(1.08631 0.0029228 0)
(1.07691 0.00439327 0)
(1.06862 0.0068003 0)
(1.06139 0.00986999 0)
(1.05528 0.0133763 0)
(1.05115 0.0159671 0)
(1.05004 0.0174373 0)
(1.05192 0.0173707 0)
(1.0567 0.0162607 0)
(1.06335 0.0139926 0)
(1.0644 0.0108459 0)
(1.03144 0.00709307 0)
(0.89389 0.00367321 0)
(0.595527 0.00147924 0)
(0.1992 0.00034008 0)
(0.236285 0.000498011 0)
(0.652945 0.00243181 0)
(0.940634 0.00451013 0)
(1.06413 0.00504671 0)
(1.09099 0.00498664 0)
(1.08792 0.00536813 0)
(1.07996 0.00707617 0)
(1.07235 0.00980368 0)
(1.06519 0.0133232 0)
(1.05851 0.0170078 0)
(1.05334 0.0196011 0)
(1.05103 0.020606 0)
(1.05139 0.0201051 0)
(1.0545 0.0184394 0)
(1.05876 0.0158532 0)
(1.05764 0.0123108 0)
(1.02322 0.00839942 0)
(0.885967 0.00471189 0)
(0.588868 0.00203017 0)
(0.195373 0.000446412 0)
(0.241039 0.000627078 0)
(0.659166 0.00283509 0)
(0.944559 0.00547409 0)
(1.06562 0.0067046 0)
(1.09206 0.00746982 0)
(1.09011 0.00872241 0)
(1.08319 0.0110762 0)
(1.07584 0.0143304 0)
(1.06831 0.0181628 0)
(1.06065 0.0219002 0)
(1.05413 0.0242973 0)
(1.05036 0.0246419 0)
(1.04922 0.0234577 0)
(1.05057 0.0210318 0)
(1.05276 0.0176833 0)
(1.04957 0.0135131 0)
(1.01362 0.00916595 0)
(0.876448 0.00539441 0)
(0.580795 0.00245483 0)
(0.190692 0.000536033 0)
(0.248982 0.000857431 0)
(0.671775 0.00390868 0)
(0.952741 0.00768894 0)
(1.06905 0.00994728 0)
(1.09445 0.0114339 0)
(1.09339 0.0133347 0)
(1.08715 0.0162652 0)
(1.07989 0.0199185 0)
(1.07172 0.0239924 0)
(1.0628 0.0276043 0)
(1.05467 0.0294819 0)
(1.04928 0.0288977 0)
(1.04664 0.0266386 0)
(1.04627 0.0233728 0)
(1.04661 0.0193834 0)
(1.04171 0.0150936 0)
(1.00483 0.0108106 0)
(0.867517 0.00671713 0)
(0.571607 0.00303561 0)
(0.184951 0.00063686 0)
(0.25707 0.00111949 0)
(0.683209 0.00462016 0)
(0.961619 0.00927406 0)
(1.07484 0.0125597 0)
(1.09935 0.0156277 0)
(1.09844 0.0189056 0)
(1.09236 0.0228102 0)
(1.08466 0.0272275 0)
(1.07547 0.0317354 0)
(1.06489 0.0352237 0)
(1.05469 0.0363713 0)
(1.04721 0.0347383 0)
(1.04272 0.0313793 0)
(1.04044 0.0271861 0)
(1.03899 0.0224087 0)
(1.03235 0.0172952 0)
(0.99358 0.0122517 0)
(0.854637 0.00775716 0)
(0.559304 0.00358702 0)
(0.177916 0.000757627 0)
(0.270055 0.0014856 0)
(0.702871 0.00664115 0)
(0.976226 0.0129261 0)
(1.08393 0.0176756 0)
(1.10628 0.0214793 0)
(1.10522 0.0258057 0)
(1.09871 0.0308315 0)
(1.09006 0.0361294 0)
(1.07928 0.0410093 0)
(1.06649 0.0442912 0)
(1.05384 0.044466 0)
(1.04413 0.0414664 0)
(1.03785 0.0366967 0)
(1.03391 0.0312523 0)
(1.03089 0.0255695 0)
(1.02295 0.0202436 0)
(0.983304 0.0150813 0)
(0.843539 0.00991863 0)
(0.546621 0.00451448 0)
(0.169773 0.000911191 0)
(0.284857 0.00208421 0)
(0.724653 0.00790177 0)
(0.993224 0.0158935 0)
(1.09583 0.0221848 0)
(1.1162 0.0279688 0)
(1.11413 0.034461 0)
(1.10644 0.0408841 0)
(1.09614 0.0472614 0)
(1.08309 0.0526916 0)
(1.06763 0.055695 0)
(1.05215 0.0547041 0)
(1.03989 0.0502022 0)
(1.03147 0.0440568 0)
(1.02576 0.0374946 0)
(1.02131 0.030869 0)
(1.01168 0.0242695 0)
(0.968964 0.0178595 0)
(0.824527 0.0116209 0)
(0.52738 0.00531272 0)
(0.159125 0.00108579 0)
(0.306561 0.00297897 0)
(0.754426 0.0118522 0)
(1.0163 0.0217775 0)
(1.11211 0.0301203 0)
(1.1294 0.0374692 0)
(1.12562 0.0455032 0)
(1.11584 0.053537 0)
(1.10289 0.0611156 0)
(1.08675 0.0669531 0)
(1.06777 0.0693947 0)
(1.04879 0.0670698 0)
(1.03375 0.0608609 0)
(1.0233 0.0529891 0)
(1.01592 0.0446017 0)
(1.00998 0.0365302 0)
(0.999016 0.0290891 0)
(0.954808 0.0218973 0)
(0.809237 0.0146496 0)
(0.509649 0.00662072 0)
(0.147737 0.00121817 0)
(0.337015 0.00411541 0)
(0.795355 0.0146418 0)
(1.04657 0.0287746 0)
(1.13334 0.0398586 0)
(1.14656 0.0495486 0)
(1.13976 0.0605479 0)
(1.12671 0.0705238 0)
(1.11017 0.0790731 0)
(1.0902 0.0849566 0)
(1.06725 0.0864878 0)
(1.0447 0.0822846 0)
(1.0267 0.0738013 0)
(1.01378 0.0639925 0)
(1.00451 0.05421 0)
(0.997007 0.0448036 0)
(0.983848 0.0358429 0)
(0.934896 0.0269497 0)
(0.78035 0.0175555 0)
(0.479328 0.0076139 0)
(0.131986 0.00139607 0)
(0.373433 0.00807681 0)
(0.844365 0.0243208 0)
(1.08449 0.0408018 0)
(1.15967 0.0551419 0)
(1.16803 0.0675906 0)
(1.15645 0.0814075 0)
(1.13905 0.0922782 0)
(1.11784 0.10129 0)
(1.09308 0.10656 0)
(1.0653 0.106392 0)
(1.03824 0.099852 0)
(1.01691 0.0891721 0)
(1.00181 0.07729 0)
(0.990759 0.0653386 0)
(0.981557 0.0541121 0)
(0.966158 0.0433707 0)
(0.913583 0.0326975 0)
(0.757491 0.021758 0)
(0.455238 0.00972273 0)
(0.117772 0.00138179 0)
(0.457504 0.0116501 0)
(0.922407 0.0342598 0)
(1.13468 0.0603402 0)
(1.19244 0.0779899 0)
(1.19398 0.0949274 5.90326e-35)
(1.17524 0.109957 -4.32945e-35)
(1.15177 0.121251 0)
(1.12476 0.129752 0)
(1.0946 0.133309 0)
(1.06187 0.130716 0)
(1.03085 0.121277 0)
(1.00643 0.10744 0)
(0.988362 0.0929419 0)
(0.974987 0.0791539 0)
(0.963736 0.0662034 0)
(0.945152 0.0540185 0)
(0.885655 0.0413641 0)
(0.7145 0.0271207 0)
(0.405108 0.0104114 0)
(0.0934307 0.0011697 0)
(0.523632 0.0267692 -8.71698e-21)
(1.01139 0.0587694 5.93612e-21)
(1.18975 0.0927766 0)
(1.22838 0.11406 2.31646e-22)
(1.2205 0.133843 -1.87715e-22)
(1.19357 0.148299 4.56775e-35)
(1.16349 0.158661 0)
(1.13031 0.165305 4.52121e-21)
(1.09416 0.166465 -1.63255e-20)
(1.05536 0.160851 3.62919e-21)
(1.01858 0.147817 0)
(0.989519 0.131189 -1.21155e-20)
(0.968813 0.114701 -1.52056e-20)
(0.952996 0.0987587 2.67498e-20)
(0.938487 0.0838723 -2.15376e-20)
(0.914246 0.0689613 0)
(0.843412 0.0526811 -8.31035e-21)
(0.658662 0.0348392 0)
(0.357346 0.0161535 -4.48947e-20)
(0.0758998 0.00206294 5.32083e-20)
(0.551232 0.0546076 1.28883e-22)
(1.06282 0.10275 -4.86408e-20)
(1.23321 0.144693 1.23804e-20)
(1.26129 0.163029 1.9494e-20)
(1.24431 0.181993 3.53526e-22)
(1.20977 0.194316 1.96137e-22)
(1.17313 0.202823 0)
(1.13349 0.207347 0)
(1.09089 0.206197 2.54991e-20)
(1.04596 0.197908 0)
(1.00429 0.182486 4.14443e-20)
(0.971223 0.16383 1.29981e-20)
(0.944852 0.145059 3.5182e-22)
(0.923851 0.127851 -3.00753e-20)
(0.905432 0.111985 0)
(0.877607 0.0972753 0)
(0.805149 0.0784472 -1.40656e-19)
(0.628446 0.057291 3.53177e-19)
(0.345337 0.0277964 -2.09926e-19)
(0.0759348 0.00742223 -2.49552e-19)
(0.554026 0.0802998 8.22703e-20)
(1.09132 0.160995 -2.4234e-20)
(1.26548 0.207496 -6.55112e-21)
(1.28755 0.222759 -3.71908e-20)
(1.26297 0.238347 1.36879e-20)
(1.22219 0.246623 4.75925e-21)
(1.1795 0.251841 2.51973e-21)
(1.13367 0.253363 0)
(1.08502 0.249273 -5.26633e-20)
(1.03409 0.238051 5.98456e-20)
(0.98574 0.219786 -1.13401e-19)
(0.946183 0.198404 5.5478e-20)
(0.917564 0.179266 -4.13221e-20)
(0.895036 0.161813 9.03161e-20)
(0.873562 0.145957 0)
(0.844085 0.130737 -3.56661e-20)
(0.774847 0.112932 0)
(0.612782 0.0834923 2.03286e-19)
(0.348554 0.0474307 -4.82481e-19)
(0.0886487 0.0124415 3.02848e-19)
(0.54171 0.112187 -3.86694e-19)
(1.10529 0.220172 1.54646e-19)
(1.28505 0.275105 2.50492e-20)
(1.30518 0.287696 0)
(1.27552 0.299373 2.07685e-20)
(1.23002 0.30298 -2.27885e-20)
(1.18211 0.304285 -2.56347e-21)
(1.13086 0.302078 0)
(1.07693 0.294277 3.71204e-20)
(1.0207 0.279339 -4.10047e-20)
(0.96818 0.257566 9.97361e-20)
(0.926652 0.235472 0)
(0.893028 0.215072 -8.69584e-20)
(0.86569 0.197577 4.78024e-20)
(0.842863 0.181742 1.30712e-19)
(0.814072 0.166931 -1.15004e-19)
(0.749968 0.147355 1.90751e-19)
(0.602904 0.11388 -4.23961e-19)
(0.359383 0.0681426 2.69203e-19)
(0.100643 0.0200257 -3.37821e-19)
(0.524101 0.136407 2.37572e-19)
(1.10676 0.275382 -1.75045e-19)
(1.29451 0.342797 7.83478e-20)
(1.31444 0.353357 -1.08424e-19)
(1.28129 0.361683 7.36794e-20)
(1.23257 0.360968 -1.26439e-20)
(1.18073 0.358311 3.68556e-21)
(1.12538 0.352058 -2.22403e-20)
(1.06713 0.340349 -3.67625e-20)
(1.00618 0.32178 -8.81387e-20)
(0.949036 0.29805 -2.15339e-19)
(0.902438 0.272923 -7.30174e-20)
(0.867975 0.251301 2.73802e-21)
(0.841617 0.23311 -1.73006e-19)
(0.818088 0.217483 -6.3307e-21)
(0.789443 0.201351 1.69081e-19)
(0.730599 0.181122 -5.2653e-20)
(0.595885 0.144104 -3.0817e-20)
(0.366553 0.0895374 0)
(0.108242 0.0273069 7.24396e-19)
(0.504578 0.158006 0)
(1.09799 0.32644 5.40062e-20)
(1.29613 0.407092 3.7692e-20)
(1.31742 0.417287 -1.21951e-20)
(1.28174 0.423456 -8.8989e-20)
(1.23072 0.418807 2.05052e-20)
(1.17591 0.41241 -1.00876e-21)
(1.11728 0.4022 4.07984e-20)
(1.05518 0.38672 -2.23604e-20)
(0.990086 0.36458 3.81327e-20)
(0.928991 0.336477 1.16224e-19)
(0.880626 0.309071 1.61904e-19)
(0.844051 0.286372 -1.01422e-19)
(0.815182 0.267009 1.87685e-19)
(0.792719 0.250524 -1.50931e-19)
(0.767431 0.235463 0)
(0.714602 0.214498 -4.03663e-19)
(0.589364 0.17442 5.4263e-19)
(0.369291 0.109345 4.10995e-20)
(0.111704 0.0339819 -7.67687e-19)
(0.488582 0.178679 -5.55873e-21)
(1.08783 0.375604 -3.68011e-19)
(1.29275 0.468353 -2.83925e-19)
(1.31528 0.478537 2.37434e-19)
(1.27745 0.483271 -5.3325e-20)
(1.22496 0.475232 2.97912e-20)
(1.16799 0.465523 -1.50552e-20)
(1.10677 0.451722 -1.34218e-21)
(1.04159 0.432639 -7.68258e-20)
(0.973319 0.406905 8.29346e-22)
(0.910455 0.37573 -1.26762e-19)
(0.861584 0.346826 -1.72527e-19)
(0.825474 0.321922 1.14486e-19)
(0.798268 0.301421 -6.75162e-20)
(0.773797 0.284368 1.64449e-19)
(0.746457 0.267057 0)
(0.694955 0.243949 -2.50352e-19)
(0.576523 0.201349 3.70359e-19)
(0.364642 0.126948 7.09487e-19)
(0.110918 0.0388638 -8.33302e-19)
(0.473437 0.196724 -6.98707e-19)
(1.07364 0.420998 3.53118e-19)
(1.2856 0.526349 2.76203e-19)
(1.30937 0.537092 -2.57498e-19)
(1.2699 0.540665 1.12037e-20)
(1.2164 0.529554 7.8541e-20)
(1.15775 0.516956 1.5379e-21)
(1.09454 0.499886 -1.50254e-20)
(1.02711 0.477433 -4.81957e-20)
(0.956577 0.447809 8.51043e-20)
(0.891036 0.412955 1.18932e-19)
(0.838351 0.379063 2.7026e-19)
(0.799171 0.351759 0)
(0.768765 0.329152 5.5055e-21)
(0.747685 0.311211 -4.58003e-19)
(0.725972 0.296483 1.05139e-19)
(0.680653 0.272971 5.38083e-19)
(0.566156 0.22515 -1.57872e-19)
(0.354713 0.141529 3.36384e-19)
(0.107455 0.0422264 -2.79824e-20)
(0.463784 0.215555 6.26981e-21)
(1.06098 0.464956 3.26434e-19)
(1.27592 0.581604 2.09402e-19)
(1.30045 0.592689 -4.57869e-19)
(1.25958 0.594979 2.94115e-19)
(1.20552 0.581235 -9.59534e-20)
(1.14566 0.566236 -5.13106e-21)
(1.08091 0.546296 2.88972e-20)
(1.01143 0.520784 8.32978e-20)
(0.938187 0.488007 -1.11115e-19)
(0.869896 0.449907 0)
(0.818283 0.414514 -1.07121e-19)
(0.782175 0.386061 1.22984e-19)
(0.755977 0.363257 1.66626e-19)
(0.730084 0.343456 -9.55214e-20)
(0.703579 0.322801 -2.4206e-19)
(0.656682 0.296672 -7.36365e-20)
(0.546974 0.243767 -1.21457e-21)
(0.342512 0.152037 0)
(0.10213 0.0450872 0)
(0.454858 0.23104 -3.44616e-19)
(1.04715 0.505714 0)
(1.26442 0.633616 2.39542e-19)
(1.28989 0.645623 -1.10011e-19)
(1.24793 0.64657 -3.06178e-19)
(1.19334 0.630225 8.43689e-20)
(1.13239 0.61311 -1.14568e-20)
(1.06636 0.59071 -1.07565e-20)
(0.995185 0.562489 5.01998e-20)
(0.920178 0.526587 -4.69712e-20)
(0.850242 0.484407 6.66607e-20)
(0.795128 0.444942 3.34321e-19)
(0.753122 0.411853 1.34095e-20)
(0.72107 0.384556 -1.6987e-19)
(0.701956 0.36197 3.29455e-19)
(0.682946 0.346657 4.4671e-21)
(0.641832 0.317446 7.87829e-20)
(0.532412 0.261907 -3.83379e-19)
(0.329031 0.160439 3.88506e-19)
(0.095976 0.0468595 -4.64214e-19)
(0.448351 0.250514 2.80004e-23)
(1.03484 0.545248 0)
(1.25207 0.68277 0)
(1.27788 0.695818 1.03011e-19)
(1.23498 0.695357 1.19588e-19)
(1.18009 0.676579 -7.10017e-20)
(1.11823 0.657564 4.92954e-20)
(1.05106 0.632974 0)
(0.978256 0.60241 -8.37895e-20)
(0.900845 0.563876 1.62664e-19)
(0.828114 0.519389 2.0514e-19)
(0.771523 0.477143 -1.26379e-19)
(0.733749 0.442136 -1.59073e-19)
(0.709033 0.414536 3.76557e-19)
(0.684642 0.392633 -1.1651e-19)
(0.659157 0.366661 -1.41693e-19)
(0.614556 0.336784 -8.68411e-20)
(0.509771 0.27406 -4.16072e-19)
(0.314015 0.166594 5.84073e-20)
(0.0890775 0.047573 5.04664e-19)
(0.444679 0.269406 -1.37599e-19)
(1.02295 0.581967 -2.17527e-19)
(1.23904 0.728461 2.37023e-20)
(1.26536 0.743149 9.09774e-23)
(1.2218 0.741627 4.01119e-20)
(1.16652 0.720544 -1.87974e-19)
(1.10372 0.69971 0)
(1.03551 0.673116 1.07414e-20)
(0.961302 0.640595 -8.46983e-21)
(0.881894 0.599585 2.55208e-19)
(0.806563 0.551264 -5.20355e-20)
(0.748697 0.504526 5.74914e-20)
(0.707009 0.466142 0)
(0.6732 0.43399 -2.05774e-19)
(0.653735 0.405886 2.5721e-19)
(0.636555 0.386235 0)
(0.597799 0.350851 -1.90347e-19)
(0.491332 0.286232 5.56538e-19)
(0.297903 0.170739 6.62868e-20)
(0.0817422 0.0472095 -6.25555e-19)
(0.442679 0.286388 -3.05144e-19)
(1.01272 0.617322 3.91456e-19)
(1.22598 0.771549 0)
(1.25221 0.787636 2.56013e-19)
(1.20802 0.785162 0)
(1.15256 0.762134 1.77054e-19)
(1.08905 0.739654 0)
(1.01987 0.71124 0)
(0.944068 0.67698 -2.99834e-20)
(0.862417 0.634031 -2.49575e-19)
(0.784886 0.583887 -3.81844e-19)
(0.725476 0.535132 7.32857e-20)
(0.682968 0.491918 2.75042e-19)
(0.659104 0.457773 2.32045e-19)
(0.636134 0.430409 -8.25443e-19)
(0.611488 0.401387 -3.4198e-19)
(0.568519 0.366201 1.98723e-19)
(0.465799 0.293173 0)
(0.280386 0.172603 5.74089e-19)
(0.0737196 0.0458491 -6.79048e-19)
(0.441141 0.30211 3.3642e-19)
(1.00224 0.649762 -4.30091e-19)
(1.2128 0.811336 0)
(1.23905 0.82925 -1.02069e-20)
(1.19444 0.826182 -1.05404e-19)
(1.13878 0.801452 0)
(1.07461 0.777519 -1.58135e-20)
(1.00454 0.747468 1.83974e-20)
(0.9275 0.711739 -3.4702e-20)
(0.844249 0.667246 2.3553e-20)
(0.763908 0.614396 0)
(0.700535 0.560897 2.91852e-19)
(0.657177 0.515605 3.88563e-21)
(0.621541 0.476074 1.26121e-19)
(0.603417 0.442339 1.52255e-19)
(0.587509 0.417156 0)
(0.549439 0.372646 -3.36255e-19)
(0.445495 0.29926 6.59085e-19)
(0.26228 0.172259 -7.01841e-19)
(0.0658595 0.0434167 1.47492e-18)
(0.439814 0.317061 0)
(0.993016 0.68144 0)
(1.19998 0.8489 -2.36456e-19)
(1.22573 0.868133 0)
(1.18065 0.864449 0)
(1.12499 0.838445 2.52418e-19)
(1.06042 0.813332 -1.97284e-20)
(0.989764 0.781916 1.68869e-20)
(0.911651 0.745024 -9.63936e-22)
(0.826628 0.699226 0)
(0.743993 0.644503 -6.16416e-20)
(0.678201 0.589689 -2.42258e-19)
(0.630321 0.540201 -3.05279e-19)
(0.604988 0.497856 -1.27287e-19)
(0.582472 0.463616 1.67814e-19)
(0.559602 0.424511 -3.98814e-19)
(0.518436 0.385181 7.28151e-19)
(0.417604 0.300754 7.10474e-21)
(0.243308 0.169683 -6.79293e-19)
(0.0580089 0.0402939 -1.00829e-19)
(0.438356 0.331648 0)
(0.983565 0.710664 -3.35048e-19)
(1.18733 0.883676 2.63808e-19)
(1.21271 0.904459 0)
(1.16732 0.900301 0)
(1.11166 0.873161 -5.57423e-19)
(1.04682 0.847093 0)
(0.975634 0.814545 0)
(0.896462 0.776561 -5.39154e-20)
(0.809075 0.729432 4.78719e-20)
(0.722284 0.673169 -4.86615e-19)
(0.652335 0.616022 0)
(0.604134 0.562978 -3.31867e-19)
(0.564589 0.514038 1.16042e-20)
(0.54545 0.46871 -5.36576e-19)
(0.532871 0.436797 2.16271e-19)
(0.497808 0.381527 3.8353e-21)
(0.397941 0.298961 -7.78771e-19)
(0.226049 0.165386 3.69429e-19)
(0.0521728 0.0371455 1.07875e-19)
(0.436988 0.345757 0)
(0.975302 0.739284 -3.94609e-19)
(1.17517 0.916694 2.80695e-19)
(1.19983 0.938454 5.9108e-19)
(1.15407 0.933634 1.20619e-19)
(1.09856 0.905596 -8.43154e-20)
(1.03356 0.878776 5.28209e-20)
(0.962 0.845332 -1.10084e-19)
(0.881738 0.806635 5.76741e-20)
(0.792528 0.75939 2.84044e-19)
(0.70408 0.703597 4.03563e-19)
(0.631067 0.644295 7.82605e-20)
(0.575352 0.586109 4.82263e-19)
(0.54578 0.534534 3.1467e-19)
(0.522595 0.489348 3.87646e-19)
(0.500516 0.436679 -2.42741e-19)
(0.463721 0.387164 -2.87764e-19)
(0.369111 0.293456 3.39039e-19)
(0.206883 0.156094 -2.00239e-19)
(0.0478595 0.0356637 3.52706e-19)
(0.435539 0.359371 5.19429e-19)
(0.966835 0.765419 6.26752e-19)
(1.16326 0.947234 1.54014e-19)
(1.18743 0.970242 1.60315e-20)
(1.14145 0.964862 -4.18122e-19)
(1.086 0.93593 1.61444e-19)
(1.02084 0.908431 -6.0243e-20)
(0.94888 0.87429 -2.12579e-20)
(0.867863 0.835009 -4.49818e-20)
(0.777509 0.786913 -3.18742e-19)
(0.686605 0.728929 2.37215e-20)
(0.608826 0.667031 0)
(0.551388 0.610576 0)
(0.501955 0.552868 -1.59654e-19)
(0.478029 0.492659 -6.38379e-19)
(0.466215 0.444003 5.26893e-19)
(0.439915 0.365691 3.22724e-19)
(0.35894 0.272734 0)
(0.209897 0.135103 6.39093e-19)
(0.0425966 0.017167 -3.82395e-19)
(0.434245 0.372208 -2.77517e-19)
(0.959393 0.790929 2.39725e-19)
(1.15188 0.976278 -3.43401e-19)
(1.17531 1.00002 -3.70745e-19)
(1.12907 0.993924 -1.64598e-19)
(1.07379 0.964209 3.89477e-20)
(1.00854 0.93618 0)
(0.936378 0.901498 1.57792e-19)
(0.854723 0.861831 9.3531e-21)
(0.762141 0.814093 0)
(0.665782 0.758338 0)
(0.582726 0.698256 5.51995e-20)
(0.5186 0.634848 8.54524e-20)
(0.481158 0.573355 -1.72214e-19)
(0.449771 0.516281 4.61778e-19)
(0.42414 0.436165 -5.80442e-19)
(0.393508 0.36048 -6.94143e-19)
(0.336332 0.249353 6.16332e-19)
(0.23485 0.149767 -2.30574e-19)
(0.125331 0.0949611 1.32125e-19)
(0.432678 0.384259 3.19964e-19)
(0.951609 0.813912 0)
(1.14077 1.00298 0)
(1.16373 1.02781 -1.25001e-19)
(1.11738 1.02117 1.01176e-19)
(1.06222 0.990697 -2.05773e-20)
(0.996928 0.962123 -2.29352e-19)
(0.924613 0.926966 -2.38283e-19)
(0.842205 0.887184 2.91116e-20)
(0.748713 0.839307 -2.60456e-20)
(0.653642 0.781746 6.37563e-20)
(0.569395 0.720806 -4.51238e-19)
(0.499126 0.66339 -5.01216e-19)
(0.434231 0.59855 -9.18168e-20)
(0.393305 0.520287 0)
(0.371314 0.449873 -1.29709e-20)
(0.350128 0.312582 3.82453e-19)
(0.309485 0.154092 -6.46024e-19)
(0.272183 -0.00939558 4.7827e-19)
(0.0825926 -0.0836642 3.81372e-19)
(0.431235 0.395644 -6.9734e-19)
(0.944671 0.836456 -3.00738e-19)
(1.13011 1.0285 6.26118e-21)
(1.15239 1.054 1.58644e-19)
(1.10589 1.0468 0)
(1.0509 1.01575 4.77102e-19)
(0.985587 0.986841 2.86165e-19)
(0.9131 0.951503 -4.6309e-20)
(0.830401 0.91175 -6.13137e-22)
(0.735526 0.864265 -2.43602e-20)
(0.634067 0.810093 2.2626e-20)
(0.541088 0.753173 3.99133e-19)
(0.463043 0.688789 4.89951e-19)
(0.412199 0.621938 8.84579e-20)
(0.363639 0.557543 4.91357e-19)
(0.306513 0.446923 0)
(0.211807 0.312909 0)
(0.0540854 0.296613 4.7935e-19)
(-0.0630915 0.630829 -3.3477e-20)
(-0.000359294 1.49288 -6.17458e-19)
(0.429333 0.406437 3.79443e-19)
(0.937382 0.856757 9.02748e-19)
(1.11964 1.05209 -1.35895e-18)
(1.14146 1.07872 8.20338e-19)
(1.09489 1.07129 -9.64392e-20)
(1.04005 1.03989 6.21177e-19)
(0.974762 1.01084 0)
(0.902276 0.975469 2.44647e-19)
(0.818937 0.936014 0)
(0.722547 0.889702 2.16652e-19)
(0.621616 0.835517 -3.65756e-20)
(0.528157 0.778102 4.10104e-20)
(0.449022 0.723751 5.41802e-19)
(0.360824 0.663838 -2.01502e-19)
(0.277057 0.579079 -2.57954e-19)
(0.209176 0.512201 0)
(0.110647 0.597928 0)
(0.0424735 1.23495 0)
(0.0806103 2.4194 -2.69604e-19)
(0.112227 2.88937 -1.67309e-19)
(0.42755 0.416852 0)
(0.930908 0.876752 0)
(1.10965 1.07476 4.86174e-19)
(1.13081 1.1021 -6.83915e-19)
(1.08414 1.09441 4.70666e-19)
(1.02951 1.06284 -5.69468e-19)
(0.96425 1.03384 -3.31637e-20)
(0.891579 0.998702 2.58216e-20)
(0.807921 0.959954 3.81367e-21)
(0.711042 0.914422 -2.45844e-19)
(0.606065 0.863156 5.47576e-20)
(0.50744 0.812767 3.73023e-19)
(0.410545 0.759101 -5.33455e-19)
(0.340626 0.69233 -6.28215e-19)
(0.275717 0.644255 2.20154e-19)
(0.210722 0.760854 0)
(0.14936 1.47977 3.18482e-19)
(0.148293 2.6636 3.57189e-19)
(0.152908 3.07794 -3.99765e-19)
(0.14376 3.21795 4.42456e-19)
(0.425384 0.426321 0)
(0.924087 0.894494 7.32941e-19)
(1.09986 1.09556 -1.26015e-19)
(1.12065 1.12406 8.60041e-19)
(1.07392 1.1164 -4.94036e-19)
(1.01946 1.08482 0)
(0.954242 1.05602 0)
(0.881664 1.02132 0)
(0.797795 0.983275 -9.19852e-20)
(0.699342 0.93989 6.30959e-22)
(0.592954 0.891816 0)
(0.488829 0.84105 -3.63369e-19)
(0.40724 0.793608 0)
(0.296026 0.750606 4.46596e-19)
(0.219801 0.828772 -2.89896e-19)
(0.174927 1.4354 -2.43958e-19)
(0.184223 2.65436 -6.01571e-19)
(0.203029 3.12507 -2.9915e-19)
(0.192545 3.27307 -3.39979e-19)
(0.177238 3.31453 2.97072e-19)
(0.42344 0.435236 -2.47489e-19)
(0.918046 0.912056 1.4884e-20)
(1.0906 1.11565 -1.35739e-19)
(1.11079 1.14487 -6.88462e-19)
(1.06396 1.13717 0)
(1.00972 1.10571 0)
(0.944591 1.07727 0)
(0.872 1.04307 -1.6934e-20)
(0.787825 1.00619 1.06401e-19)
(0.6893 0.964266 0)
(0.581889 0.916969 0)
(0.483207 0.875542 0)
(0.3711 0.839455 0)
(0.31008 0.834168 2.91134e-19)
(0.288808 1.18049 7.63404e-19)
(0.282154 2.32072 2.3903e-19)
(0.292755 3.0791 4.31813e-19)
(0.284288 3.29333 -2.71049e-19)
(0.232876 3.36266 9.99734e-20)
(0.198262 3.37548 0)
(0.42112 0.443557 2.50762e-19)
(0.911425 0.927859 -1.58014e-18)
(1.08126 1.1345 -4.47887e-19)
(1.10117 1.16494 -1.09483e-19)
(1.0543 1.15743 1.26103e-19)
(1.00025 1.12618 -8.91615e-19)
(0.935174 1.09811 6.06179e-20)
(0.862678 1.06467 4.26246e-19)
(0.778692 1.02903 0)
(0.679529 0.989555 -1.38369e-20)
(0.570457 0.949512 1.25872e-20)
(0.458306 0.908746 0)
(0.379826 0.878204 0)
(0.331185 1.00218 -3.60981e-19)
(0.303516 1.81995 -4.05117e-21)
(0.299265 2.92171 -1.23876e-19)
(0.316648 3.29715 1.97785e-19)
(0.290024 3.40211 6.22415e-20)
(0.221132 3.42892 1.04651e-19)
(0.194549 3.43749 -5.42773e-20)
(0.418755 0.451931 4.83031e-19)
(0.904984 0.94514 1.51107e-18)
(1.07167 1.15443 5.50823e-19)
(1.09107 1.18555 0)
(1.04419 1.17801 0)
(0.990415 1.14688 6.83062e-19)
(0.925576 1.11925 -4.24599e-19)
(0.85349 1.0864 -3.91639e-19)
(0.769587 1.05181 -1.5807e-20)
(0.670405 1.0147 9.30231e-21)
(0.561331 0.97398 -2.43425e-19)
(0.460001 0.938538 0)
(0.380872 0.958078 0)
(0.354715 1.33406 -1.96648e-19)
(0.365433 2.42238 -2.58482e-19)
(0.408613 3.19788 0)
(0.436073 3.38777 8.04418e-20)
(0.365558 3.45473 2.16539e-19)
(0.288644 3.49987 -4.74022e-19)
(0.262789 3.52589 2.76143e-19)
(0.415424 0.460575 -9.15043e-19)
(0.897059 0.961807 -7.18812e-19)
(1.06095 1.17456 0)
(1.08025 1.20689 0)
(1.03347 1.19947 0)
(0.980048 1.16839 0)
(0.915492 1.14094 4.53684e-19)
(0.84364 1.10866 -5.02256e-19)
(0.760185 1.07563 0)
(0.66174 1.04069 -2.56381e-21)
(0.554359 1.00754 3.95093e-19)
(0.445972 0.984974 2.12811e-20)
(0.393441 1.05958 3.75646e-20)
(0.410226 1.70635 2.85768e-19)
(0.440249 2.86763 -7.5418e-20)
(0.476089 3.33163 0)
(0.456605 3.46646 -7.49938e-20)
(0.36478 3.55573 1.02924e-19)
(0.277077 3.62816 3.54739e-19)
(0.200019 3.60927 -3.11228e-19)
(0.412049 0.469529 4.33686e-19)
(0.889074 0.980947 -7.06206e-19)
(1.04959 1.19659 0)
(1.06849 1.22931 -1.75906e-19)
(1.02187 1.22165 6.68351e-19)
(0.968913 1.19044 0)
(0.904851 1.16323 0)
(0.833941 1.1315 9.38467e-19)
(0.751446 1.09902 1.67787e-20)
(0.653904 1.06631 -1.09894e-19)
(0.543789 1.03477 -1.62666e-19)
(0.458926 1.02414 1.3341e-19)
(0.429609 1.23249 0)
(0.462136 2.11487 -1.316e-19)
(0.507247 3.13115 1.14269e-19)
(0.565986 3.44121 -4.64404e-20)
(0.56179 3.54807 0)
(0.488913 3.64925 -2.018e-19)
(0.41078 3.69549 -7.76184e-19)
(0.32556 3.66665 -1.96576e-19)
(0.407208 0.478298 -8.41288e-19)
(0.879107 0.999028 1.00482e-18)
(1.03676 1.21861 7.48433e-19)