/*--------------------------------*- C++ -*----------------------------------*\
  =========                 |
  \\      /  F ield         | OpenFOAM: The Open Source CFD Toolbox
   \\    /   O peration     | Website:  https://openfoam.org
    \\  /    A nd           | Version:  9
     \\/     M anipulation  |
\*---------------------------------------------------------------------------*/
FoamFile
{
    format      ascii;
    class       volScalarField;
    location    "14";
    object      p;
}
// * * * * * * * * * * * * * * * * * * * * * * * * * * * * * * * * * * * * * //

dimensions      [0 2 -2 0 0 0 0];

internalField   nonuniform List<scalar> 
918
(
0.225535
0.906782
0.0129799
0.22475
0.00125358
0.873973
-0.838702
0.410767
0.205499
-0.164433
0.020429
0.196944
0.734426
0.501348
-1.46994
0.0155772
0.364057
-0.700327
0.20385
0.0083581
0.48012
0.212258
0.215275
0.205956
0.26199
0.494021
0.614879
0.00537303
-0.0043606
0.000657012
0.00491346
-0.001044
0.00447696
0.757564
0.80872
0.831376
0.175306
-0.00918785
-0.687426
-0.76858
-0.742349
-0.896714
0.398797
0.403338
-0.495478
0.410454
0.425257
0.193379
0.204792
0.205798
0.206934
0.205905
0.207223
0.276921
-0.211472
-0.282402
-0.101017
-0.0756986
0.0746219
0.0227515
0.0137953
0.0238341
0.0237619
0.134108
0.193701
0.190074
0.201874
0.210769
0.846337
0.818158
0.844314
0.758271
0.774704
0.712324
0.684868
0.52143
0.542965
0.487855
0.478218
-1.91415
-2.88874
-0.867838
-0.608462
0.00210789
0.0224716
0.0275764
0.345112
0.352716
0.355878
0.368326
0.765769
-0.688947
-0.800436
0.203707
0.202612
0.211924
0.212611
0.208643
0.207806
0.0155984
0.0230098
-0.000201535
0.00740477
0.00636688
0.460545
0.456645
0.206574
0.203411
0.218486
0.242014
0.230772
-0.0227045
0.277491
0.303726
0.296044
0.475105
0.473052
0.480231
0.588158
0.551568
0.65223
0.67532
0.00746423
0.00182985
0.0122686
0.00951949
0.0128057
0.172325
0.167019
0.186224
0.1768
0.1794
-0.086065
-0.216025
0.0654646
0.0859722
-0.594352
-0.669487
-0.750586
-0.777257
-0.861361
0.190149
0.385362
0.388586
-0.510509
-0.423947
-0.577614
-0.347915
-0.422021
0.182722
0.191054
0.185615
0.200392
0.195227
0.196648
0.209068
0.206227
0.207707
0.294211
0.362072
0.229737
0.213007
-0.53417
-0.353333
-0.497495
-0.0407463
-0.0273039
0.0865904
0.0982554
0.0646096
0.0626301
-0.00627652
0.0104916
-6.39587e-05
0.0248524
0.0260335
0.127967
0.118891
0.142713
0.150137
0.185233
0.186143
0.187581
0.188686
0.635413
0.657635
0.665428
0.639203
-3.90139
-6.72657
-0.273849
-0.130496
0.00217253
0.00331902
0.00147622
0.00454893
0.00402544
0.00144969
0.0400348
0.0386237
0.0312024
0.0355429
0.332104
0.338089
0.748096
0.792144
0.675753
0.67754
0.191947
0.194469
0.199432
0.19511
0.0259957
0.0243196
0.0273686
0.42481
0.442189
0.444452
-0.0562148
-0.144514
0.025171
0.0521132
0.320688
0.304788
0.324616
0.359537
0.397985
0.682755
0.701334
0.699486
0.708247
0.75218
0.768535
0.733971
0.155698
0.164549
0.16008
0.191599
0.187664
0.189008
0.184665
0.186921
0.184705
-0.367795
-0.752394
0.163449
0.156829
0.120025
0.131313
0.264781
0.33516
0.365216
0.373333
0.379968
-0.28172
-0.350152
0.178606
0.163395
0.077072
0.106611
0.0909479
0.606709
0.567183
0.617186
0.590391
0.552074
0.57726
-0.702839
-2.23726
-1.3344
0.236016
0.0396581
0.131921
0.0559496
0.042458
0.0483193
0.711951
0.734595
0.408317
0.552704
0.525399
0.440777
0.471742
0.524885
0.449617
0.484171
0.520775
0.501937
0.159795
0.17585
0.141464
0.405773
0.473438
-0.169705
-0.216518
-0.277258
0.106597
0.139569
0.127229
0.651406
0.546053
0.632938
0.203468
0.203898
0.0129558
0.0224461
0.207818
0.208027
0.00810881
0.0101497
0.111044
-1.18128
-0.177743
0.195943
0.186997
0.203314
-0.200513
0.316498
0.0165516
0.084278
0.0598017
0.194734
0.144965
0.10986
0.00763457
0.0214896
0.0163947
-0.478178
0.201112
0.19917
0.202948
0.20404
0.204774
0.0095138
0.0115521
0.00731574
0.0136261
0.0131553
0.0117266
0.170644
0.183038
-0.490678
0.203043
0.205162
0.205061
0.198448
0.203635
0.201634
0.0172349
0.0124082
0.0119119
-0.071232
0.0452157
0.369833
0.483693
0.315819
0.0914503
-0.150962
0.266077
0.335486
0.231332
0.401404
0.366975
0.394794
-0.120909
-0.267544
-0.108603
-0.162037
0.193667
0.192597
0.185609
0.182588
0.19879
0.197152
0.201037
0.198546
0.200967
0.202083
-0.11776
-0.0853788
-0.254477
-0.315293
0.319786
0.415346
0.20835
0.243223
0.135796
0.021855
0.0229634
0.0181242
0.0161902
0.0524647
0.0635274
0.0792375
0.0641665
0.0509809
0.0456115
0.0533721
0.0592728
0.0629483
0.189355
0.187893
0.193683
0.200673
0.152589
0.155997
0.12716
0.143873
0.133722
0.0777672
0.108434
0.0881229
0.00930359
0.0094234
0.0075723
0.0252575
0.029227
0.0157534
0.0131182
0.0149639
0.0122763
0.0117896
0.0196586
0.0229303
-0.494831
-0.578689
0.634881
0.605914
-0.58225
0.189738
0.196028
0.192977
0.198083
0.201119
0.201657
0.199533
0.196828
0.183941
0.186292
0.181957
0.182805
-0.429349
-0.568314
-0.394576
-0.459788
-0.191681
0.308816
0.0568851
-0.00322207
-0.00649857
0.203843
0.568416
0.382838
0.436186
0.458602
-0.678216
-0.277766
-0.609271
0.0037813
-0.165738
0.369161
0.423542
0.447923
0.392746
0.340176
-0.444395
0.190249
-0.369075
-0.337524
-0.149302
-0.237531
0.413264
0.351288
0.357809
0.381481
0.405107
0.356408
0.338262
0.336088
0.37363
0.378204
0.168318
-0.0345191
-0.0828445
-0.116995
0.333978
0.212798
0.268003
0.186394
0.188523
0.191084
0.190319
0.174682
0.180491
0.176143
0.182314
0.184153
0.194638
0.194038
0.189932
0.192578
-0.0519547
-0.0349139
-0.224916
-0.46379
-0.328344
-0.434613
-0.321794
-0.142381
-0.060327
-0.339127
0.0526485
-0.330722
-0.576951
-0.430173
-0.638758
-0.31421
-0.450946
0.0869283
0.146929
0.152261
0.143147
0.197999
0.184757
0.0381924
0.0446042
0.0246408
0.0275083
0.084036
0.104781
0.10725
0.0454145
0.0487699
0.0248273
0.0251495
0.0523814
0.0317767
0.0415441
0.0562898
0.0218279
0.0250129
0.0293179
0.0352206
0.0388922
0.0404324
0.182936
0.185467
0.184238
0.196972
0.207959
0.221717
0.192045
0.16908
0.161541
0.165155
0.143129
0.150223
0.148873
0.157697
0.175626
0.181476
0.180441
0.182235
0.169441
0.170388
0.157489
0.161489
0.144214
0.127021
0.115621
0.0188762
0.0126653
0.016242
0.016108
0.0119176
0.0137108
0.0422795
0.0332376
0.0372405
0.0334939
0.0386241
0.0186281
0.0191034
-0.569403
-0.609266
-0.528923
-0.567217
-0.619185
0.564295
0.640644
0.487831
0.274642
0.257609
0.48629
0.600497
0.374104
0.436942
0.488863
0.154709
0.408686
0.195479
0.19514
0.19229
0.191996
0.193392
-0.333963
-0.236424
-0.232632
-0.1836
-0.0664509
0.0374867
0.0542358
-0.135044
0.00427826
0.0438806
0.303191
0.319348
0.264624
0.289208
0.287457
0.118413
0.192631
0.23861
0.202781
0.242205
0.261461
0.224901
0.25361
0.205648
0.166305
0.166453
0.114694
0.129753
0.110589
0.0958157
0.185605
0.165673
0.175014
0.167462
0.186232
0.216153
0.208132
0.231551
0.247403
0.175208
0.13652
0.145539
0.174134
0.134546
0.146417
0.161174
-0.148597
-0.256732
-0.179048
-0.452627
-0.345402
-0.360018
-0.403874
-0.391419
-0.115421
-0.799057
-0.753211
-1.3894
0.12404
0.603501
0.367895
0.333
0.401313
0.375204
0.374436
0.410522
0.418248
0.326468
0.34244
0.346045
0.299178
0.324705
0.352281
0.350114
0.167842
0.0605325
0.0501359
0.0188141
-0.107591
-0.0778982
0.135544
0.0582823
-0.0187075
-0.0107169
0.152744
0.050941
0.108337
0.146031
0.0788299
0.0372406
0.226387
0.294016
0.28646
0.256602
0.178408
0.19189
0.214904
0.246852
0.275345
0.313694
0.183125
0.186499
0.188342
0.187291
0.18262
0.185804
0.185746
0.187945
0.188213
0.191185
0.190379
0.0135574
0.0135701
-0.0114239
0.00158326
-0.0547331
-0.0865814
-0.082376
-0.121989
0.0222977
0.0106547
-0.0356528
-0.0239091
-0.00955951
0.00343785
0.0824651
0.091392
0.042154
-0.00171028
-0.0946188
0.195422
0.171244
0.04538
-0.0488641
0.0408141
0.153664
0.0638098
0.077475
0.0695892
0.0811826
0.0758074
0.0341118
0.0286178
0.0309255
0.0415332
0.0381872
0.0263869
0.0242589
0.026159
0.0268247
0.0261799
0.0258964
0.169293
0.165009
0.1671
0.161391
0.160174
0.172334
0.175259
0.176744
0.181377
0.183007
0.174964
0.178875
0.182564
0.0286608
0.022693
0.0247433
0.0249837
0.0235638
0.0211242
0.0217576
-0.206068
-0.550283
-0.615792
-0.434955
-0.510819
-0.485638
0.163977
0.0972333
0.160076
0.280081
0.183454
0.0878743
0.141577
0.240337
-0.00850062
0.108768
-0.0270842
0.513691
0.375175
0.517236
0.146768
-0.119459
0.0156283
0.0695462
-0.121014
-0.0541697
-0.0107852
-0.122881
-0.092174
-0.0668369
0.0283339
-0.084615
-0.118102
-0.322181
-0.114499
-0.0479168
-0.0665015
0.0522014
0.105448
-0.0220819
-0.168002
-0.208335
0.291655
0.312029
0.327914
0.301663
0.321535
0.250584
0.240157
0.258682
0.269008
0.263593
-1.12562
-0.83961
-1.77466
-1.08352
-0.645338
0.15504
0.104808
0.395483
0.296612
0.376163
0.359168
0.32529
0.291573
0.293206
0.330326
0.04618
0.152537
0.128063
0.132025
0.0383727
-0.0235315
0.259063
0.254926
0.293259
0.317509
0.285884
0.319403
0.179331
0.178908
0.181085
0.177506
0.173519
0.175442
0.0584421
0.0519866
0.0148944
-0.0082759
-0.00513437
0.021347
0.0319229
0.0285605
0.0268789
0.0267129
0.0300189
0.033642
-0.137976
-0.244192
-0.363877
-0.285623
-0.341996
-0.445401
-0.44454
-0.365735
-0.235138
-0.25644
-0.00619401
0.253853
0.0628055
0.225211
-0.0862761
0.0573974
0.161426
0.120993
0.156393
0.0493786
0.144022
-0.169593
-0.650837
-0.562688
0.417851
0.439111
0.222023
0.0271373
-0.191285
0.0124265
0.202511
0.147012
0.186667
0.252492
0.251421
-0.367811
-0.293257
-0.0871688
0.141985
-0.179071
-0.170416
-0.191412
-0.006038
-0.0748955
)
;

boundaryField
{
    wall-4
    {
        type            zeroGradient;
    }
    velocity-inlet-5
    {
        type            zeroGradient;
    }
    velocity-inlet-6
    {
        type            zeroGradient;
    }
    pressure-outlet-7
    {
        type            fixedValue;
        value           uniform 0;
    }
    wall-8
    {
        type            zeroGradient;
    }
    frontAndBackPlanes
    {
        type            empty;
    }
}


// ************************************************************************* //
