/*--------------------------------*- C++ -*----------------------------------*\
  =========                 |
  \\      /  F ield         | OpenFOAM: The Open Source CFD Toolbox
   \\    /   O peration     | Website:  https://openfoam.org
    \\  /    A nd           | Version:  9
     \\/     M anipulation  |
\*---------------------------------------------------------------------------*/
FoamFile
{
    format      ascii;
    class       surfaceScalarField;
    location    "14";
    object      phi;
}
// * * * * * * * * * * * * * * * * * * * * * * * * * * * * * * * * * * * * * //

dimensions      [0 3 -1 0 0 0 0];

internalField   nonuniform List<scalar> 
1300
(
3.75095
5.62643
-6.17115
3.75095
-6.0165
5.62643
-4.5009
4.5009
-1.44104
1.44104
1.877
1.87395
-4.13468
4.13468
-4.69221
4.69221
-2.8007
2.8007
-5.24649
5.24649
-5.06847
5.06847
4.68623
-4.68623
-4.89587
4.89587
-1.85886
1.85886
-3.78443
3.78443
3.17479
-3.17479
-5.02498
5.02498
-0.505519
0.505519
-0.554124
4.30508
3.19683
3.19683
-2.52159
2.52159
-4.85183
4.85183
6.21842
-6.21842
9.38252
-9.38252
-3.21138
-3.39604
1.34161
-8.12434
-4.6749
-4.6749
-8.44044
8.44044
-2.81401
2.81242
2.92749
-2.92749
-1.70037
1.70037
-4.49162
-0.00927621
-4.49162
4.48084
0.0200604
4.48084
-1.56243
0.121392
-1.56243
4.09166
-4.09166
1.2745
0.166541
1.2745
3.06707
-3.06707
-1.87719
3.75419
1.87376
-1.87234
6.17741
-1.87862
3.75257
-5.02449
5.02449
-3.88823
-0.246458
-3.88823
4.37291
-0.238229
4.37291
-5.23348
5.23348
-4.65535
-0.0368573
-4.65535
4.75184
-0.0596345
4.75184
3.0196
-3.0196
-2.83286
0.0321596
-2.83286
2.75078
0.0499241
2.75078
0.353619
5.27281
-5.98005
8.79246
-5.27281
0.0263254
5.20861
0.0378786
5.20861
-5.10618
0.0377081
-5.10618
5.00904
0.0594269
5.00904
4.78118
-0.0949516
4.78118
-4.79882
0.112595
-4.79882
-3.32453
-3.38912
-4.99363
0.0977646
-4.99363
-1.91375
0.0548922
-1.91375
1.81564
0.0432164
1.81564
-3.49082
3.49082
-4.08472
0.300296
-4.08472
3.13004
0.0447474
3.13004
1.86844
1.88251
5.6194
-5.6194
2.44461
-4.97561
-0.0493731
-4.97561
-5.07769
-4.30484
5.07769
-0.052705
-0.81153
0.306011
-0.81153
3.15787
0.0389623
3.15787
2.6789
0.0718776
-2.6789
0.157308
3.41933
-3.41933
1.87536
0.646237
1.87536
-5.57081
5.57081
4.94891
0.0601283
-4.94891
0.0970795
6.1575
0.0609171
6.1575
-6.19954
-0.0188824
-6.19954
3.38242
-6.77847
-3.40291
4.79002
0.105843
-4.79002
0.115125
2.92751
-2.35611e-05
2.92751
-2.89887
2.89887
-2.96497
0.0374774
-2.96497
-2.13897
0.438602
-2.13897
1.36637
0.333997
1.36637
-4.39017
-0.101449
-4.39017
-4.31886
0.234141
4.31886
0.161976
0.849008
-0.849008
-1.67468
0.112247
-1.67468
-4.23474
-0.155437
4.23474
-0.143077
-3.97998
-0.111678
-3.97998
-3.01685
0.0518861
3.01685
0.0502177
3.11401
0.0438606
-3.11401
0.0469352
-1.87113
3.75364
-1.87982
3.75358
-4.78764
-0.236851
-4.78764
5.1769
-0.152416
5.1769
3.71766
0.0667684
-3.71766
-0.170569
4.51539
-0.142482
4.51539
-5.26974
0.0362617
-5.26974
5.21115
0.0223285
5.21115
4.60311
-0.0877149
-4.60311
-0.0522395
4.82806
-0.0762189
4.82806
3.07211
-0.0525017
3.07211
-2.98468
-0.0349274
-2.98468
2.85698
-2.85698
2.85218
0.00479125
-2.85218
0.0193218
-11.1327
11.1139
-0.0351616
-11.0976
5.17344
5.17344
4.20646
0.574718
4.20646
-5.0091
0.210276
-5.0091
3.32923
-6.73213
3.39042
-6.71495
3.37793
-11.5023
3.33898
-6.7281
5.15235
-5.15235
5.08065
0.0716974
-5.08065
0.0870236
-1.94129
0.0275329
-1.94129
-2.95734
-0.533478
-2.95734
3.95644
-0.465626
3.95644
-3.026
3.026
-3.08072
0.0547286
3.08072
0.0493165
4.90676
-0.078704
-4.90676
-0.0688444
1.05998
0.214519
-1.05998
0.24845
3.61021
-0.19088
3.61021
-3.24887
-0.170456
-3.24887
-1.89702
-0.0442674
1.89702
-0.0216618
-5.81855
0.247738
-5.81855
-11.1906
0.0930453
-11.1527
-6.10649
-6.10649
2.33395
11.1264
-2.95021
-0.0344653
2.95021
-0.0226983
2.96368
0.0623122
-2.96368
0.0648114
-2.86376
0.00678648
2.86376
0.0351099
-2.54656
0.407591
-2.54656
-0.975148
0.975148
-1.13148
0.15633
1.13148
0.23489
1.10215
-0.253138
1.10215
1.74541
0.0702361
-1.74541
0.0707301
-3.87794
-0.102039
-3.87794
5.26567
-0.0887613
5.26567
-3.13639
-0.112489
3.13639
-0.0642803
-0.0332462
11.1471
-5.1402
0.0340225
5.1402
-11.208
11.242
-3.23993
0.693367
3.23993
0.966533
5.29561
0.275204
-5.29561
0.286512
5.19533
0.0158164
-5.19533
0.0429788
-2.45619
-0.501149
-2.45619
-4.42181
-0.365825
4.42181
-0.46537
-11.4761
-0.201999
11.6781
-11.4167
6.02055
0.136954
-6.02055
11.379
-0.841504
-0.00750435
0.841504
0.133644
1.4503
-0.348152
1.4503
3.77504
-0.164827
-3.77504
-0.102905
-5.28806
0.0183269
5.28806
-0.0223975
-1.92234
-0.533849
1.92234
-0.472043
-4.2665
4.30546
1.91092
-3.36307
-3.4154
-7.66791
1.85149
1.90216
4.29609
-7.10477
-4.39751
-6.98965
7.2751
-6.98859
-9.3046
9.20964
7.44141
-7.55309
-5.77481
5.82412
6.474
-6.42378
1.88003
1.87417
8.31031
-8.55677
-12.7202
12.4833
10.0656
-10.1025
11.1813
-11.145
-12.6404
12.6562
-5.74957
5.78173
-6.6126
6.57767
-6.79173
6.72745
-3.29051
-3.42444
9.1708
-9.07304
11.7381
-11.7874
-7.0346
7.3349
3.38505
0.920415
3.42891
-1.88123
3.76126
-1.87134
3.78225
3.39818
-6.68869
3.33395
-6.74935
6.07816
5.6599
-6.02545
-1.64246
-5.8528
5.85278
-5.84102
5.87613
8.91066
-8.91994
-1.88504
3.75921
-1.86854
3.7707
-3.4205
-2.3543
3.37575
0.920339
5.61953
3.55128
-5.72537
-1.26428
-7.64064
7.47581
-7.93519
7.76474
-0.459059
5.82875
-5.36969
4.39277
-1.55482
7.38357
5.72028
5.93055
5.86831
-5.59311
1.12028
-6.48997
-6.39289
-2.70849
2.82073
2.66351
-2.49696
5.86848
1.57293
5.7254
-5.44041
-2.11268
-5.54245
3.81402
2.0101
3.86875
4.03314
2.44085
4.08503
3.03087
-3.03685
0.00597706
-3.05909
6.08997
0.722361
-5.4134
-4.49306
6.01926
2.29105
5.78103
-5.06473
-3.49204
-5.2353
-7.99832
-4.72184
-8.36415
7.69755
4.78576
7.54514
-8.595
8.57261
6.73056
3.33507
6.67093
-6.53149
-3.571
-6.58373
10.574
-2.44713
-8.12683
-7.14822
-5.49215
7.12589
4.05539
7.66455
4.99164
7.70753
3.51189
7.06208
-7.56728
2.07513
-3.8449
-1.90467
-3.82557
3.74191
2.03982
3.79183
-4.12918
-2.48342
-4.16364
-4.19736
-2.59437
4.24986
2.32781
-4.31114
-3.62405
4.42363
2.30382
3.09843
-7.49594
3.62967
-7.05411
-6.39778
-2.67526
-6.31076
4.14857
2.61054
-6.75911
-2.54011
10.9319
-5.27202
9.28946
-7.27551
-4.51192
-7.34436
-6.22409
-0.810514
-5.98995
-8.93841
8.43726
-8.65685
8.19123
14.6922
-7.05453
-7.63772
-3.97065
-2.45313
3.92372
-0.49481
-3.71168
3.71765
0.0495799
3.83183
4.75225
4.25744
-3.88253
-1.95849
-3.81772
3.86443
2.01169
3.87122
6.65292
2.25774
6.67298
-6.45121
-2.46873
-6.55266
9.07191
-8.63331
2.91769
-2.96195
5.17876
2.58597
-4.98788
-2.65276
6.01476
-3.03966
-2.9751
-12.2387
10.592
1.64672
-4.85517
-0.462398
0.0431215
-5.51418
-3.79041
5.40159
0.528961
11.121
7.33058
-5.51352
5.76126
6.16461
6.22474
-0.168152
5.85922
-5.16585
5.1927
-2.24621
-2.94649
5.26333
-5.41876
-1.28933
-5.27799
3.98866
0.306641
1.88803
-1.58202
-2.10063
-0.607854
-2.0299
1.60228
1.06122
1.8168
0.986123
1.83461
-2.95724
0.540962
2.41628
-1.97112
-1.956
-3.58532
-0.907435
4.49275
5.46503
2.01078
-5.36213
-0.180318
2.74759
-2.70438
-0.864626
-2.72069
1.93662
-2.80124
-3.47539
-1.77308
5.24847
-3.37076
-0.446951
3.30845
0.560299
-3.76082
-2.09198
3.72334
0.36169
-3.1319
6.24467
-3.11277
-5.09038
2.53255
3.55741
4.54265
-4.80262
2.4416
2.36103
-1.24521
5.43693
0.344098
5.29445
-7.0299
3.53785
4.93474
2.40016
-5.00151
-0.233787
-7.26368
11.0392
-7.89253
-3.14667
7.1282
3.911
7.12552
7.56673
-6.40023
13.5258
1.02317
-8.9157
6.24051
-3.84035
4.31352
-8.15387
-11.8802
2.96454
-8.12513
8.99416
-0.869029
-2.41086
-6.18414
10.536
-1.27224
-9.26376
6.2729
-5.58492
-5.18187
10.7668
-8.03205
8.75287
-2.96413
-5.78874
-7.13079
-4.01423
7.11246
1.46014
-9.97938
12.0545
-2.9173
5.8807
0.790225
5.80448
4.33804
-6.0248
1.68675
3.69401
-6.65814
3.51259
-9.53739
-4.95316
9.65251
-4.69935
-7.62841
-6.84455
-0.783866
2.02941
10.0251
-7.02105
5.37608
1.64497
3.34744
0.523786
-3.35223
-0.473347
0.352809
4.44497
-4.79778
4.14464
4.21652
3.37286
1.0721
3.81479
2.03799
-3.79209
-0.371551
-4.02869
1.43432
-1.70088
-3.55794
4.99225
-3.97607
0.418137
-2.65052
-3.50045
6.15097
-4.55519
3.09154
3.15313
5.10323
-4.86344
1.36299
-2.40791
-2.45553
2.61308
-4.31396
1.9024
3.08985
4.20622
0.582171
4.91721
4.73529
-7.52775
0.473642
8.28657
-7.02229
1.73279
5.97474
-7.10887
0.26432
-6.04644
1.09104
-6.36306
-5.66807
5.02581
-5.83633
-3.12806
5.86912
0.803864
-6.0311
0.0411482
-5.97315
-2.96526
-6.507
-2.64557
-6.01128
-9.0458
-1.8925
-7.1533
6.54476
-5.96437
-2.39977
6.42974
1.76148
-7.21314
7.20564
-7.44613
7.09798
0.0937638
3.62389
4.3512
1.89807
-2.37868
4.27675
-5.01372
7.27146
-8.51132
3.4976
4.0335
-6.50223
-4.47782
4.95904
4.11288
5.29303
8.83861
-10.6613
1.82271
-10.7311
12.3848
-1.6537
-16.5101
5.77899
-7.6715
2.66226
0.255425
2.68979
0.678256
2.36965
-3.0479
-2.2837
-2.30536
-2.26869
-3.26877
5.53747
1.16694
-3.31297
2.14602
-3.41095
4.57789
-0.108065
-3.2049
5.15543
-2.78579
5.41086
-3.51901
1.89185
3.22898
5.4736
-2.24462
4.1729
-1.58693
1.74863
-3.99325
-1.52015
-2.97531
5.01513
-3.17566
3.5938
-0.217354
3.81115
-4.00645
0.966788
-0.633584
3.58293
3.74024
4.10008
-3.02798
2.86826
-4.45519
-1.12498
-3.87302
-0.783173
-0.577762
-3.62523
4.20299
5.97168
-6.54945
-5.38215
9.64351
-4.26135
7.74866
-5.45581
-2.29284
-4.27815
-4.35516
3.87056
1.98866
9.73732
0.188718
-5.64453
-4.97713
-4.0106
3.16632
2.02638
-2.06126
3.70797
2.01814
-0.130103
0.640806
1.17599
1.89853
-1.25772
0.157578
1.74095
-1.42444
2.03382
0.713775
-2.10406
0.0741533
-1.42576
3.36237
0.990521
-2.05174
0.794026
1.11044
-3.35664
4.66074
-2.29248
-2.36825
5.77117
1.21528
-3.50776
4.06271
-3.75607
2.2763
-3.18373
-1.23147
-4.98754
-3.41461
-2.44375
4.58977
-3.09372
5.1045
1.11438
-4.92418
6.03857
-3.45532
1.68224
-3.05473
3.7685
-1.12257
-1.93216
2.64283
2.60564
-2.78751
0.0668155
-0.144679
2.22121
-2.36589
-0.580029
-2.55115
-4.54603
4.90772
-2.17158
4.61317
2.10517
-1.92664
6.53982
1.82428
-3.75092
-3.26611
-3.71306
-1.38989
3.15276
-1.13258
-5.45115
-6.92132
5.53887
-0.244416
-7.73695
9.96718
-2.23023
-5.4459
1.90805
5.22016
-7.8299
1.17176
-4.31731
5.64988
5.99397
5.74956
-10.1046
0.840886
-5.31889
2.66461
-7.9835
6.57561
-5.28051
8.24505
-10.0067
7.60696
-8.24524
5.09838
-2.88512
5.59245
-3.90569
2.53439
-6.54861
-5.08847
6.9993
-3.66423
7.78952
-4.18526
11.9748
-7.10256
7.01381
4.96097
-1.46751
-5.87685
-6.86273
5.39523
0.151075
5.95556
4.93663
-2.89865
4.56508
2.2323
-4.64021
-2.08166
-6.49726
1.85705
-3.34414
-1.88708
3.74414
3.21615
3.73993
1.28861
-3.26659
6.77406
-7.55793
-2.07471
-3.59336
6.77877
-1.38355
4.0962
-7.68957
-2.26685
5.27564
-0.0328303
-5.24281
1.77889
-4.90694
0.761892
-5.66884
5.07443
-5.03329
2.16132
-9.83283
-5.05182
-4.91817
-2.32075
-5.12538
-7.60611
5.28535
-1.82712
5.37852
-8.62733
8.59449
-3.7575
9.04285
-5.37441
-1.13259
5.84645
1.25153
10.2944
0.113046
-4.59087
-1.83306
3.85599
-2.02293
1.33326
-3.51219
0.343802
2.47989
3.29129
-6.46855
-0.0336797
-4.62455
-3.84764
7.96052
5.79586
11.7675
1.10622
9.20952
-1.249
10.3157
4.04404
4.27893
-2.94427
4.76699
1.25872
4.75632
-0.857736
2.74958
1.83206
1.88695
0.817427
2.28491
1.45533
3.2517
0.203794
-2.10157
4.67513
-8.68573
-0.969403
-8.11101
1.09863
5.74451
-4.64588
3.08491
-1.05853
1.06198
0.242902
-1.83151
1.58861
-2.70359
-1.96162
-0.220668
-1.51004
2.30407
1.85233
-2.0834
-0.620191
0.257696
-3.67231
2.92603
-2.85922
-0.253579
5.78499
-2.69713
0.331241
-1.01489
-2.21991
-2.82776
2.75361
6.25539
0.284426
3.14262
5.19214
3.10016
0.201515
5.77444
-6.64347
-3.76295
-5.80258
0.773023
5.99318
2.12194
7.90315
7.08291
5.69936
-1.9902
-9.54813
7.37942
-2.61244
5.72572
-0.482911
-5.18592
4.78729
2.48417
-5.59116
0.557872
-4.62805
-7.24049
-0.223685
8.81818
-10.0707
8.9381
5.97285
1.18046
-4.25
-0.668176
4.09367
0.185262
10.501
-1.12191
-6.92275
8.04466
-4.6226
3.6532
0.914178
2.7938
2.50279
1.44426
-5.4785
-10.1244
-1.76088
-1.59576
-4.12914
0.363615
-2.21595
6.30319
-2.64999
4.01035
5.39467
6.45665
-2.27294
-4.27651
6.53429
-2.52394
3.9327
)
;

boundaryField
{
    wall-4
    {
        type            calculated;
        value           uniform 0;
    }
    velocity-inlet-5
    {
        type            calculated;
        value           uniform -3.75095;
    }
    velocity-inlet-6
    {
        type            calculated;
        value           uniform -5.62643;
    }
    pressure-outlet-7
    {
        type            calculated;
        value           nonuniform List<scalar> 8(6.17115 6.0165 6.60742 6.78274 6.71365 6.78533 6.71964 6.71691);
    }
    wall-8
    {
        type            calculated;
        value           uniform 0;
    }
    frontAndBackPlanes
    {
        type            empty;
        value           nonuniform List<scalar> 0();
    }
}


// ************************************************************************* //
