/*--------------------------------*- C++ -*----------------------------------*\
  =========                 |
  \\      /  F ield         | OpenFOAM: The Open Source CFD Toolbox
   \\    /   O peration     | Website:  https://openfoam.org
    \\  /    A nd           | Version:  9
     \\/     M anipulation  |
\*---------------------------------------------------------------------------*/
FoamFile
{
    format      ascii;
    class       volVectorField;
    location    "14";
    object      U;
}
// * * * * * * * * * * * * * * * * * * * * * * * * * * * * * * * * * * * * * //

dimensions      [0 1 -1 0 0 0 0];

internalField   nonuniform List<vector> 
918
(
(0.985249 -0.000416708 0)
(0.00499561 2.96626 0)
(-0.00109223 1.64466 0)
(0.979774 0.00205722 0)
(0.000338405 1.60391 -4.08519e-22)
(-0.007022 2.94878 -1.85536e-18)
(0.851464 1.18638 7.35683e-19)
(0.49248 0.233846 -8.98992e-21)
(0.999945 -0.000418545 0)
(0.00510086 1.21066 0)
(-0.0044986 1.35837 0)
(0.822693 -0.00547956 0)
(0.0110708 2.93037 0)
(0.00136876 2.79483 0)
(-0.0173637 3.1694 1.09437e-18)
(-0.00364256 1.51771 -1.77266e-20)
(0.589025 0.103997 5.58983e-19)
(0.168967 1.19782 6.1417e-19)
(0.964925 0.00530314 0)
(-0.000942826 1.48314 0)
(0.168538 0.273118 -4.72761e-19)
(1.0014 -0.00526229 0)
(1.0002 -0.00988515 0)
(0.975561 -0.00659855 0)
(0.739918 -0.0241954 0)
(0.017572 2.63045 0)
(-0.0152239 2.9102 6.39653e-19)
(-0.0105935 1.6665 0)
(-0.00982104 1.76186 0)
(-0.00892327 1.66248 0)
(0.00117284 1.8082 0)
(0.00089149 1.61802 3.23367e-22)
(-0.0030584 1.5266 0)
(-0.020636 2.98757 -6.483e-23)
(-0.016718 3.00532 1.44248e-18)
(0.00210745 3.00024 0)
(0.869407 -0.00604227 0)
(0.373914 0.903893 -3.89876e-20)
(0.842593 1.20368 -1.0336e-18)
(0.988851 1.05709 9.70931e-19)
(0.706319 1.29265 -1.70728e-19)
(0.701205 1.27269 9.81348e-19)
(0.522848 0.304807 8.77152e-21)
(0.51601 0.206938 0)
(1.19273 0.573354 0)
(0.486544 0.320999 4.09093e-20)
(0.450611 0.229246 -4.24507e-20)
(0.919966 -0.00691189 0)
(1.00047 -1.03484e-05 0)
(0.999955 0.000367399 0)
(1.00392 -0.00769723 0)
(1.00073 -0.0008961 0)
(1.00012 8.28737e-05 0)
(0.0472275 1.56886 -5.26791e-19)
(-0.023295 1.29371 0)
(0.00221667 1.13353 0)
(-0.0257121 1.38069 0)
(0.00111436 1.27198 0)
(-0.00248555 1.56995 0)
(-0.00532528 1.51562 0)
(0.00274952 1.35497 0)
(-0.0141764 1.54056 0)
(-0.00838432 1.37726 0)
(0.898115 -0.000922115 0)
(0.901511 0.00795403 0)
(0.836702 0.00104512 0)
(0.893472 0.0120348 0)
(0.809593 -0.00770675 0)
(0.0147186 3.00038 6.78912e-19)
(0.0115602 3.00772 0)
(0.00617023 3.00292 0)
(0.0135473 2.99727 7.56447e-24)
(0.00801981 2.95847 -1.00903e-18)
(0.0144967 2.98217 0)
(0.0107573 2.90366 0)
(0.0250512 2.93054 1.3501e-24)
(0.0041067 2.82505 0)
(0.0314247 2.91543 0)
(-0.00680665 2.74366 0)
(0.311659 3.57018 0)
(-0.132506 3.65217 0)
(0.141627 3.26035 -1.01848e-18)
(-0.0109432 2.99237 0)
(-0.00868561 1.78984 0)
(-0.00372686 1.6436 1.74875e-20)
(-0.0044839 1.53188 -2.67685e-20)
(0.651807 0.166097 -1.92351e-19)
(0.612704 0.0699301 -1.85771e-19)
(0.617862 0.195011 -5.7494e-19)
(0.57297 0.131684 -3.84132e-19)
(0.268012 1.04615 0)
(0.239454 1.27019 -6.14075e-19)
(0.328065 1.26446 1.01613e-18)
(0.988394 0.00861618 0)
(0.944241 0.00704084 0)
(1.00033 0.000594412 0)
(1.00277 0.00939284 0)
(1.00251 0.00850451 -1.05823e-18)
(0.992007 0.00980485 7.99223e-19)
(-0.00976922 1.59618 0)
(-0.00645269 1.47341 0)
(-0.0147689 1.67549 0)
(-0.0118458 1.6239 0)
(0.000291773 1.50197 0)
(0.246127 0.283742 1.45885e-19)
(0.287287 0.26626 0)
(0.993321 -0.0085677 0)
(0.953945 -0.00671128 0)
(0.869099 0.0176073 0)
(0.835359 0.0340097 0)
(0.787586 -0.0096008 0)
(1.02243 -0.00555051 0)
(0.783159 0.0408075 0)
(0.65748 -0.017338 7.50762e-19)
(-0.0354307 2.8661 3.19136e-19)
(0.0438362 2.90729 0)
(0.057265 2.88282 0)
(-0.00616212 2.69627 0)
(-0.0130429 2.98539 5.86615e-19)
(-0.0183191 2.89569 0)
(-0.0153278 2.98815 -1.85854e-18)
(-0.0135322 2.92528 6.42076e-19)
(-0.00738823 1.81447 0)
(-0.00571901 1.80899 0)
(-0.00140501 1.64498 -3.61201e-22)
(-0.00236608 1.61844 0)
(-0.00618135 1.51729 0)
(0.932154 -0.00197264 0)
(0.865966 -0.00102552 0)
(0.856629 0.00739237 0)
(0.938672 -0.00338211 0)
(0.881665 -0.00496287 0)
(0.486217 1.1029 3.8513e-20)
(0.540833 1.16672 0)
(0.334812 0.831364 2.47013e-21)
(0.278229 0.694195 0)
(0.957275 1.08574 -2.8056e-19)
(1.0719 0.898467 5.78518e-19)
(0.403824 1.3355 0)
(0.582574 1.3408 0)
(0.52965 1.28495 0)
(0.101286 0.110884 -1.05242e-19)
(0.555391 0.279125 0)
(0.542341 0.183322 1.10739e-19)
(1.0435 0.945687 0)
(1.11371 0.791994 0)
(1.14002 0.738814 -5.06608e-19)
(1.17145 0.631147 0)
(1.22315 0.414581 6.08044e-20)
(0.951686 -0.00667627 0)
(0.96084 -0.00956891 0)
(0.899696 -0.00776181 0)
(0.984067 -0.00885517 0)
(0.975753 -0.00823613 0)
(0.938143 -0.00609862 0)
(1.00009 0.00225241 0)
(1.00079 0.001422 0)
(0.999924 0.000785328 0)
(0.0482581 1.72991 2.85186e-19)
(0.0837216 1.52511 0)
(0.024751 1.75562 4.63268e-19)
(0.0282385 1.59541 -3.93661e-19)
(0.0714771 1.2018 -5.07577e-19)
(-0.0285655 1.21188 0)
(0.0856851 1.11155 0)
(-0.01197 1.4477 0)
(0.0070058 1.3088 0)
(-0.00809691 1.6918 -1.16938e-21)
(-0.00722908 1.59271 0)
(-0.0024358 1.68352 -5.54148e-20)
(-0.000107172 1.57035 1.06804e-19)
(-0.00878505 1.48585 0)
(-0.00480252 1.51032 0)
(0.0040421 1.3353 0)
(-0.0167217 1.55934 0)
(-0.0120133 1.40467 0)
(0.969419 0.0141076 0)
(0.917273 0.00430759 0)
(0.952918 0.00801441 0)
(0.888901 0.00166362 0)
(0.838915 -0.00589939 0)
(0.920435 -0.000287146 0)
(0.913399 0.00709767 0)
(0.837415 -0.00227545 0)
(0.00605747 3.06482 -5.95252e-21)
(0.016354 3.05818 0)
(0.0147828 2.96922 0)
(0.00859018 2.87638 0)
(0.929179 3.99035 0)
(1.24429 3.31866 1.01663e-18)
(0.0717215 3.08432 0)
(-0.025965 2.9123 0)
(-0.00966628 1.79379 0)
(-0.01098 1.78982 0)
(-0.00923874 1.79144 0)
(-0.0037877 1.79713 5.49877e-21)
(-0.00981855 1.79212 0)
(-0.00420534 1.79075 0)
(-0.00342656 1.54866 1.67561e-21)
(-0.005304 1.67037 3.42247e-20)
(-0.00503808 1.65846 2.73428e-20)
(-0.00371148 1.53701 0)
(0.684458 0.127618 2.81785e-19)
(0.642252 0.0371505 -2.74205e-19)
(0.19046 1.38524 0)
(0.294321 0.806363 -2.50254e-19)
(0.153307 1.47852 -7.54654e-19)
(0.218398 1.22758 7.52691e-19)
(0.900814 0.0101454 0)
(0.967666 0.0132653 0)
(0.976257 0.0122651 0)
(0.924756 0.00956368 0)
(-0.0173477 1.576 0)
(-0.0148789 1.58853 0)
(-0.0112612 1.43791 0)
(0.442075 0.33923 3.75667e-19)
(0.362255 0.317544 -4.56033e-19)
(0.380843 0.243699 0)
(1.13861 0.0832793 -3.65711e-21)
(1.12322 0.0385345 0)
(1.05602 0.0327511 0)
(0.971038 0.0043781 0)
(0.699225 0.0817945 0)
(0.723077 0.0589138 -1.20735e-18)
(0.644344 0.0116329 4.61631e-19)
(0.0100375 2.98261 4.1035e-19)
(-0.0317385 2.86838 4.91143e-20)
(0.00390595 3.05006 -1.28713e-20)
(0.0198683 3.0437 4.64085e-19)
(-0.0150732 2.9965 2.13614e-20)
(-0.0129645 2.94939 -8.65967e-23)
(-0.0172818 3.01208 -4.05775e-19)
(0.0146404 3.02444 2.92685e-19)
(0.00716266 3.03654 -4.57156e-19)
(0.947583 0.00781444 0)
(0.940978 0.00450332 0)
(0.873214 0.0026278 0)
(0.95487 0.0125506 0)
(0.939136 0.0136645 0)
(0.877655 0.00837075 0)
(0.921135 -1.16796e-05 0)
(0.921521 0.00750168 0)
(0.840944 -0.00168037 0)
(0.701528 1.40229 3.3324e-19)
(0.742018 1.51733 0)
(0.218887 0.387351 2.40905e-20)
(0.177194 0.527415 1.76277e-19)
(0.252192 0.645253 -9.08357e-20)
(0.209916 0.539134 1.64991e-19)
(0.290379 0.643894 6.04049e-19)
(0.120751 0.139606 1.87406e-19)
(0.599776 0.226255 4.15982e-19)
(0.575548 0.246767 1.01651e-19)
(0.552007 0.15886 2.11026e-19)
(1.21073 0.469823 2.98428e-19)
(1.22668 0.261731 3.12811e-19)
(0.0110915 1.75554 1.82187e-19)
(0.0162566 1.61358 0)
(1.01002 0.0248589 0)
(0.982272 0.0151952 0)
(0.938746 -0.00221487 0)
(0.0108577 3.07444 0)
(0.0199614 2.94416 7.92734e-19)
(0.0165744 2.95641 0)
(0.00615855 2.85083 -7.86222e-19)
(0.00613936 3.09161 1.877e-19)
(0.00745786 3.08263 0)
(0.77771 1.82607 -2.38971e-19)
(1.25041 2.51414 6.57268e-19)
(0.762858 1.96899 -1.49515e-18)
(0.0212408 2.98465 -2.96272e-19)
(0.0374412 3.00828 0)
(-0.0315609 2.88296 0)
(-0.000498019 1.66518 -5.98506e-21)
(-0.00370316 1.67507 -7.57031e-20)
(-0.00103206 1.562 -5.83197e-21)
(0.277731 1.28318 7.16242e-19)
(0.253552 0.56336 -4.90007e-19)
(0.0663136 1.66713 4.87529e-19)
(0.0998917 1.57813 -6.02023e-19)
(0.12157 1.40278 7.86335e-20)
(0.00350685 3.11789 -1.10512e-18)
(0.0177577 3.11788 1.18142e-18)
(-0.00862024 2.98103 5.07364e-19)
(-0.00249007 2.97783 -4.47172e-19)
(-0.0215461 2.88263 -5.16733e-19)
(0.00891271 3.0987 -1.37415e-18)
(0.00217158 3.10665 1.33492e-18)
(0.186494 0.563931 0)
(0.117839 0.525564 -3.8646e-19)
(0.154295 0.20448 1.64031e-19)
(0.330135 0.787851 5.77102e-19)
(0.186163 0.196261 -8.8317e-19)
(1.2206 0.170836 -5.72813e-20)
(1.22403 0.312795 0)
(1.20789 0.118915 1.22917e-19)
(-0.00763105 1.72624 -1.48415e-21)
(-0.00185583 1.74068 0)
(0.000852846 1.60239 0)
(0.361735 1.17235 -2.32038e-19)
(0.384704 1.00899 -5.05651e-19)
(0.183712 0.323083 8.52669e-19)
(1.00566 -0.0111191 0)
(1.00776 -0.00792887 1.92969e-19)
(-0.00661379 1.80255 0)
(-0.0133888 1.81023 0)
(1.00255 0.00373781 1.91003e-21)
(1.00284 0.00893869 3.96865e-19)
(-0.00445309 1.80129 -7.33913e-21)
(-0.00461459 1.80024 0)
(0.0401585 3.18432 1.01625e-19)
(0.400612 3.50492 0)
(1.09949 0.644468 6.4667e-20)
(1.01208 0.0126013 -2.55394e-21)
(1.01903 -0.0180414 0)
(1.00171 0.000327458 5.08601e-23)
(-0.148644 1.47212 0)
(-0.013198 2.09739 0)
(-0.0213026 1.77081 0)
(-0.0345438 1.85942 7.26199e-20)
(-0.0072071 1.82997 4.44186e-20)
(1.00363 0.0105891 2.2885e-21)
(1.04581 0.0126328 0)
(1.07247 0.0229792 0)
(-0.0120577 1.79004 0)
(-0.00854786 1.81134 0)
(-0.0197446 1.79438 0)
(0.245295 1.18488 -4.2743e-19)
(1.01114 -0.00986716 0)
(1.00993 -0.0138301 0)
(1.00244 0.000748836 2.43739e-19)
(1.00603 -0.00526366 -2.90578e-19)
(1.00091 -0.000752297 0)
(-0.0131718 1.78923 0)
(-0.0104508 1.79514 0)
(-0.00963523 1.79472 0)
(-0.0169743 1.79776 0)
(-0.0117862 1.79424 0)
(-0.0151708 1.79738 0)
(1.02342 0.00370018 0)
(1.02308 0.0106568 -1.04927e-21)
(0.796782 1.25176 5.26831e-19)
(1.00264 0.000418803 -2.44649e-19)
(1.00346 0.00558421 2.95091e-19)
(1.00121 0.00197604 0)
(1.01054 0.00982092 2.39165e-19)
(1.008 0.00833264 -2.96458e-19)
(1.00762 0.0142839 0)
(-0.00759592 1.81158 0)
(-0.00643188 1.80699 1.52911e-20)
(-0.00647475 1.80666 -1.05733e-20)
(1.181 0.258085 -7.079e-20)
(1.11878 0.0794938 0)
(0.0568275 3.07905 -5.05802e-19)
(0.069551 2.85098 -4.10229e-20)
(0.147854 3.20034 7.70351e-19)
(0.142555 3.22879 4.07014e-21)
(0.140395 3.24414 0)
(0.0222118 3.13864 1.08685e-19)
(0.0813829 3.16363 4.93833e-19)
(0.0748037 3.19076 -2.10525e-19)
(0.0262041 3.12857 0)
(0.708968 0.332014 0)
(0.619942 0.393649 0)
(1.08091 0.672595 -2.49962e-19)
(1.0734 0.807076 3.90011e-19)
(1.13206 0.560742 0)
(1.1643 0.508962 0)
(1.01546 0.0133997 -4.43757e-19)
(1.01384 0.0147413 5.53592e-19)
(1.01953 -0.020005 0)
(1.01412 -0.0216388 0)
(1.00723 0.0026589 0)
(1.01021 0.00305332 0)
(1.00392 0.00265263 0)
(1.00979 0.00705253 0)
(1.00698 0.00568378 0)
(1.00569 0.00491042 0)
(-0.137975 1.49051 0)
(-0.112828 1.54546 0)
(-0.156006 1.42383 0)
(-0.0722301 1.36306 0)
(-0.0452903 2.15239 0)
(0.0581583 2.15462 -3.08274e-19)
(-0.0125971 2.09151 0)
(-0.0100584 2.02206 1.56333e-19)
(-0.0279638 1.92939 -1.40837e-19)
(-0.0207173 1.77213 0)
(-0.0180605 1.7745 0)
(-0.0316292 1.75916 0)
(-0.0248103 1.72864 0)
(-0.0563516 1.82856 -4.47981e-20)
(-0.0175377 1.83781 6.07505e-20)
(-0.0329048 1.85784 7.33031e-20)
(-0.0166494 1.84598 0)
(-0.00746209 1.83073 -9.65874e-20)
(-0.00722012 1.82593 -5.33421e-20)
(-0.0502057 1.82303 3.48041e-20)
(-0.029499 1.83183 -7.92539e-20)
(-0.0337666 1.8429 -9.53957e-20)
(1.01093 0.0164712 4.36019e-19)
(1.01033 0.0037812 -5.37177e-19)
(1.00548 0.0202697 -4.54737e-19)
(0.992726 0.0156932 5.74554e-19)
(1.03946 0.0180107 0)
(1.03979 0.0115334 0)
(1.06094 0.0415972 0)
(1.04744 0.0230843 0)
(1.05813 0.0125653 0)
(1.10363 0.0725467 0)
(1.07966 0.0466946 0)
(1.09154 0.0368562 0)
(-0.00969122 1.80221 -1.77656e-21)
(-0.0120282 1.79207 0)
(-0.0109587 1.79491 0)
(-0.00894312 1.81493 1.58908e-20)
(-0.00915198 1.81508 -7.16463e-22)
(-0.0160633 1.78827 1.64615e-20)
(-0.0153614 1.79018 -1.67792e-20)
(-0.0178947 1.79435 0)
(-0.0141343 1.79494 0)
(-0.0139302 1.79547 0)
(-0.0203986 1.79318 0)
(-0.0220482 1.79086 0)
(0.42417 1.24107 8.9612e-19)
(0.397459 1.35629 3.28198e-19)
(0.581735 2.43469 -1.76733e-19)
(0.280744 2.37601 4.57244e-19)
(0.432042 2.39147 -1.69207e-19)
(1.01965 -0.0116851 0)
(1.01605 -0.00895119 0)
(1.01608 -0.016305 0)
(1.0084 -0.00117223 0)
(1.00454 -0.00143319 0)
(1.00703 -0.00479913 0)
(1.01036 -0.00349491 0)
(1.01286 -0.0051857 0)
(1.02305 0.0123448 4.27671e-19)
(1.01514 0.0201966 -5.42253e-19)
(1.02497 0.00581138 -4.27531e-19)
(1.02136 0.00370366 5.37065e-19)
(0.758676 1.27494 0)
(0.668323 1.35515 6.32476e-19)
(0.874669 1.1832 3.71674e-19)
(0.90717 1.16322 -4.93856e-19)
(1.11995 2.61375 -5.69388e-19)
(0.828698 0.0974463 2.88829e-19)
(1.12049 0.0930801 0)
(1.16001 0.170041 6.32135e-20)
(1.15427 0.1494 2.69088e-21)
(0.969449 0.125587 0)
(0.148104 2.97166 1.07955e-19)
(0.12846 2.87802 -6.37827e-19)
(0.0427598 2.3493 4.71759e-19)
(0.116906 0.132523 -1.93962e-19)
(0.345977 3.43252 -4.48098e-19)
(0.19942 3.32347 0)
(0.239879 3.36827 5.83564e-19)
(0.258549 3.04185 -6.80525e-19)
(0.348315 3.19925 0)
(0.00659625 3.12079 2.59003e-20)
(0.0176173 3.12966 -3.33396e-19)
(0.0152787 3.12544 4.90709e-19)
(0.0381285 3.14033 0)
(0.0370401 3.15196 0)
(1.20499 2.61912 0)
(0.507062 0.83521 -2.211e-19)
(1.01337 0.979499 -2.06585e-19)
(0.961913 1.06082 0)
(0.805845 0.95792 6.21975e-20)
(1.03703 0.869203 3.2098e-20)
(0.405538 0.477939 -5.30743e-19)
(0.73307 0.323892 -2.2518e-20)
(0.720629 0.282348 2.20346e-19)
(0.619519 0.429826 1.75922e-20)
(0.560092 0.423023 -7.24081e-19)
(0.7099 0.35998 0)
(0.699357 0.435 3.65875e-19)
(0.708988 0.429718 0)
(0.663043 0.412788 0)
(0.675001 0.350098 0)
(0.733699 0.602032 1.28489e-19)
(1.17299 0.27001 3.8657e-20)
(1.17419 0.405388 0)
(1.18779 0.367818 0)
(0.775243 0.212295 3.28059e-19)
(0.777661 0.529964 -1.8329e-19)
(0.691794 0.510296 2.95258e-19)
(0.891101 0.398087 -2.75356e-19)
(1.01824 0.0182595 2.92453e-19)
(1.01746 0.0140911 -2.98068e-19)
(1.01307 0.0196431 0)
(1.02138 -0.00170681 0)
(1.01891 -0.0164529 -2.68215e-19)
(1.00773 -0.0169192 2.65486e-19)
(1.03526 0.00515773 0)
(1.03011 0.00807683 0)
(1.01187 0.00380066 0)
(1.01481 0.0084387 0)
(1.01938 0.00264443 0)
(1.01491 0.000808718 0)
(-0.099027 1.59373 0)
(-0.0676032 1.62866 0)
(-0.247189 1.40398 1.87838e-19)
(0.189363 1.25097 2.38921e-19)
(-0.0540958 1.30731 4.69308e-19)
(0.0908608 1.23076 -7.82391e-19)
(-0.168392 1.40085 0)
(-0.335938 1.97246 2.5211e-19)
(-0.328214 1.9427 0)
(0.21913 2.44482 2.49027e-19)
(0.073115 2.52992 2.40729e-19)
(-0.334167 1.93626 -2.22083e-19)
(0.0965782 1.186 2.69921e-19)
(-0.161564 1.36635 -2.11637e-19)
(0.113946 1.19485 7.40423e-19)
(-0.170293 1.95253 0)
(-0.011127 2.0045 -5.26113e-19)
(-0.103473 1.8923 -3.20283e-20)
(-0.0268365 1.94744 0)
(-0.0930859 1.94689 1.3186e-19)
(-0.0904785 1.91286 0)
(-0.0148274 2.00124 -1.67129e-19)
(-0.0140064 1.97685 0)
(-0.0500681 1.79269 -3.41261e-20)
(-0.0638585 1.80541 0)
(-0.0664408 1.7639 0)
(-0.0552248 1.77814 3.84614e-20)
(-0.0394459 1.87255 -4.21117e-21)
(-0.032842 1.91512 1.65921e-19)
(-0.0323367 1.89665 1.14666e-21)
(-0.026863 1.81326 3.00669e-20)
(-0.0340162 1.80893 1.92712e-20)
(-0.021815 1.77769 0)
(-0.0229405 1.77823 0)
(-0.103136 1.84726 7.59589e-20)
(-0.0949921 1.76855 4.97576e-20)
(-0.0923739 1.8088 -7.10915e-20)
(-0.142177 1.86512 0)
(-0.0136517 1.806 -5.37005e-20)
(-0.0129146 1.81437 2.50158e-20)
(-0.0132558 1.81339 -8.16738e-21)
(-0.0217476 1.81321 -3.65589e-20)
(-0.0144756 1.81874 -1.26376e-20)
(-0.0150065 1.82436 6.46234e-20)
(1.02201 0.00283611 -2.85914e-19)
(1.01729 0.00965417 2.89644e-19)
(1.01729 0.00265688 0)
(0.997162 0.04551 4.06143e-19)
(0.992382 0.0322985 -4.82646e-19)
(0.964782 0.0241346 5.5855e-19)
(0.992484 0.0815626 -5.39113e-20)
(1.02499 0.00888056 0)
(1.03191 0.0116997 2.46422e-19)
(1.02948 0.00826241 -2.41529e-19)
(1.03341 0.0405154 -1.34188e-20)
(1.03666 0.0263518 1.1814e-19)
(1.02754 0.0523812 0)
(1.02297 0.0432594 -4.43626e-20)
(1.01956 0.0220976 0)
(1.0186 0.0206212 0)
(1.03604 0.00608912 0)
(1.02947 0.00476177 0)
(1.02671 0.0227528 9.14445e-20)
(1.02891 0.0164016 -2.05253e-19)
(1.02787 0.0289523 -9.27576e-20)
(1.0276 0.0295981 -1.08052e-19)
(1.02519 0.0528764 1.9412e-19)
(1.0621 0.0492367 0)
(1.05312 0.0891904 0)
(-0.0138041 1.80614 -2.225e-20)
(-0.0130601 1.79594 -2.03635e-21)
(-0.014529 1.79478 0)
(-0.00950205 1.80774 2.31213e-20)
(-0.00948834 1.80329 3.65143e-21)
(-0.00954853 1.80655 -3.95356e-21)
(-0.00881081 1.82411 4.72981e-20)
(-0.0135258 1.81724 -2.82758e-21)
(-0.0137054 1.8172 1.33797e-20)
(-0.00982208 1.81945 -2.43388e-20)
(-0.00964609 1.82012 2.87755e-20)
(-0.0181613 1.79005 4.14472e-22)
(-0.017852 1.79041 2.52453e-20)
(0.451637 1.14601 -4.94562e-19)
(0.458621 1.32955 -7.57099e-19)
(0.6497 1.36314 -6.11643e-19)
(0.536427 1.37105 -3.14827e-19)
(0.530033 1.40013 0)
(0.620781 2.4016 1.21854e-19)
(0.670982 2.4091 2.21039e-19)
(0.294086 2.46792 9.17781e-20)
(0.265015 2.62273 -1.86733e-19)
(0.36549 2.59576 1.95282e-19)
(0.511644 2.4665 0)
(0.486091 2.40258 -3.7606e-19)
(0.0271384 2.27529 7.8707e-19)
(0.184212 2.39101 -5.63982e-20)
(0.171529 2.26684 -1.03263e-18)
(0.911446 2.3373 1.67905e-19)
(0.838516 2.36882 0)
(1.01043 -0.000831156 9.66578e-21)
(1.01343 -0.00572887 -7.96447e-21)
(1.01559 -0.0073671 -1.44049e-19)
(1.01408 -0.00791575 1.44485e-19)
(1.0131 -0.0012029 0)
(0.656357 1.26649 0)
(0.650584 1.17453 0)
(0.755055 1.05506 0)
(0.635337 1.12055 0)
(1.15368 2.6324 5.30662e-20)
(1.02755 2.34575 0)
(0.773507 2.22944 -6.81916e-22)
(0.87672 2.47101 0)
(0.928991 2.54619 -2.50738e-20)
(0.929029 2.50618 1.70235e-20)
(0.833982 0.137497 0)
(0.800623 0.15957 8.32126e-20)
(0.903007 0.120393 4.2551e-19)
(0.859986 0.108385 -1.71701e-19)
(0.857341 0.0710947 -5.11162e-19)
(1.02074 0.216667 -2.44473e-19)
(0.955162 0.259962 -1.5696e-20)
(0.894801 0.254139 3.7553e-19)
(0.965236 0.206093 2.86754e-19)
(0.926118 0.16312 -5.32817e-19)
(0.893264 0.175125 6.84818e-20)
(0.914532 0.236167 -1.3414e-19)
(0.896092 0.195533 0)
(0.969993 0.165464 2.55078e-19)
(0.999919 0.166919 0)
(0.996433 0.198569 0)
(1.05098 0.0950925 8.23732e-20)
(1.0169 0.152414 -1.23926e-20)
(1.01232 0.215778 -4.51515e-20)
(1.04558 0.182859 0)
(1.01184 0.0242925 2.19475e-19)
(1.01799 0.0434577 2.59375e-19)
(1.01749 0.0279517 -2.17696e-19)
(1.01053 0.0479758 -1.74598e-19)
(1.00017 0.0488195 -2.87329e-19)
(0.97431 0.128028 0)
(0.986834 0.0803429 0)
(0.966203 0.0474316 -2.02583e-19)
(0.929467 0.0553986 8.37995e-20)
(0.996058 0.0782636 2.46531e-19)
(1.01517 0.0946314 -2.49562e-19)
(1.02409 0.12366 2.27158e-19)
(0.996831 0.11942 0)
(1.02687 0.0850315 0)
(1.01463 0.0717799 -1.05471e-19)
(1.01165 0.0745545 -1.98652e-19)
(0.530842 1.08963 -1.04765e-19)
(0.597891 1.55154 1.97649e-19)
(1.13062 2.79424 1.49132e-19)
(1.21627 3.11244 -7.61621e-20)
(1.22363 2.74368 5.81671e-19)
(1.26359 2.72569 -3.47208e-19)
(1.18167 2.34288 -3.56528e-21)
(1.19899 3.01819 2.25613e-19)
(1.21037 2.98407 -2.69039e-19)
(1.21026 3.26199 -2.74498e-19)
(1.37066 2.99087 3.80547e-19)
(1.36661 2.90133 0)
(0.510366 0.843926 -1.03417e-20)
(0.155332 1.29906 3.55359e-19)
(0.514735 0.550253 3.51423e-19)
(0.336395 0.320261 3.80459e-19)
(0.555913 0.453799 4.04984e-19)
(0.54009 0.501165 -6.39085e-19)
(0.541921 0.528605 5.22822e-19)
(0.514661 0.483013 -2.09897e-19)
(0.479583 0.435369 4.85618e-19)
(0.776447 0.25617 -1.82735e-19)
(0.74526 0.298328 0)
(0.742872 0.255248 1.15177e-20)
(0.683281 0.523623 1.87515e-19)
(0.664864 0.489404 -6.92964e-19)
(0.600951 0.504318 1.98258e-20)
(0.62153 0.481415 0)
(0.629091 0.729794 1.39737e-19)
(0.773413 0.774742 5.00361e-20)
(0.705429 0.846484 -6.68254e-20)
(0.813199 0.800264 -1.69526e-20)
(0.868601 0.83349 1.56719e-20)
(0.874782 0.842908 -1.60366e-20)
(0.78182 0.623369 -2.21406e-19)
(0.866241 0.683205 1.57483e-20)
(0.928936 0.694063 0)
(0.919879 0.668113 -1.47085e-20)
(0.974998 0.295928 6.16036e-20)
(1.06807 0.275719 9.13996e-21)
(1.00593 0.255266 9.97218e-20)
(0.949603 0.327811 -1.42233e-19)
(0.986584 0.397198 0)
(1.0517 0.384199 0)
(0.880311 0.325855 5.54592e-21)
(0.84006 0.27241 0)
(0.83836 0.251397 1.97209e-19)
(0.889824 0.257153 -5.34081e-21)
(0.880264 0.401305 7.53893e-19)
(0.825342 0.466189 1.93662e-19)
(0.83361 0.430814 -2.43921e-19)
(0.776986 0.418846 2.62022e-19)
(0.761152 0.420921 1.81267e-19)
(0.756369 0.41507 -1.77318e-19)
(1.02513 -0.00844885 2.2836e-19)
(1.02725 -0.00787829 0)
(1.0253 -0.0106235 1.55121e-19)
(1.0236 -0.0135546 -3.41621e-19)
(1.03516 0.000478938 1.6829e-19)
(1.02889 0.00937706 -3.55518e-19)
(1.02721 0.0131082 0)
(1.02129 0.0139757 -7.40705e-20)
(1.02267 0.00654383 1.84795e-19)
(1.01785 0.0116798 -9.3984e-20)
(1.02125 0.0136166 7.00114e-20)
(-0.0440349 1.72117 0)
(-0.0764628 1.75215 0)
(-0.0590887 1.67033 0)
(-0.0379418 1.68306 0)
(-0.221096 1.68466 -1.26271e-19)
(-0.216764 1.56147 2.83538e-20)
(-0.293925 1.93131 1.79958e-20)
(-0.373014 1.70124 -1.3889e-19)
(-0.128275 1.77078 -2.8896e-20)
(-0.143397 1.76499 1.96171e-20)
(-0.179639 1.67455 1.83096e-20)
(-0.155651 1.68965 4.15711e-20)
(-0.109813 1.71367 3.29781e-21)
(-0.101759 1.73554 -2.43622e-21)
(-0.124819 2.0188 -1.38572e-19)
(-0.133357 2.0812 0)
(-0.255341 2.1178 3.20508e-20)
(-0.298602 1.9714 9.6155e-21)
(-0.209506 2.28674 2.73332e-20)
(-0.107144 2.41089 0)
(-0.0773319 2.44793 -1.75225e-19)
(-0.0185313 2.50899 1.24672e-19)
(-0.241666 2.21783 -1.08604e-20)
(-0.2503 2.17836 -3.33996e-20)
(-0.176777 2.28153 0)
(-0.0811677 1.83609 -1.00922e-19)
(-0.0672782 1.83997 -1.48517e-19)
(-0.0692972 1.83304 0)
(-0.0737074 1.87512 -4.82411e-21)
(-0.0910543 1.87214 5.42691e-20)
(-0.0267311 1.79019 5.83233e-21)
(-0.0226386 1.78976 -8.89381e-20)
(-0.0262177 1.79428 1.88084e-20)
(-0.0303823 1.79597 3.67533e-20)
(-0.0364398 1.79759 0)
(-0.0257187 1.79397 0)
(-0.025221 1.78739 2.76742e-20)
(-0.0258034 1.79131 -8.80473e-21)
(-0.0261285 1.79221 0)
(-0.0247183 1.78202 2.07078e-20)
(-0.0236584 1.78332 -4.08345e-20)
(1.0301 0.0181861 0)
(1.03192 0.0176208 -2.20934e-20)
(1.03221 0.0174345 -1.65335e-19)
(1.03083 0.0186395 0)
(1.03066 0.0208052 0)
(1.03443 0.0109613 -5.0066e-21)
(1.03451 0.0103577 2.73125e-19)
(1.03022 0.00899235 3.36734e-19)
(1.02938 0.0060753 0)
(1.02341 0.00483013 0)
(1.02702 0.0154854 1.67946e-19)
(1.02193 0.0125808 0)
(1.02301 0.00966589 0)
(-0.0166763 1.80748 0)
(-0.0186618 1.79082 1.93458e-21)
(-0.0179897 1.7989 1.26912e-20)
(-0.0254414 1.79246 0)
(-0.0211158 1.7932 1.68053e-20)
(-0.0200973 1.79221 -8.32768e-21)
(-0.0227821 1.7912 0)
(0.644011 1.69865 0)
(0.537966 1.32455 1.12732e-18)
(0.479049 1.76556 0)
(0.627434 1.22141 -1.19798e-18)
(0.554337 1.25871 0)
(0.580406 1.22087 5.14949e-19)
(1.01503 2.67862 -3.91969e-21)
(0.938503 2.35554 -2.10444e-19)
(0.848907 2.06652 3.49059e-19)
(0.847336 2.35429 9.52819e-20)
(0.893226 2.49778 0)
(0.920991 2.48745 0)
(0.888268 2.33783 0)
(0.888529 2.30232 -3.73937e-19)
(0.757462 2.51375 8.25271e-21)
(0.882714 2.47053 -1.15632e-20)
(0.879823 2.45209 8.76993e-21)
(0.711168 2.38188 0)
(0.803694 2.3713 0)
(0.763245 2.39206 -2.10613e-19)
(0.852793 2.50752 0)
(0.59084 1.08133 0)
(0.480185 0.905826 4.06939e-20)
(0.528663 0.939488 1.61192e-21)
(0.491451 1.03055 0)
(0.509004 0.980874 -6.22092e-20)
(0.723229 0.868498 1.80707e-20)
(0.764542 0.990497 0)
(0.74179 0.96967 -7.18211e-20)
(0.635017 1.00101 0)
(0.616247 0.919503 0)
(1.13416 2.79718 6.40694e-20)
(1.11229 2.86528 1.2311e-19)
(0.882725 2.4055 -2.84727e-19)
(0.852374 2.38301 2.87315e-20)
(1.09511 2.75409 0)
(1.05251 2.71784 -3.5645e-20)
(1.05256 2.47489 -5.66825e-20)
(0.930784 2.18546 -2.44008e-20)
(0.483012 1.43269 0)
(0.459222 1.09614 9.22036e-20)
(0.551024 1.19823 0)
(0.835898 0.217975 0)
(0.808275 0.181076 0)
(0.772469 0.193655 0)
(0.83047 0.218858 -3.12998e-19)
(0.785984 0.219997 1.92266e-19)
(0.930661 0.0530355 -1.66502e-19)
(0.938351 0.101722 0)
(0.923026 0.103856 7.93441e-20)
(0.885552 0.0777132 3.25345e-19)
(0.886601 0.057866 -2.00568e-19)
(1.16377 3.38274 -9.92114e-19)
(1.20897 3.30449 0)
(1.16582 3.40621 -1.94696e-18)
(0.655859 3.56616 1.67352e-18)
(0.883797 3.12443 3.9372e-19)
(0.494956 0.86103 2.03732e-19)
(0.442781 0.838505 0)
(0.344758 0.568301 -7.96488e-20)
(0.406133 0.687206 3.58746e-19)
(0.510622 0.546432 -1.08857e-19)
(0.496321 0.566579 1.22876e-19)
(0.619499 0.54263 2.62589e-19)
(0.635562 0.554839 0)
(0.586933 0.628588 0)
(0.552849 0.565514 0)
(0.91226 0.581031 -5.25796e-20)
(0.832048 0.518037 -1.87052e-19)
(0.859404 0.558821 8.85809e-20)
(0.899727 0.493734 -1.3505e-19)
(1.00656 0.463188 0)
(1.01305 0.547015 -5.9446e-21)
(0.821489 0.364533 -3.93093e-19)
(0.828595 0.351264 -4.51416e-19)
(0.810539 0.36758 3.07831e-19)
(0.803984 0.333113 -3.50014e-19)
(0.832355 0.295852 -2.61608e-19)
(0.803769 0.298097 3.20082e-19)
(1.03815 0.00185956 -1.76148e-19)
(1.03949 0.00281473 3.58065e-19)
(1.02717 -0.0019089 2.19181e-19)
(1.03295 0.00270602 -2.61277e-19)
(1.03195 0.0151352 0)
(1.03528 0.0115152 -4.30548e-19)
(-0.146711 1.86705 3.09382e-20)
(-0.16323 1.86304 0)
(-0.227537 1.93379 1.97904e-20)
(-0.254535 1.96226 -4.59515e-21)
(-0.278696 1.91494 -3.26589e-20)
(-0.238776 1.90206 0)
(-0.0193711 1.81012 0)
(-0.024773 1.79925 -9.28584e-21)
(-0.0242306 1.79491 8.28285e-21)
(-0.0229309 1.79541 1.97818e-21)
(-0.0195424 1.8069 -1.65689e-20)
(-0.0178077 1.80942 1.06269e-20)
(0.587869 1.42444 3.84211e-19)
(0.625095 1.47156 -4.1054e-19)
(0.630557 1.27449 4.96125e-19)
(0.754536 1.4132 -2.63613e-20)
(0.644615 1.28117 0)
(0.613952 1.30601 5.59609e-19)
(0.615587 1.33078 -5.523e-19)
(0.606175 1.24058 -4.85463e-19)
(0.637351 1.26453 0)
(0.592015 1.26486 0)
(0.799218 2.52042 -1.24452e-20)
(0.759303 2.52304 3.96149e-19)
(0.819439 2.53865 -2.68865e-19)
(0.719238 2.54616 -1.0927e-19)
(0.590986 2.71264 -4.23413e-21)
(0.472401 2.74673 -1.20543e-19)
(0.951443 2.31157 -1.94796e-19)
(0.982907 2.35672 0)
(0.861173 2.07443 -2.08746e-19)
(1.0284 2.6987 0)
(1.01211 2.67104 0)
(0.632805 2.28469 2.72912e-19)
(1.04259 3.18075 5.01829e-19)
(0.920773 3.04667 -4.55404e-19)
(0.29147 0.975706 0)
(0.346581 0.850698 -1.45841e-19)
(0.497008 0.778268 -5.46698e-20)
(0.429919 2.05472 0)
(0.47162 2.7882 -2.73936e-19)
(0.441987 2.55751 0)
(0.633739 0.687271 -2.90163e-19)
(0.709962 0.674263 3.78284e-19)
(0.735243 0.619365 -3.68753e-19)
(0.605876 0.644517 -4.42632e-20)
(0.669553 0.596432 -1.83738e-19)
(1.00922 2.7974 -3.81328e-19)
(1.02715 2.85568 3.31899e-19)
(0.673114 2.22516 -2.42923e-20)
(0.593964 1.73147 -1.59874e-20)
(0.710425 1.95486 1.91917e-19)
(0.985343 2.50088 -3.72039e-20)
(0.985925 2.5202 -2.21614e-19)
(0.693274 1.89982 -9.6013e-21)
(0.454868 1.35274 -1.2655e-19)
)
;

boundaryField
{
    wall-4
    {
        type            noSlip;
    }
    velocity-inlet-5
    {
        type            fixedValue;
        value           uniform (1 0 0);
    }
    velocity-inlet-6
    {
        type            fixedValue;
        value           uniform (0 3 0);
    }
    pressure-outlet-7
    {
        type            zeroGradient;
    }
    wall-8
    {
        type            noSlip;
    }
    frontAndBackPlanes
    {
        type            empty;
    }
}


// ************************************************************************* //
