/*--------------------------------*- C++ -*----------------------------------*\
  =========                 |
  \\      /  F ield         | OpenFOAM: The Open Source CFD Toolbox
   \\    /   O peration     | Website:  https://openfoam.org
    \\  /    A nd           | Version:  9
     \\/     M anipulation  |
\*---------------------------------------------------------------------------*/
FoamFile
{
    format      ascii;
    class       volScalarField;
    location    "24";
    object      p;
}
// * * * * * * * * * * * * * * * * * * * * * * * * * * * * * * * * * * * * * //

dimensions      [0 2 -2 0 0 0 0];

internalField   nonuniform List<scalar> 
918
(
0.230514
0.906956
0.0276137
0.229818
-0.00284355
0.874036
-0.83058
0.406239
0.210609
-0.417697
-0.374379
0.201886
0.734698
0.502682
-1.4575
-0.0827784
0.360634
-0.707926
0.209542
-0.01028
0.467647
0.21724
0.22028
0.210871
0.271753
0.487672
0.615659
0.0167691
0.00710987
0.00291582
-0.00586124
-0.0265667
-0.0312535
0.757654
0.808772
0.831449
0.17951
0.00389452
-0.683693
-0.757791
-0.746379
-0.877556
0.397726
0.402211
-0.490355
0.407149
0.420427
0.198019
0.209929
0.210847
0.212004
0.21091
0.212318
0.110724
-0.424832
-0.462864
-0.404518
-0.405639
-0.205226
-0.410222
-0.421071
-0.353913
-0.306859
0.133694
0.198943
0.195668
0.206298
0.215212
0.846507
0.818388
0.844532
0.758353
0.774788
0.712624
0.685166
0.521921
0.543464
0.489437
0.476694
-1.90152
-2.87575
-0.855268
-0.596963
-0.00184985
-0.108821
-0.127917
0.34971
0.353933
0.358956
0.373833
0.758704
-0.701382
-0.847358
0.209652
0.208465
0.216963
0.217658
0.213661
0.212769
-0.0199841
-0.0479123
-0.00602672
0.000733129
-0.00664381
0.451984
0.446077
0.211434
0.208482
0.222889
0.245282
0.234553
-0.0238584
0.280413
0.299968
0.300815
0.472079
0.469328
0.476806
0.589187
0.55318
0.65267
0.675846
0.00777528
0.00578522
-0.0721688
-0.0394495
-0.0508454
0.175827
0.16903
0.193549
0.182749
0.184987
-0.0805762
-0.216479
0.0887692
0.111816
-0.591908
-0.657872
-0.765674
-0.780457
-0.888198
0.241096
0.38839
0.391452
-0.506823
-0.42589
-0.568296
-0.351701
-0.418877
0.188433
0.19536
0.190417
0.205691
0.200238
0.202191
0.214218
0.21129
0.212848
0.168603
0.289224
0.0405338
0.016843
-0.5677
-0.474187
-0.556114
-0.396417
-0.400586
-0.204069
-0.183269
-0.223323
-0.248306
-0.414054
-0.428337
-0.418742
-0.263428
-0.203594
0.126513
0.117011
0.14474
0.151245
0.190692
0.191766
0.193749
0.192665
0.63579
0.658224
0.665792
0.639442
-3.88916
-6.71693
-0.263246
-0.121089
0.00161734
0.00332825
0.00267783
0.00566752
0.000419943
-0.00424836
-0.260698
-0.242078
-0.1659
-0.194422
0.335729
0.337474
0.673666
0.664945
0.659772
0.60949
0.197826
0.199979
0.205452
0.201301
-0.152124
-0.0788347
-0.110318
0.418392
0.435051
0.431777
-0.0591846
-0.144832
0.0222323
0.0494468
0.321753
0.304731
0.321452
0.364128
0.402398
0.683306
0.701673
0.699842
0.708306
0.752255
0.768591
0.734066
0.156418
0.166289
0.161229
0.196953
0.194451
0.195588
0.190632
0.192296
0.189806
-0.370275
-0.757688
0.170611
0.193602
0.156275
0.172146
0.318349
0.393378
0.370629
0.381853
0.383233
-0.285608
-0.348024
-0.0330158
-0.0676298
0.0745103
0.106333
0.0895309
0.607074
0.56734
0.617405
0.590682
0.5519
0.577864
-0.709374
-2.23928
-1.34115
0.241606
0.0485619
0.139406
-0.251086
-0.296245
-0.28838
0.649019
0.729078
0.347379
0.507178
0.521086
0.439282
0.469581
0.52732
0.453963
0.487995
0.521498
0.500128
0.201651
0.177028
0.171532
0.465973
0.520508
-0.172202
-0.224112
-0.274485
-0.165914
-0.134457
-0.142555
0.698341
0.581618
0.659032
0.208219
0.208898
0.00670603
0.00377338
0.212982
0.213059
-0.000128772
-0.0126838
0.120462
-1.16847
-0.183463
0.201323
0.191913
0.208536
-0.412311
0.070464
-0.427479
-0.306234
-0.299415
0.198867
0.143182
0.109146
0.007821
-0.0504135
-0.0407551
-0.517711
0.205866
0.2042
0.208038
0.209065
0.209714
0.0051012
0.00162259
0.0035127
-0.0228661
-0.00336088
-0.000764127
0.173914
0.190001
-0.478285
0.208204
0.210337
0.210165
0.203135
0.208981
0.207083
-0.0407313
-0.0244415
-0.0557863
-0.072899
0.043045
0.374128
0.476705
0.333616
0.104243
-0.139449
0.270612
0.338336
0.237456
0.401182
0.376982
0.395753
-0.123211
-0.270411
-0.114784
-0.168977
0.19936
0.198013
0.190106
0.18723
0.203456
0.201514
0.206122
0.202906
0.20596
0.207391
-0.355536
-0.393348
-0.397912
-0.463149
0.0304586
0.283395
-0.0336128
-0.00556429
-0.142767
-0.436428
-0.37252
-0.454451
-0.443828
-0.53666
-0.32006
-0.32564
-0.287839
-0.260272
-0.380262
-0.538366
-0.406441
-0.41605
0.193118
0.191988
0.198628
0.205466
0.15184
0.154815
0.125138
0.142572
0.128395
0.0749809
0.107956
0.0849247
0.00163535
0.0112109
0.00393548
-0.0590386
-0.130262
-0.0172367
0.00301126
0.0106963
-0.0102356
-0.0139954
-0.0608121
-0.0791576
-0.479243
-0.594972
0.654374
0.605736
-0.20629
0.195076
0.201506
0.198307
0.203055
0.20612
0.206936
0.204742
0.201367
0.190714
0.1926
0.188506
0.188971
-0.422127
-0.557157
-0.378747
-0.445468
-0.190303
0.311493
0.0556532
-0.00336387
-0.00799393
0.20545
0.607756
0.411705
0.426997
0.452228
-0.667221
-0.264769
-0.597529
0.0236729
-0.156597
0.37211
0.422834
0.445146
0.392235
0.34242
-0.443346
0.213319
-0.364459
-0.321272
-0.131876
-0.234986
0.414815
0.361094
0.369386
0.384274
0.404667
0.36623
0.344323
0.342115
0.378355
0.383344
0.17813
-0.0408556
-0.0861644
-0.122587
0.343049
0.218343
0.273563
0.190884
0.194177
0.19704
0.195589
0.178839
0.185812
0.181814
0.187016
0.189878
0.199291
0.19971
0.194976
0.197383
-0.384275
-0.379799
-0.335701
-0.441498
-0.434658
-0.482977
-0.37904
-0.230843
-0.257909
-0.0889848
0.0277189
-0.26393
-0.384294
-0.350961
-0.324285
-0.137748
-0.121131
-0.221996
-0.138908
-0.122409
-0.146114
-0.0409609
-0.0470746
-0.531898
-0.526159
-0.458275
-0.487132
-0.31932
-0.220856
-0.196442
-0.421341
-0.589633
-0.342564
-0.261614
-0.38657
-0.424647
-0.459902
-0.345711
-0.0457634
-0.0563604
-0.104537
-0.302445
-0.221296
-0.283331
0.188941
0.190254
0.190329
0.202078
0.213333
0.228492
0.194933
0.171723
0.163862
0.166868
0.142058
0.151278
0.146929
0.159567
0.179026
0.185284
0.185243
0.187183
0.172151
0.17294
0.161564
0.16485
0.142555
0.125717
0.114998
-0.0263696
-0.00998529
-0.0206705
-0.0437205
-0.000459568
-0.0139612
-0.23869
-0.119179
-0.166581
-0.14339
-0.256296
-0.00436937
-0.0206541
-0.392115
-0.316067
-0.506926
-0.534253
-0.605493
0.564366
0.673163
0.497903
0.282505
0.286384
0.510304
0.608565
0.246228
0.415155
0.44624
0.213844
0.488882
0.199993
0.199396
0.19695
0.196466
0.197993
-0.338368
-0.241096
-0.222831
-0.174195
-0.060095
0.0547128
-0.0395348
-0.162816
-0.0224796
-0.0117296
0.30644
0.322952
0.267177
0.292521
0.292164
0.118578
0.193735
0.248485
0.203831
0.247757
0.269771
0.230476
0.260402
0.208184
0.166453
0.165443
0.112701
0.132839
0.11081
0.0932969
0.190088
0.168867
0.17865
0.170773
0.190372
0.218047
0.213646
0.238502
0.250729
0.175704
0.138577
0.147352
0.174084
0.136862
0.14942
0.163624
-0.121129
-0.218278
-0.131806
-0.426549
-0.335873
-0.351558
-0.397417
-0.359369
-0.0722498
-0.77645
-0.743867
-1.38208
0.147855
0.63431
0.371921
0.345274
0.403038
0.379956
0.383782
0.412811
0.419327
0.334518
0.354285
0.356338
0.304836
0.331114
0.359249
0.35645
0.187323
0.069387
0.0603132
0.0225122
-0.0975673
-0.0671317
0.133244
0.0565864
-0.0141539
-0.00921807
0.153776
0.0460532
0.109801
0.147442
0.0818607
0.0395628
0.235115
0.303051
0.292835
0.268109
0.183057
0.194187
0.220818
0.257004
0.283067
0.318024
0.18676
0.192257
0.193522
0.191234
0.188713
0.191454
0.191375
0.193898
0.194849
0.197713
0.196613
-0.439628
-0.444425
-0.379697
-0.412058
-0.319239
-0.316429
-0.268029
-0.288128
-0.354465
-0.337779
-0.346956
-0.36846
-0.377088
-0.373492
-0.185332
-0.173721
-0.215458
-0.247745
-0.0625705
0.0617037
0.123713
0.0155706
-0.0955823
-0.0740771
-0.0394662
-0.367523
-0.373962
-0.441629
-0.326013
-0.290099
-0.471505
-0.403373
-0.407773
-0.562656
-0.505608
-0.301524
-0.119651
-0.148946
-0.2107
-0.200123
-0.144912
0.173866
0.168285
0.169112
0.163901
0.163098
0.175594
0.179692
0.181558
0.186204
0.187605
0.179661
0.18366
0.186975
-0.144509
-0.0367298
-0.0727162
-0.120848
-0.0674161
-0.034879
-0.0620761
-0.209538
-0.279554
-0.271576
-0.322046
-0.441029
-0.38655
0.135869
0.125055
0.142909
0.361728
0.216114
0.130562
0.217351
0.322335
-0.0648104
0.131314
-0.0373884
0.538546
0.426902
0.56676
0.203759
-0.103363
0.0458173
0.101057
-0.0982514
-0.0250976
-0.000388495
-0.110511
-0.0794547
-0.0514801
0.0496037
-0.0748206
-0.104572
-0.351225
-0.169582
-0.0354784
-0.0568178
0.0734063
0.137134
-0.091683
-0.167578
-0.206708
0.296597
0.317421
0.335585
0.305106
0.328327
0.252603
0.243498
0.26234
0.272685
0.266131
-1.11164
-0.821821
-1.76189
-1.06898
-0.624474
0.17996
0.133551
0.431146
0.317374
0.39737
0.378698
0.334646
0.297166
0.307328
0.344539
0.0464462
0.153738
0.12809
0.136553
0.0411614
-0.0262807
0.271218
0.264759
0.301641
0.326094
0.293286
0.327042
0.184923
0.184476
0.183563
0.180591
0.178767
0.180988
-0.24742
-0.300916
-0.237425
-0.2482
-0.269312
-0.300416
-0.238014
-0.23609
-0.172045
-0.163595
-0.149966
-0.214416
-0.183352
-0.237395
-0.30429
-0.276204
-0.334495
-0.397935
-0.420187
-0.319141
-0.233117
-0.238457
0.0675528
0.317057
0.145391
0.311784
0.149042
0.207964
0.144116
0.142243
0.178143
0.0397455
0.113625
-0.134436
-0.634349
-0.54163
0.441096
0.461305
0.245808
0.0512437
-0.173763
0.0245053
0.21685
0.155308
0.195555
0.263384
0.256367
-0.344326
-0.269142
-0.0355666
0.191901
-0.11271
-0.120574
-0.124862
0.0383739
-0.0311155
)
;

boundaryField
{
    wall-4
    {
        type            zeroGradient;
    }
    velocity-inlet-5
    {
        type            zeroGradient;
    }
    velocity-inlet-6
    {
        type            zeroGradient;
    }
    pressure-outlet-7
    {
        type            fixedValue;
        value           uniform 0;
    }
    wall-8
    {
        type            zeroGradient;
    }
    frontAndBackPlanes
    {
        type            empty;
    }
}


// ************************************************************************* //
