/*--------------------------------*- C++ -*----------------------------------*\
  =========                 |
  \\      /  F ield         | OpenFOAM: The Open Source CFD Toolbox
   \\    /   O peration     | Website:  https://openfoam.org
    \\  /    A nd           | Version:  9
     \\/     M anipulation  |
\*---------------------------------------------------------------------------*/
FoamFile
{
    format      ascii;
    class       volVectorField;
    location    "24";
    object      U;
}
// * * * * * * * * * * * * * * * * * * * * * * * * * * * * * * * * * * * * * //

dimensions      [0 1 -1 0 0 0 0];

internalField   nonuniform List<vector> 
918
(
(0.985161 -0.000514267 0)
(0.00500509 2.96625 0)
(-0.0145286 1.54113 0)
(0.979702 0.00215444 0)
(-0.00288321 1.52349 2.08672e-20)
(-0.00703427 2.94878 -1.85549e-18)
(0.849041 1.19051 7.31514e-19)
(0.389784 0.176471 -8.95317e-21)
(0.999907 -0.000291288 0)
(0.0524604 0.849663 0)
(-0.0463981 0.701554 0)
(0.739253 -0.0109198 0)
(0.0110987 2.93035 0)
(0.00200145 2.79451 0)
(-0.0175124 3.16554 1.08299e-18)
(0.0175835 1.37191 8.99187e-20)
(0.496881 0.0759346 5.59722e-19)
(0.192243 1.21586 6.35962e-19)
(0.96301 0.00504083 0)
(-0.00994631 1.18911 0)
(0.118416 0.227025 -4.64173e-19)
(1.00204 -0.00498555 0)
(1.00021 -0.00978975 0)
(0.975717 -0.00645485 0)
(0.645723 -0.040845 0)
(0.0167154 2.63459 0)
(-0.0150346 2.91012 6.39949e-19)
(-0.0263984 1.54745 0)
(-0.0380548 1.69621 0)
(-0.0230384 1.53906 0)
(-0.00930006 1.90613 0)
(0.0105601 1.55031 -1.64988e-20)
(0.00727047 1.39953 0)
(-0.0206261 2.98759 -6.48377e-23)
(-0.0167016 3.00531 1.44229e-18)
(0.0021061 3.00021 0)
(0.870098 -0.00956731 0)
(0.399109 0.9372 -3.38071e-20)
(0.824736 1.20998 -1.02364e-18)
(0.972623 1.04268 9.60451e-19)
(0.69327 1.30682 -1.69699e-19)
(0.691993 1.29701 9.49355e-19)
(0.429168 0.270261 8.73529e-21)
(0.422324 0.162094 0)
(1.15935 0.560116 0)
(0.391172 0.277232 4.06604e-20)
(0.342186 0.174756 -4.21981e-20)
(0.919574 -0.00745706 0)
(1.00028 0.000145473 0)
(0.999908 0.000345615 0)
(1.00362 -0.00779884 0)
(1.00096 -0.000984871 0)
(1.00017 1.36213e-05 0)
(0.085471 1.78133 -2.08476e-19)
(0.0236016 0.982472 0)
(0.104228 0.931383 0)
(0.0319096 0.920951 0)
(0.0313739 0.769744 0)
(-0.09925 1.79633 0)
(-0.0336254 0.778874 0)
(-0.00527201 0.626077 0)
(-0.0491125 0.860425 0)
(-0.0467314 0.817435 0)
(0.831042 -0.01071 0)
(0.853543 0.018966 0)
(0.765682 0.00196915 0)
(0.837609 0.0210976 0)
(0.724315 -0.0169784 0)
(0.0147018 3.00039 6.79011e-19)
(0.011528 3.00789 0)
(0.00613866 3.00284 0)
(0.0135415 2.99732 7.56702e-24)
(0.00799815 2.95847 -1.00918e-18)
(0.0144803 2.98208 0)
(0.0107775 2.90366 0)
(0.0251578 2.93045 1.34928e-24)
(0.00421119 2.82483 0)
(0.0312477 2.91564 0)
(-0.00641631 2.7446 0)
(0.311578 3.56616 0)
(-0.132321 3.64847 0)
(0.141406 3.25636 -1.00787e-18)
(-0.0112282 2.98855 0)
(-0.0598703 1.85622 0)
(0.0545068 1.54268 -8.8713e-20)
(0.0150888 1.3352 1.34073e-19)
(0.564078 0.157087 -1.92888e-19)
(0.500247 0.0454766 -1.87057e-19)
(0.545154 0.177701 -5.80923e-19)
(0.487598 0.0981769 -3.91749e-19)
(0.219364 0.90658 0)
(0.271752 1.36053 -6.63223e-19)
(0.392097 1.31452 1.08916e-18)
(0.987693 0.00860451 0)
(0.942153 0.00596044 0)
(1.0003 0.000580733 0)
(1.00286 0.00930507 0)
(1.003 0.00845252 -1.08381e-18)
(0.991929 0.00968635 8.18372e-19)
(-0.0332821 1.31925 0)
(-0.033761 1.12842 0)
(-0.041468 1.54726 0)
(-0.0298082 1.41017 0)
(-0.00657743 1.26344 0)
(0.174735 0.235997 1.4306e-19)
(0.222669 0.212452 0)
(0.993524 -0.00835061 0)
(0.954368 -0.00641524 0)
(0.804338 0.0274638 0)
(0.769636 0.0386216 0)
(0.699609 -0.0317466 0)
(0.975272 -0.00372493 0)
(0.708439 0.0554114 0)
(0.551375 -0.0197399 7.46055e-19)
(-0.0360267 2.86542 3.25426e-19)
(0.0431581 2.90831 0)
(0.0559655 2.88365 0)
(-0.00513685 2.69745 0)
(-0.0132301 2.98522 5.87489e-19)
(-0.0182128 2.8954 0)
(-0.0153743 2.98813 -1.86016e-18)
(-0.0134206 2.92522 6.42625e-19)
(-0.052723 1.77797 0)
(-0.050454 1.79594 0)
(0.0318105 1.54261 1.91488e-21)
(0.0194572 1.52806 0)
(0.00112703 1.3873 0)
(0.937219 -0.00707403 0)
(0.855571 -0.00918414 0)
(0.864848 0.00790846 0)
(0.948637 -0.00769495 0)
(0.883262 -0.00872883 0)
(0.512931 1.13248 3.13029e-20)
(0.564191 1.1864 0)
(0.359395 0.877124 4.08906e-21)
(0.302161 0.738519 0)
(0.932453 1.08097 -2.77832e-19)
(1.04581 0.879658 5.68887e-19)
(0.386203 1.40262 0)
(0.547034 1.37418 0)
(0.549043 1.33408 0)
(0.100196 0.16166 -1.29589e-19)
(0.472514 0.254947 0)
(0.456498 0.152139 1.12599e-19)
(1.01588 0.933875 0)
(1.08349 0.779042 0)
(1.10865 0.721497 -4.9886e-19)
(1.13951 0.619378 0)
(1.19067 0.403798 5.78065e-20)
(0.957287 -0.00872608 0)
(0.962181 -0.0101092 0)
(0.901175 -0.00809003 0)
(0.984159 -0.00914924 0)
(0.974526 -0.00944685 0)
(0.936961 -0.0062754 0)
(1.00018 0.00234459 0)
(1.00086 0.00138425 0)
(0.999918 0.000855955 0)
(0.0377794 2.02661 1.38106e-19)
(0.123296 1.70708 0)
(0.0169923 2.12665 1.0111e-19)
(0.044792 1.85938 -1.96996e-20)
(0.136429 1.20585 -5.26956e-19)
(0.0494804 1.06995 0)
(0.0968933 1.07194 0)
(-0.0021121 0.852947 0)
(-0.00621169 0.709278 0)
(-0.0689964 2.05652 3.28169e-21)
(-0.0374553 1.90155 0)
(-0.0863629 1.91963 2.05314e-19)
(-0.101358 1.62561 -4.21885e-19)
(0.0208374 0.807658 0)
(0.0110941 0.76849 0)
(0.000151024 0.649042 0)
(-0.0598566 0.968693 0)
(-0.0484954 0.915647 0)
(0.926308 0.0114315 0)
(0.844278 -0.00586114 0)
(0.917745 0.000693311 0)
(0.835078 -0.0118942 0)
(0.813422 0.00557874 0)
(0.903948 0.0166499 0)
(0.881647 0.0195977 0)
(0.788506 0.00378244 0)
(0.00591448 3.06493 -5.95635e-21)
(0.0164661 3.0579 0)
(0.0147022 2.96914 0)
(0.00859747 2.87636 0)
(0.930184 3.98662 0)
(1.24621 3.31715 1.01573e-18)
(0.0714475 3.08056 0)
(-0.0267218 2.90936 0)
(-0.0748357 1.78427 0)
(-0.0814449 1.83916 0)
(-0.0633101 1.81143 0)
(-0.0317502 1.90156 2.00518e-21)
(-0.0717629 1.87681 0)
(-0.0449467 1.86818 0)
(-0.0092316 1.37484 -2.38167e-20)
(0.0487509 1.56964 -2.1947e-19)
(0.0633374 1.54272 -1.36887e-19)
(0.00254958 1.31904 0)
(0.59488 0.124491 2.8351e-19)
(0.51593 0.0173497 -2.76722e-19)
(0.259951 1.535 0)
(0.260053 0.676161 -2.08085e-19)
(0.171956 1.6241 -6.9732e-19)
(0.230629 1.15646 6.99189e-19)
(0.902936 0.00663057 0)
(0.967683 0.0108436 0)
(0.974779 0.0108097 0)
(0.923824 0.00668197 0)
(-0.0640769 1.0935 0)
(-0.0472618 1.2179 0)
(-0.0517711 1.03283 0)
(0.340283 0.271077 3.72382e-19)
(0.284183 0.250466 -4.52802e-19)
(0.29208 0.192672 0)
(1.10156 0.086358 -3.90425e-21)
(1.08604 0.0402399 0)
(1.01373 0.0402138 0)
(0.912417 0.00378827 0)
(0.617536 0.0953054 0)
(0.648871 0.0689592 -1.2011e-18)
(0.531679 0.0026239 4.58941e-19)
(0.00963815 2.9822 4.15331e-19)
(-0.0319735 2.86756 4.90106e-20)
(0.00372241 3.05022 -1.2879e-20)
(0.0200241 3.04346 4.62986e-19)
(-0.0150102 2.99655 2.13767e-20)
(-0.0129651 2.94942 -8.65612e-23)
(-0.017278 3.01201 -4.05704e-19)
(0.0147919 3.02406 2.93495e-19)
(0.00730524 3.03677 -4.58109e-19)
(0.928769 -0.00149285 0)
(0.936792 -0.00325545 0)
(0.843097 -0.00740673 0)
(0.957072 0.0113557 0)
(0.943774 0.0126645 0)
(0.883007 0.00644789 0)
(0.919715 0.0153431 0)
(0.927851 0.0144825 0)
(0.840364 0.00681948 0)
(0.720155 1.41578 3.3113e-19)
(0.755075 1.52641 0)
(0.218626 0.353578 2.46868e-20)
(0.178451 0.609781 2.12962e-19)
(0.265278 0.69873 -1.18798e-19)
(0.246411 0.574291 2.20573e-19)
(0.302819 0.717584 7.41328e-19)
(0.111025 0.192355 2.14794e-19)
(0.528393 0.205119 4.19998e-19)
(0.505423 0.235341 1.06079e-19)
(0.480779 0.130609 2.12216e-19)
(1.17961 0.460719 2.98817e-19)
(1.19554 0.256194 3.11159e-19)
(0.0151265 2.14288 -7.34343e-21)
(0.027089 1.93588 0)
(0.965071 0.0312699 0)
(0.932983 0.0187645 0)
(0.868598 -0.0049814 0)
(0.0111019 3.07451 0)
(0.0199646 2.94423 7.93081e-19)
(0.0165006 2.95643 0)
(0.00617648 2.85065 -7.86573e-19)
(0.00624059 3.09205 1.87783e-19)
(0.00718033 3.08236 0)
(0.788879 1.83115 -2.40443e-19)
(1.25362 2.51366 6.62628e-19)
(0.771495 1.97204 -1.4972e-18)
(0.0207574 2.98345 -3.0219e-19)
(0.0368632 3.00541 0)
(-0.032873 2.88087 0)
(-0.0582752 1.75338 -1.83414e-20)
(0.0137636 1.65552 5.02047e-19)
(-0.01796 1.4878 -1.96735e-20)
(0.276115 1.34412 6.77145e-19)
(0.210797 0.452341 -4.66873e-19)
(0.0621249 1.95371 4.51561e-19)
(0.135747 1.84586 -5.69383e-19)
(0.180223 1.44645 8.56566e-20)
(0.00585941 3.11797 -9.86549e-19)
(0.013995 3.11851 1.06825e-18)
(-0.00892882 2.98065 5.10774e-19)
(-0.00329836 2.97752 -4.52077e-19)
(-0.0216652 2.88174 -5.20212e-19)
(0.00860569 3.09871 -1.3727e-18)
(0.00187961 3.10638 1.3634e-18)
(0.242018 0.632728 0)
(0.197245 0.622957 -3.95e-19)
(0.109 0.208742 1.7929e-19)
(0.325804 0.838615 6.43338e-19)
(0.172436 0.231996 -9.84213e-19)
(1.18778 0.172943 -5.82349e-20)
(1.19481 0.309117 0)
(1.17656 0.120796 1.2178e-19)
(-0.0664876 2.12377 2.49778e-21)
(-0.0265975 2.16654 0)
(-0.0188013 1.9576 0)
(0.335795 1.23677 -2.46011e-19)
(0.351898 1.05188 -5.21619e-19)
(0.186194 0.325905 8.96102e-19)
(1.00583 -0.0109544 0)
(1.00762 -0.00764861 1.97603e-19)
(-0.0647291 1.73952 0)
(-0.0716357 1.73869 0)
(1.00224 0.00352126 1.82871e-21)
(1.00357 0.00930285 4.06866e-19)
(-0.0301922 1.9221 -2.57839e-21)
(-0.0183267 1.93747 0)
(0.0385683 3.18218 1.12685e-19)
(0.400252 3.50081 0)
(1.12246 0.643368 6.63923e-20)
(1.01308 0.0129887 -2.01495e-21)
(1.02098 -0.0106806 0)
(1.00174 6.17548e-05 8.88076e-23)
(0.117302 1.35723 0)
(0.136161 2.57176 0)
(-0.09348 1.02958 0)
(-0.0923141 2.68396 -2.78629e-19)
(-0.235307 2.57381 -1.99081e-19)
(1.00793 0.0238604 2.87857e-21)
(1.05411 -0.00316345 0)
(1.07821 0.0269894 0)
(-0.0949473 1.83579 0)
(-0.0390041 2.07656 0)
(-0.161507 1.5685 0)
(0.284946 1.46622 -4.37587e-19)
(1.01123 -0.00965155 0)
(1.00942 -0.0150926 0)
(1.00252 0.000583757 2.52309e-19)
(1.00547 -0.0049586 -2.96938e-19)
(1.00122 -0.00103965 0)
(-0.124188 1.79787 0)
(-0.091281 1.73909 0)
(-0.09509 1.77915 0)
(-0.140409 1.58146 0)
(-0.0918504 1.66426 0)
(-0.101414 1.64298 0)
(1.03449 -0.00757211 0)
(1.02063 0.0149945 -1.14102e-21)
(0.780424 1.25868 5.20171e-19)
(1.00218 0.000339926 -2.5007e-19)
(1.00408 0.00525621 2.96621e-19)
(1.00119 0.00207365 0)
(1.01293 0.0102572 2.45215e-19)
(1.00801 0.00815755 -3.04458e-19)
(1.00876 0.0145563 0)
(-0.032679 2.06521 0)
(-0.0295325 1.99107 -4.02917e-20)
(-0.0187126 2.00503 3.4161e-20)
(1.19471 0.259505 -7.50621e-20)
(1.13271 0.0884822 0)
(0.0498503 3.07764 -5.11526e-19)
(0.0676148 2.85181 -4.08565e-20)
(0.146787 3.19595 8.17365e-19)
(0.14128 3.22513 -6.8893e-22)
(0.139322 3.24034 0)
(0.0206133 3.13813 1.11048e-19)
(0.0794746 3.16171 4.9834e-19)
(0.0722059 3.18858 -2.14618e-19)
(0.0240733 3.12904 0)
(0.659696 0.324219 0)
(0.581663 0.372706 0)
(1.09458 0.673186 -2.54145e-19)
(1.09314 0.809034 3.92737e-19)
(1.15227 0.561771 0)
(1.18384 0.506933 0)
(1.01616 0.0131068 -4.53608e-19)
(1.01499 0.0140228 5.66383e-19)
(1.02505 -0.0105573 0)
(1.02317 -0.0122212 0)
(1.0068 0.00244653 0)
(1.01057 0.00355541 0)
(1.00449 0.00166226 0)
(1.00992 0.00625809 0)
(1.0079 0.00603569 0)
(1.00436 0.00435894 0)
(0.109637 1.35271 0)
(0.10531 1.29171 0)
(0.119586 1.38898 0)
(0.141803 1.39963 0)
(0.140656 2.59386 0)
(0.184767 2.65191 -2.00344e-19)
(0.106004 2.64693 0)
(0.0801619 2.65285 -1.94263e-20)
(0.034308 2.66545 2.18028e-19)
(-0.102155 1.02831 0)
(-0.138009 1.00941 0)
(0.0142358 1.04104 0)
(0.0318698 0.956216 0)
(-0.00815538 2.26874 4.53412e-19)
(-0.228262 2.63144 -3.36737e-19)
(-0.158073 2.7118 -3.9997e-19)
(-0.190301 2.67692 0)
(-0.225472 2.57111 4.83843e-19)
(-0.204818 2.50005 3.59377e-19)
(-0.0267482 2.30467 -3.32747e-19)
(-0.229977 2.59104 4.74114e-19)
(-0.188922 2.58286 5.0887e-19)
(1.01642 0.0328694 4.48125e-19)
(1.00907 0.020676 -5.53545e-19)
(1.00849 0.032851 -4.61782e-19)
(0.990617 0.0137681 5.96772e-19)
(1.05472 0.000694709 0)
(1.04221 -0.0149278 0)
(1.07598 0.0327943 0)
(1.05988 0.00825544 0)
(1.05681 0.00146631 0)
(1.1168 0.0793281 0)
(1.089 0.047737 0)
(1.09078 0.0404091 0)
(-0.0782021 1.91679 -1.05503e-22)
(-0.117873 1.882 0)
(-0.0870134 1.88592 0)
(-0.0703743 2.15931 -3.67299e-20)
(-0.0565103 2.18309 3.59099e-21)
(-0.218627 1.83979 -8.35996e-21)
(-0.15159 1.79605 8.47105e-21)
(-0.197145 1.66621 0)
(-0.153895 1.71474 0)
(-0.13199 1.72713 0)
(-0.202588 1.49995 0)
(-0.132376 1.39476 0)
(0.375595 1.4793 8.3028e-19)
(0.404177 1.49314 3.27736e-19)
(0.591954 2.43506 -1.5387e-19)
(0.409754 2.52886 4.2199e-19)
(0.357107 2.08723 -4.99329e-20)
(1.02097 -0.00866849 0)
(1.01543 -0.0100744 0)
(1.01476 -0.0155976 0)
(1.00784 -0.00138309 0)
(1.00482 -0.00128044 0)
(1.00767 -0.00479431 0)
(1.00916 -0.00368735 0)
(1.0141 -0.00461043 0)
(1.02158 0.0155889 4.31283e-19)
(1.01764 0.0156156 -5.55267e-19)
(1.02251 0.0179584 -4.31283e-19)
(1.01921 0.0171393 5.40034e-19)
(0.752428 1.30917 0)
(0.686866 1.36444 6.13267e-19)
(0.858023 1.20054 3.58115e-19)
(0.903568 1.15712 -4.76665e-19)
(1.15445 2.61802 -5.52521e-19)
(0.834584 0.102329 2.91742e-19)
(1.13337 0.102384 0)
(1.17672 0.183069 6.475e-20)
(1.16206 0.157853 2.87018e-21)
(0.989653 0.124557 0)
(0.144388 2.96469 1.39143e-19)
(0.12229 2.8705 -6.66422e-19)
(0.0332559 2.36156 4.77286e-19)
(0.0988404 0.066367 -2.00829e-19)
(0.345017 3.42913 -4.40101e-19)
(0.199124 3.31975 0)
(0.240677 3.36385 5.73151e-19)
(0.253156 3.03842 -7.70528e-19)
(0.347645 3.19821 0)
(0.00665441 3.12071 2.61663e-20)
(0.017973 3.12943 -3.31923e-19)
(0.0155418 3.12542 4.88542e-19)
(0.0369004 3.1399 0)
(0.0353223 3.15137 0)
(1.2188 2.6192 0)
(0.535793 0.847513 -2.39831e-19)
(1.02394 0.983816 -2.03989e-19)
(0.961958 1.05032 0)
(0.804507 0.948833 5.44227e-20)
(1.0463 0.864785 2.98777e-20)
(0.396153 0.432437 -5.34059e-19)
(0.699242 0.340903 -2.42752e-20)
(0.684516 0.27095 2.27625e-19)
(0.595385 0.403379 1.76885e-20)
(0.528723 0.378985 -7.24371e-19)
(0.669638 0.357722 0)
(0.693416 0.430163 3.72852e-19)
(0.695235 0.428599 0)
(0.628277 0.392246 0)
(0.616304 0.325997 0)
(0.776 0.598694 1.31065e-19)
(1.19273 0.277006 4.75505e-20)
(1.18937 0.411237 0)
(1.20105 0.36131 0)
(0.770419 0.200787 3.34436e-19)
(0.823804 0.53903 -1.8529e-19)
(0.733522 0.507703 3.02135e-19)
(0.916117 0.419079 -2.82458e-19)
(1.01964 0.0144753 2.98793e-19)
(1.0179 0.0140259 -3.05496e-19)
(1.01585 0.0153858 0)
(1.0352 -0.00644634 0)
(1.02934 -0.00918552 -2.74641e-19)
(1.02709 -0.0131155 2.71816e-19)
(1.02522 0.00911443 0)
(1.02412 0.0127009 0)
(1.01137 0.00378378 0)
(1.01429 0.00860459 0)
(1.01514 0.00325995 0)
(1.01421 0.00238633 0)
(0.105041 1.30384 0)
(0.102331 1.15758 0)
(0.133626 1.36764 3.36688e-19)
(0.266897 1.46129 2.5044e-19)
(0.171209 1.43455 5.34538e-19)
(0.195935 1.43937 -8.69847e-19)
(0.168606 1.38006 0)
(0.115723 1.5945 2.71601e-19)
(0.0728815 1.56208 0)
(0.353343 2.04241 7.25752e-20)
(0.352048 2.36548 2.31369e-19)
(0.159519 1.45657 -2.37298e-19)
(0.267928 1.36015 1.90418e-19)
(0.189679 1.36299 -1.52812e-19)
(0.280616 1.30461 3.18362e-19)
(0.254344 1.58166 0)
(0.253941 1.62732 -2.11049e-19)
(0.053907 2.29841 1.07465e-19)
(0.0391979 2.66866 0)
(0.0604826 2.39517 -1.65157e-19)
(0.0440255 2.41926 0)
(0.0794625 2.65374 2.0223e-20)
(0.0551765 2.68989 0)
(-0.013086 1.46034 5.33271e-19)
(0.141294 1.63261 0)
(0.142004 1.33939 0)
(0.0185027 1.27096 -6.01092e-19)
(-0.0822685 2.702 -3.88378e-20)
(0.0225609 2.70345 -3.16943e-19)
(-0.0527706 2.73066 -1.98875e-21)
(-0.378661 2.2059 -2.64343e-19)
(-0.196339 2.09971 -2.07493e-19)
(-0.147702 1.08918 0)
(-0.113305 1.08777 0)
(0.167771 1.74282 -5.80126e-19)
(0.188254 1.4964 -5.97875e-19)
(0.156009 1.68037 7.52217e-19)
(0.151516 1.73855 0)
(-0.205099 2.04149 1.34372e-19)
(-0.166186 2.16468 -6.01485e-20)
(-0.204212 2.22667 2.37481e-20)
(-0.383496 2.10252 3.19861e-19)
(-0.258554 2.3936 7.33478e-20)
(-0.26774 2.45424 -3.7939e-19)
(1.02131 0.0219755 -2.93786e-19)
(1.01793 0.0274248 2.95521e-19)
(1.01408 0.020122 0)
(1.01252 0.0503774 4.25572e-19)
(0.995635 0.0391351 -5.00084e-19)
(0.963341 0.0228673 5.79751e-19)
(1.01218 0.0858303 -5.50381e-20)
(1.04096 -0.00706426 0)
(1.04563 -0.00690065 2.45415e-19)
(1.03624 -0.0132366 -2.45429e-19)
(1.06337 0.03879 -1.34552e-20)
(1.05663 0.0178783 1.20017e-19)
(1.06075 0.0495729 0)
(1.05604 0.0409217 -4.49412e-20)
(1.03966 0.0320712 0)
(1.03485 0.0288867 0)
(1.02714 0.0123255 0)
(1.02507 0.0150661 0)
(1.04695 0.0262993 9.36253e-20)
(1.0433 0.0178298 -2.12938e-19)
(1.05339 0.0224546 -9.39654e-20)
(1.05207 0.0244481 -1.0969e-19)
(1.06539 0.0581986 1.95028e-19)
(1.08032 0.0517793 0)
(1.08698 0.0948762 0)
(-0.196313 2.02078 4.70541e-20)
(-0.144368 1.89893 8.60351e-22)
(-0.159028 1.92919 0)
(-0.110064 2.02206 -4.70879e-20)
(-0.0773942 1.94289 -7.48587e-22)
(-0.0940808 1.97766 6.19351e-21)
(-0.178375 2.46899 -3.51508e-19)
(-0.195497 2.30475 1.16773e-20)
(-0.249427 2.37223 -7.03461e-20)
(-0.113786 2.31905 1.42705e-19)
(-0.125962 2.33804 -1.62458e-19)
(-0.288237 1.75377 -3.05645e-21)
(-0.257295 1.85624 -2.86607e-20)
(0.370343 1.40274 -4.11203e-19)
(0.368537 1.35278 -3.92627e-19)
(0.637608 1.41293 -5.9226e-19)
(0.508157 1.47735 -3.17585e-19)
(0.555848 1.4514 0)
(0.589526 2.40778 1.2288e-19)
(0.656268 2.39485 2.22511e-19)
(0.414004 2.50502 7.98002e-20)
(0.408548 2.55068 -1.65729e-19)
(0.517235 2.50728 2.68991e-19)
(0.54665 2.44786 0)
(0.490557 2.49509 -3.53229e-19)
(0.246211 2.58133 5.81377e-19)
(0.354545 2.55588 -8.14485e-20)
(0.284508 2.6386 -8.86548e-19)
(0.925504 2.37943 2.24632e-19)
(0.824809 2.37344 0)
(1.01038 0.000156497 9.94193e-21)
(1.01479 -0.00568743 -8.10688e-21)
(1.01787 -0.00386255 -1.46715e-19)
(1.01487 -0.000693105 1.46933e-19)
(1.01214 0.00100019 0)
(0.622237 1.2763 0)
(0.633065 1.16157 0)
(0.732912 1.07328 0)
(0.627467 1.12261 0)
(1.18401 2.63425 5.72136e-20)
(1.0703 2.37119 0)
(0.844287 2.23046 -1.80408e-21)
(0.823756 2.48017 0)
(0.918865 2.56664 2.36269e-20)
(0.955316 2.52041 -1.57707e-20)
(0.842823 0.146618 0)
(0.812841 0.140215 8.41413e-20)
(0.927519 0.124542 4.30848e-19)
(0.863916 0.116427 -1.7215e-19)
(0.846796 0.0649998 -5.18816e-19)
(1.04329 0.21735 -2.45198e-19)
(0.959639 0.272704 -1.57121e-20)
(0.904564 0.272851 3.9258e-19)
(0.976191 0.199425 2.9002e-19)
(0.938485 0.159606 -5.42603e-19)
(0.911878 0.169142 7.03374e-20)
(0.939549 0.23301 -1.36439e-19)
(0.915943 0.1927 0)
(0.974745 0.157297 2.59929e-19)
(1.02013 0.165189 0)
(1.01314 0.191466 0)
(1.07976 0.110309 8.24915e-20)
(1.04433 0.158116 -1.3068e-20)
(1.03757 0.220121 -4.62973e-20)
(1.07331 0.192385 0)
(1.02756 0.0326383 2.22424e-19)
(1.04643 0.0477081 2.63924e-19)
(1.0418 0.0328526 -2.1971e-19)
(1.04521 0.0535095 -1.77966e-19)
(1.02369 0.0561553 -2.99294e-19)
(0.976027 0.126716 0)
(0.992724 0.0794839 0)
(0.969167 0.0426703 -2.09664e-19)
(0.931725 0.0588496 8.71976e-20)
(1.03244 0.0861021 2.50114e-19)
(1.04939 0.111204 -2.53139e-19)
(1.05462 0.138385 2.31701e-19)
(1.02043 0.125606 0)
(1.05899 0.0989959 0)
(1.04705 0.0809473 -1.05277e-19)
(1.04237 0.0826321 -2.00485e-19)
(0.579267 1.08457 -9.53047e-20)
(0.618426 1.4373 1.96752e-19)
(1.15782 2.75754 1.02576e-19)
(1.2253 3.09553 -7.10621e-20)
(1.24864 2.73472 5.64132e-19)
(1.28119 2.71867 -3.40889e-19)
(1.2083 2.35551 -8.57088e-21)
(1.21145 2.99936 1.95495e-19)
(1.2295 2.96438 -2.16607e-19)
(1.21762 3.24924 -2.69027e-19)
(1.38 2.98112 3.72493e-19)
(1.37285 2.89853 0)
(0.53079 0.857394 -1.31814e-20)
(0.157596 1.27847 3.76502e-19)
(0.52671 0.502345 3.50735e-19)
(0.365392 0.270548 3.83784e-19)
(0.545226 0.404326 4.06871e-19)
(0.553671 0.486857 -6.31104e-19)
(0.555438 0.489185 5.18186e-19)
(0.512238 0.435808 -2.10852e-19)
(0.452354 0.371926 4.83991e-19)
(0.776229 0.251226 -1.87143e-19)
(0.733515 0.291944 0)
(0.728126 0.227435 1.07077e-20)
(0.720688 0.516663 1.90908e-19)
(0.687385 0.486541 -7.05505e-19)
(0.6148 0.478303 1.7996e-20)
(0.62493 0.46638 0)
(0.666075 0.72067 1.51496e-19)
(0.801927 0.752364 6.00618e-20)
(0.725045 0.831115 -7.79718e-20)
(0.843814 0.788942 -1.74285e-20)
(0.875307 0.83252 1.38925e-20)
(0.884074 0.83273 -1.42282e-20)
(0.817336 0.634548 -2.24571e-19)
(0.893059 0.688652 1.62083e-20)
(0.946823 0.700901 0)
(0.936876 0.678182 -1.51643e-20)
(0.986022 0.312342 6.22838e-20)
(1.10355 0.285821 3.72948e-21)
(1.02738 0.252038 1.00105e-19)
(0.968237 0.344514 -1.43462e-19)
(1.01543 0.406095 0)
(1.06585 0.395618 0)
(0.890707 0.35287 4.93027e-21)
(0.834448 0.283083 0)
(0.85272 0.27619 2.01944e-19)
(0.886774 0.279327 -5.8617e-21)
(0.907655 0.42283 7.73188e-19)
(0.869041 0.485479 1.95526e-19)
(0.870392 0.450767 -2.52235e-19)
(0.800424 0.438281 2.70643e-19)
(0.785417 0.438838 1.84419e-19)
(0.752415 0.421831 -1.8097e-19)
(1.02678 -0.000736089 2.35204e-19)
(1.01992 -0.00013474 0)
(1.01839 0.000898833 1.56864e-19)
(1.02215 -0.00156004 -3.53055e-19)
(1.02211 0.0040737 1.71254e-19)
(1.02047 0.0107089 -3.59531e-19)
(1.02138 0.0102557 0)
(1.02087 0.010729 -7.59723e-20)
(1.01584 0.00752009 1.90325e-19)
(1.01669 0.0101751 -9.57864e-20)
(1.01772 0.00933377 7.07778e-20)
(0.0735819 1.0821 0)
(0.179225 1.23815 0)
(0.0971692 1.16095 0)
(0.079257 1.0246 0)
(0.130024 1.37835 -6.95534e-19)
(0.120971 1.35179 2.15296e-19)
(0.123932 1.48117 1.56486e-19)
(0.0970146 1.38676 -1.84671e-19)
(0.184722 1.51444 5.04228e-19)
(0.187176 1.48624 -3.87935e-19)
(0.170143 1.36307 -3.00557e-20)
(0.207804 1.35279 4.85901e-19)
(0.195822 1.27696 7.27795e-20)
(0.208184 1.27742 6.80856e-20)
(0.0916941 2.36588 1.88149e-19)
(0.0891358 2.42335 0)
(0.151309 2.06806 -4.90377e-20)
(0.0745462 1.71857 -1.1736e-19)
(0.232566 2.05499 2.96058e-20)
(0.213332 2.45637 0)
(0.268693 2.40813 -1.14996e-19)
(0.30371 2.40778 8.19393e-20)
(0.241911 2.01102 9.52652e-20)
(0.147504 2.1896 -3.62428e-21)
(0.138156 2.31626 0)
(0.12285 2.01123 5.49588e-19)
(-0.0318077 2.53764 6.32082e-19)
(0.031776 2.36019 0)
(0.0293646 2.51439 -2.68182e-20)
(0.0202742 2.35554 -2.50865e-19)
(-0.16971 1.28149 -8.07412e-20)
(-0.214106 1.27903 1.23027e-18)
(-0.254476 1.34966 -2.78809e-19)
(-0.234456 1.43623 -4.9423e-19)
(-0.058581 1.43952 0)
(-0.28422 1.29831 0)
(-0.216011 1.34013 -1.51016e-19)
(-0.307019 1.37039 4.7797e-20)
(-0.284759 1.30648 0)
(-0.19849 1.19084 -1.41298e-19)
(-0.146559 1.23643 2.5124e-19)
(1.04121 0.00478797 0)
(1.04305 0.00185171 -2.28966e-20)
(1.04335 0.0143197 -1.69311e-19)
(1.05049 0.010479 0)
(1.04984 0.00842686 0)
(1.03669 0.00604843 -6.44393e-21)
(1.0323 0.00793154 2.78858e-19)
(1.03262 0.0121606 3.36836e-19)
(1.02691 0.0186907 0)
(1.02526 0.0198735 0)
(1.0383 0.020206 1.70325e-19)
(1.03061 0.024509 0)
(1.02803 0.0233494 0)
(-0.373569 2.07196 0)
(-0.308128 1.87929 -1.66276e-20)
(-0.325478 2.01483 -3.55689e-20)
(-0.310029 1.48902 0)
(-0.381621 1.81837 -7.49599e-20)
(-0.31927 1.70937 8.63611e-21)
(-0.306991 1.5682 0)
(0.387313 1.68748 0)
(0.367771 1.28293 6.45802e-19)
(0.30357 1.33722 0)
(0.415591 1.27609 -8.40886e-19)
(0.459698 1.44264 0)
(0.438741 1.39129 3.94897e-19)
(1.02767 2.70526 -4.13144e-21)
(0.950155 2.41464 -2.83745e-19)
(0.88893 2.1705 3.21407e-19)
(0.838265 2.36708 1.18336e-19)
(0.843101 2.51975 0)
(0.908669 2.51474 0)
(0.904089 2.37323 0)
(0.894523 2.34741 -4.45685e-19)
(0.689476 2.49482 -1.69062e-20)
(0.79958 2.48753 -1.35235e-20)
(0.808478 2.45985 1.03609e-20)
(0.68779 2.3748 0)
(0.789317 2.37448 0)
(0.751379 2.38316 -2.26985e-19)
(0.766539 2.50535 0)
(0.586892 1.09003 0)
(0.483519 0.942341 -5.61133e-22)
(0.535082 0.971396 -1.3438e-21)
(0.514142 1.06379 0)
(0.51497 1.02048 3.48877e-21)
(0.747158 0.854538 1.31108e-20)
(0.760363 0.99802 0)
(0.733945 0.95388 -6.22342e-20)
(0.610485 1.02121 0)
(0.619449 0.936753 0)
(1.16248 2.77737 5.66717e-20)
(1.14053 2.84175 1.24172e-19)
(0.934847 2.36926 -2.83834e-19)
(0.901894 2.34366 3.57886e-20)
(1.12589 2.74855 0)
(1.077 2.71912 -4.2809e-20)
(1.0828 2.49514 -7.55937e-20)
(0.978669 2.23211 -2.97633e-20)
(0.49256 1.37066 0)
(0.50221 1.07288 8.40041e-20)
(0.54141 1.14999 0)
(0.857783 0.218853 0)
(0.819916 0.17383 0)
(0.777832 0.163105 0)
(0.849752 0.2243 -3.17604e-19)
(0.796189 0.222928 1.95724e-19)
(0.93968 0.0505646 -1.79093e-19)
(0.952987 0.0994074 0)
(0.925454 0.10468 8.04643e-20)
(0.887577 0.0810773 3.29743e-19)
(0.875618 0.0463318 -2.02376e-19)
(1.16768 3.37462 -9.82965e-19)
(1.21375 3.29404 0)
(1.16733 3.40118 -1.93288e-18)
(0.653881 3.56126 1.65989e-18)
(0.881758 3.12636 3.76796e-19)
(0.510687 0.885069 2.31654e-19)
(0.435931 0.876358 0)
(0.360336 0.535604 -8.52288e-20)
(0.457991 0.691474 3.88973e-19)
(0.534183 0.501587 -1.12572e-19)
(0.516319 0.530966 1.31752e-19)
(0.659491 0.530622 2.68901e-19)
(0.686814 0.549634 0)
(0.646361 0.615834 0)
(0.597069 0.551166 0)
(0.94504 0.585127 -5.24458e-20)
(0.873092 0.5306 -1.89003e-19)
(0.898247 0.563901 8.84883e-20)
(0.925818 0.501789 -1.39059e-19)
(1.03003 0.463085 0)
(1.04102 0.55455 -5.66617e-21)
(0.824679 0.39063 -4.07817e-19)
(0.829274 0.373646 -4.70855e-19)
(0.780688 0.390162 3.19894e-19)
(0.774072 0.35628 -3.61763e-19)
(0.828818 0.306158 -2.67797e-19)
(0.782374 0.310051 3.29401e-19)
(1.02595 0.00555437 -1.81703e-19)
(1.0258 0.00564422 3.72583e-19)
(1.03058 -0.000806307 2.22755e-19)
(1.03272 0.000701505 -2.70895e-19)
(1.03373 0.00458817 0)
(1.03031 0.00552512 -4.35811e-19)
(0.109709 1.70221 -6.61101e-20)
(0.120984 1.63851 0)
(0.0979589 1.72078 -5.1478e-19)
(0.0906352 1.69587 4.71923e-19)
(0.117191 1.52802 -2.87179e-19)
(0.176304 1.54314 0)
(-0.465554 2.07437 0)
(-0.427775 1.71439 6.7847e-20)
(-0.450307 1.6752 -6.14224e-20)
(-0.385399 1.83934 -2.60535e-20)
(-0.378906 2.09735 8.75137e-20)
(-0.41522 2.11996 -6.32402e-20)
(0.486565 1.38243 4.20231e-19)
(0.47735 1.38707 -4.51408e-19)
(0.431362 1.27494 4.1889e-19)
(0.421185 1.29661 -2.56807e-20)
(0.612053 1.27632 0)
(0.532344 1.37336 5.37357e-19)
(0.552851 1.3935 -5.2254e-19)
(0.440683 1.25949 -4.04903e-19)
(0.489032 1.21538 0)
(0.544826 1.17814 0)
(0.656869 2.45347 2.48219e-20)
(0.668877 2.47476 5.35739e-19)
(0.716026 2.49132 -3.68604e-19)
(0.626434 2.47393 -1.19633e-19)
(0.562891 2.57024 9.96824e-20)
(0.514637 2.54097 -3.01681e-19)
(0.962705 2.37577 -1.73286e-19)
(1.00698 2.39729 0)
(0.903485 2.14716 -2.46317e-19)
(1.04555 2.69967 0)
(1.04745 2.68691 0)
(0.626642 2.29265 2.39998e-19)
(1.04744 3.17536 4.82576e-19)
(0.918454 3.04433 -4.28232e-19)
(0.294196 0.960907 0)
(0.348497 0.83337 -1.57049e-19)
(0.498962 0.787012 -7.26771e-20)
(0.407227 2.04048 0)
(0.47334 2.79158 -2.62283e-19)
(0.434078 2.55632 0)
(0.679545 0.663112 -3.14265e-19)
(0.749287 0.658615 3.98966e-19)
(0.773929 0.610949 -3.89676e-19)
(0.672045 0.636217 -4.66231e-20)
(0.719834 0.590055 -1.89895e-19)
(1.00757 2.78232 -3.66865e-19)
(1.0406 2.8375 2.87614e-19)
(0.652058 2.18873 5.41905e-20)
(0.60863 1.73914 -6.93991e-20)
(0.703758 1.92746 1.10404e-19)
(0.991787 2.46528 -6.85144e-20)
(0.994445 2.46338 -1.6304e-19)
(0.673911 1.87583 -5.16656e-21)
(0.458858 1.35338 -7.85982e-20)
)
;

boundaryField
{
    wall-4
    {
        type            noSlip;
    }
    velocity-inlet-5
    {
        type            fixedValue;
        value           uniform (1 0 0);
    }
    velocity-inlet-6
    {
        type            fixedValue;
        value           uniform (0 3 0);
    }
    pressure-outlet-7
    {
        type            zeroGradient;
    }
    wall-8
    {
        type            noSlip;
    }
    frontAndBackPlanes
    {
        type            empty;
    }
}


// ************************************************************************* //
