/*--------------------------------*- C++ -*----------------------------------*\
  =========                 |
  \\      /  F ield         | OpenFOAM: The Open Source CFD Toolbox
   \\    /   O peration     | Website:  https://openfoam.org
    \\  /    A nd           | Version:  9
     \\/     M anipulation  |
\*---------------------------------------------------------------------------*/
FoamFile
{
    format      ascii;
    class       volScalarField;
    location    "0.8";
    object      p;
}
// * * * * * * * * * * * * * * * * * * * * * * * * * * * * * * * * * * * * * //

dimensions      [0 2 -2 0 0 0 0];

internalField   nonuniform List<scalar> 
400
(
3.94733e-06
-0.00582327
-0.0129612
-0.0184137
-0.0204314
-0.0182378
-0.0117732
-0.00148295
0.0118382
0.0271501
0.0432454
0.0588242
0.0725799
0.0833098
0.0900542
0.0922684
0.0900272
0.0842452
0.0768819
0.0710683
0.00578278
-0.000216428
-0.00580241
-0.00954123
-0.0105978
-0.00843178
-0.00296912
0.00547492
0.0163037
0.0287126
0.0417508
0.0543871
0.0655876
0.0744112
0.0801216
0.0823171
0.0810786
0.0770561
0.0712753
0.065319
0.0133371
0.00503538
-0.000993791
-0.00442175
-0.00527173
-0.00326291
0.00160321
0.00902836
0.0185028
0.0293501
0.0407664
0.0518707
0.0617697
0.0696376
0.0748082
0.0768793
0.0758428
0.072087
0.0658066
0.0575365
0.0201413
0.00869762
0.00122735
-0.00266717
-0.00372088
-0.00188422
0.00273221
0.00978537
0.0187811
0.0290958
0.0399929
0.050655
0.060234
0.0679171
0.0730043
0.0750026
0.0737669
0.0694571
0.0616039
0.0501034
0.0245039
0.00977479
0.000591259
-0.00398556
-0.00530097
-0.00350618
0.00117576
0.00833544
0.0174627
0.0279498
0.0390858
0.0500708
0.0600499
0.0681661
0.0736274
0.0757988
0.07437
0.0692907
0.0595264
0.0445379
0.0251798
0.00715173
-0.00380052
-0.00905584
-0.0105109
-0.00849877
-0.00335569
0.00443043
0.0143142
0.0256798
0.0378146
0.0499041
0.061049
0.0703041
0.0767357
0.0795179
0.0781399
0.0723344
0.0605401
0.0418908
0.0210953
-0.000260691
-0.012933
-0.0187079
-0.0200285
-0.0174127
-0.0113172
-0.00231857
0.00899144
0.0219771
0.0359104
0.0499451
0.063113
0.0743462
0.0825228
0.0865705
0.0857217
0.079448
0.0656212
0.0430724
0.0111445
-0.0136166
-0.0278735
-0.0338528
-0.0346022
-0.0308562
-0.0232116
-0.012344
0.00110597
0.0164849
0.0330535
0.0499345
0.0660842
0.0802908
0.0912016
0.097431
0.0978713
0.091637
0.0758972
0.0491173
-0.00596569
-0.034265
-0.0498686
-0.0555472
-0.0550888
-0.0495133
-0.0395923
-0.0261121
-0.00975592
0.00882414
0.0289021
0.0495945
0.0697984
0.0881555
0.103048
0.112702
0.115552
0.110193
0.0928353
0.0614124
-0.0318558
-0.0638748
-0.0804155
-0.0850057
-0.0824187
-0.074077
-0.0609797
-0.0440354
-0.0239503
-0.00133571
0.0231468
0.0486621
0.0740967
0.0979733
0.118397
0.133127
0.13999
0.136819
0.118442
0.0819349
-0.0686661
-0.104602
-0.121343
-0.123589
-0.117514
-0.105125
-0.087717
-0.0663243
-0.0416358
-0.0141544
0.0156068
0.0469544
0.078857
0.109795
0.137625
0.159587
0.172728
0.173779
0.155522
0.113572
-0.119401
-0.159356
-0.174914
-0.172756
-0.161146
-0.142927
-0.119757
-0.0927756
-0.0625761
-0.0294464
0.00637443
0.0444748
0.0840565
0.123704
0.161138
0.193087
0.215669
0.224078
0.208052
0.160634
-0.188627
-0.23224
-0.243937
-0.233946
-0.213693
-0.187153
-0.156371
-0.122499
-0.0858963
-0.0464707
-0.00401296
0.0415403
0.0898437
0.139831
0.18932
0.234691
0.271076
0.291666
0.281744
0.229777
-0.283973
-0.329303
-0.33183
-0.308278
-0.274707
-0.236438
-0.195762
-0.153608
-0.109838
-0.0637433
-0.014436
0.0388653
0.0965562
0.158278
0.222376
0.28529
0.341399
0.381577
0.384916
0.331836
-0.419316
-0.459669
-0.442348
-0.39579
-0.342127
-0.287737
-0.234613
-0.182927
-0.131607
-0.0789825
-0.0232116
0.0374777
0.104556
0.17884
0.259864
0.344973
0.428619
0.499702
0.529677
0.485394
-0.620529
-0.636741
-0.578674
-0.49419
-0.411238
-0.335655
-0.267777
-0.205975
-0.147533
-0.08938
-0.0284231
0.0383513
0.11381
0.200475
0.299978
0.412028
0.533032
0.651778
0.732774
0.722398
-0.935921
-0.878512
-0.741738
-0.597945
-0.474389
-0.372656
-0.288865
-0.217759
-0.15395
-0.0924605
-0.0287139
0.041699
0.123267
0.220721
0.338929
0.482158
0.652
0.841345
1.01527
1.09751
-1.47642
-1.20663
-0.920499
-0.691384
-0.517301
-0.38754
-0.290057
-0.213333
-0.14812
-0.0872119
-0.0245741
0.045461
0.128941
0.233074
0.367107
0.542682
0.771296
1.05932
1.40329
1.73014
-2.53964
-1.63054
-1.04443
-0.710955
-0.495747
-0.352089
-0.254527
-0.183579
-0.126166
-0.0735915
-0.0192655
0.0427904
0.119216
0.218786
0.354816
0.547987
0.826396
1.23658
1.91168
2.9242
-4.36666
-2.04463
-0.973538
-0.563177
-0.357842
-0.240143
-0.170115
-0.123779
-0.0874776
-0.0535067
-0.016651
0.0276641
0.0846108
0.161733
0.272415
0.442102
0.718222
1.22571
2.41104
4.84853
)
;

boundaryField
{
    movingWall
    {
        type            zeroGradient;
    }
    fixedWalls
    {
        type            zeroGradient;
    }
    frontAndBack
    {
        type            empty;
    }
}


// ************************************************************************* //
