/*--------------------------------*- C++ -*----------------------------------*\
  =========                 |
  \\      /  F ield         | OpenFOAM: The Open Source CFD Toolbox
   \\    /   O peration     | Website:  https://openfoam.org
    \\  /    A nd           | Version:  9
     \\/     M anipulation  |
\*---------------------------------------------------------------------------*/
FoamFile
{
    format      ascii;
    class       volScalarField;
    location    "41";
    object      p;
}
// * * * * * * * * * * * * * * * * * * * * * * * * * * * * * * * * * * * * * //

dimensions      [0 2 -2 0 0 0 0];

internalField   nonuniform List<scalar> 
2200
(
0.793996
0.772495
0.756583
0.74091
0.726293
0.713761
0.703389
0.695266
0.689542
0.686537
0.686965
0.690736
0.697016
0.705539
0.716191
0.728933
0.7437
0.759578
0.775597
0.797101
0.726417
0.723156
0.72023
0.716111
0.710644
0.704163
0.697536
0.691557
0.687018
0.684564
0.684987
0.68824
0.693375
0.699795
0.706745
0.713468
0.719109
0.723225
0.726106
0.729447
0.68653
0.686749
0.688801
0.690133
0.690508
0.689639
0.687637
0.684936
0.682355
0.680818
0.681302
0.683683
0.686916
0.690107
0.692428
0.69344
0.693166
0.692115
0.690401
0.690158
0.664075
0.665525
0.668113
0.670554
0.672987
0.674992
0.676123
0.676327
0.675918
0.675584
0.676145
0.677437
0.678571
0.678909
0.678188
0.676491
0.67431
0.672094
0.669498
0.668085
0.649729
0.651699
0.654516
0.657354
0.660207
0.663025
0.665463
0.667295
0.668473
0.669211
0.669859
0.670244
0.669937
0.668765
0.666857
0.664436
0.661852
0.659112
0.656322
0.654393
0.642456
0.644052
0.646252
0.648772
0.651418
0.654055
0.656611
0.658989
0.660946
0.662364
0.663128
0.663059
0.662156
0.660577
0.658625
0.656448
0.654097
0.651744
0.649637
0.64806
0.63914
0.640164
0.641425
0.64327
0.645388
0.64752
0.649665
0.651889
0.654034
0.655781
0.656689
0.656586
0.655704
0.654431
0.65298
0.65138
0.649646
0.648047
0.646919
0.645901
0.63655
0.637221
0.637847
0.639136
0.640734
0.642398
0.644108
0.645971
0.647946
0.649794
0.650896
0.65106
0.650623
0.649904
0.64904
0.648011
0.646896
0.645927
0.645458
0.644785
0.633393
0.633835
0.634233
0.635227
0.636483
0.637845
0.639295
0.640885
0.642617
0.644425
0.645772
0.646393
0.646525
0.646348
0.645961
0.645398
0.644738
0.644146
0.643929
0.64347
0.629505
0.6298
0.630156
0.631029
0.632139
0.633396
0.634786
0.636309
0.637975
0.639795
0.641446
0.642578
0.643187
0.643418
0.643346
0.643069
0.642671
0.642271
0.642108
0.641793
0.625021
0.625227
0.625598
0.62642
0.6275
0.62879
0.630292
0.631984
0.633852
0.635917
0.637949
0.639511
0.640459
0.640914
0.641036
0.640928
0.64068
0.640395
0.640243
0.640016
0.619986
0.620129
0.620507
0.621341
0.62251
0.623957
0.625668
0.627627
0.629841
0.63233
0.634815
0.636745
0.63797
0.638627
0.638905
0.638961
0.638833
0.638659
0.638535
0.638361
0.614615
0.614709
0.615083
0.615924
0.617181
0.618799
0.620752
0.623034
0.625678
0.62869
0.631751
0.634172
0.635741
0.636668
0.637127
0.637289
0.637334
0.637295
0.637212
0.637076
0.608999
0.609053
0.609437
0.610283
0.611599
0.613342
0.615522
0.618197
0.621393
0.625108
0.628865
0.631836
0.633816
0.635071
0.635839
0.636244
0.636487
0.636566
0.636529
0.636412
0.602926
0.602958
0.603365
0.604246
0.605688
0.607614
0.610039
0.613091
0.61691
0.621446
0.626031
0.629661
0.632197
0.633943
0.63514
0.635914
0.636372
0.636578
0.636591
0.636475
0.596262
0.5962
0.596623
0.597604
0.599262
0.601417
0.60414
0.607591
0.611952
0.617317
0.622941
0.627589
0.630988
0.63345
0.635174
0.636286
0.636949
0.63729
0.637355
0.637243
0.588878
0.588865
0.58926
0.590316
0.592202
0.594674
0.597825
0.601811
0.606896
0.613259
0.620193
0.626166
0.630577
0.633742
0.635977
0.637472
0.638409
0.638898
0.639014
0.63891
0.580597
0.580601
0.581023
0.582214
0.584422
0.587327
0.591124
0.596028
0.602261
0.61002
0.618493
0.625748
0.631177
0.6351
0.637863
0.639762
0.640985
0.641613
0.64178
0.641676
0.571025
0.57097
0.571517
0.57301
0.57557
0.579067
0.583763
0.589891
0.597705
0.607354
0.617641
0.626305
0.6327
0.637382
0.640802
0.643215
0.644759
0.645555
0.645789
0.645679
0.559665
0.55956
0.560199
0.562026
0.565146
0.56941
0.575119
0.58259
0.592199
0.604046
0.616572
0.627052
0.634932
0.640799
0.645044
0.648005
0.649927
0.650919
0.651214
0.651083
0.54627
0.546135
0.546846
0.548933
0.552615
0.557789
0.564782
0.573913
0.585612
0.600024
0.615308
0.628155
0.637827
0.644973
0.650239
0.654037
0.656496
0.657735
0.658103
0.657938
0.529665
0.529568
0.530521
0.533061
0.537605
0.5441
0.552899
0.564364
0.578874
0.596446
0.614819
0.630232
0.64178
0.650482
0.656942
0.661594
0.664624
0.666107
0.66653
0.666317
0.508821
0.508656
0.50994
0.513348
0.519332
0.527892
0.539384
0.554146
0.572338
0.593748
0.615587
0.633702
0.647287
0.657473
0.665082
0.670648
0.674258
0.675969
0.676435
0.676164
0.481483
0.481495
0.48357
0.488395
0.496693
0.508431
0.523748
0.542765
0.565442
0.591401
0.617274
0.638379
0.654115
0.665972
0.674884
0.681306
0.685416
0.687309
0.687788
0.687466
0.444784
0.445055
0.448614
0.456337
0.468558
0.485149
0.505666
0.530009
0.557988
0.58912
0.61944
0.643873
0.662051
0.67574
0.685998
0.693452
0.6981
0.700139
0.700597
0.700194
0.395395
0.395832
0.402875
0.415837
0.434453
0.458094
0.485502
0.516436
0.55063
0.58753
0.622648
0.650535
0.671168
0.686763
0.698576
0.707058
0.71212
0.714147
0.714439
0.714031
0.329531
0.332429
0.347704
0.369063
0.396593
0.428961
0.46442
0.502836
0.544006
0.587362
0.627882
0.659845
0.683671
0.701806
0.715517
0.725511
0.731316
0.733417
0.733527
0.733329
0.254387
0.264058
0.28954
0.320782
0.358411
0.399808
0.44345
0.489665
0.538248
0.588626
0.635265
0.672174
0.699701
0.720805
0.737111
0.748831
0.755476
0.757432
0.757421
0.757513
0.187307
0.20229
0.234198
0.274199
0.321325
0.371613
0.423248
0.477184
0.533055
0.590197
0.642708
0.684133
0.715245
0.739076
0.757206
0.77033
0.77773
0.780447
0.78093
0.780939
0.136343
0.149784
0.187009
0.232995
0.287358
0.345035
0.404056
0.46526
0.528046
0.591838
0.65
0.695582
0.729614
0.7556
0.775393
0.790075
0.797872
0.800935
0.801376
0.801449
0.0941982
0.106808
0.147711
0.197612
0.257408
0.320944
0.386367
0.454088
0.523228
0.593112
0.656287
0.705782
0.742429
0.770201
0.791155
0.806543
0.814998
0.818408
0.818961
0.819077
0.0579774
0.0708109
0.114234
0.167019
0.231114
0.299364
0.370176
0.443475
0.518183
0.593561
0.661988
0.714874
0.75357
0.7827
0.804576
0.82023
0.829089
0.832847
0.833545
0.833655
0.0263126
0.0393174
0.0847343
0.140052
0.207719
0.279873
0.355221
0.433366
0.51323
0.594102
0.666873
0.72244
0.76299
0.793216
0.815384
0.831273
0.840667
0.844636
0.845507
0.845593
-0.00211661
0.0109203
0.0580243
0.115704
0.186443
0.261924
0.341209
0.423636
0.508039
0.593362
0.669769
0.728509
0.770589
0.801549
0.824398
0.840533
0.850263
0.85452
0.855499
0.855569
-0.0280383
-0.0150494
0.0333226
0.0932709
0.166666
0.245053
0.327739
0.413828
0.502205
0.591809
0.67281
0.733863
0.777222
0.809129
0.832379
0.848697
0.858821
0.863066
0.864145
0.864067
-0.0523684
-0.0390728
0.0101418
0.0722051
0.147946
0.228885
0.314524
0.403865
0.496073
0.58994
0.674396
0.737988
0.783405
0.815962
0.839766
0.856237
0.865996
0.870421
0.87138
0.871199
-0.0752156
-0.0616719
-0.0117834
0.0521229
0.129899
0.213151
0.301465
0.393819
0.489424
0.586873
0.675015
0.742341
0.789074
0.822548
0.84646
0.862894
0.872632
0.876874
0.877953
0.877839
-0.096734
-0.0832377
-0.0326437
0.0328334
0.112349
0.197685
0.288395
0.383374
0.481932
0.583086
0.675612
0.745652
0.794442
0.828938
0.852994
0.869381
0.878931
0.883119
0.88407
0.883994
-0.117369
-0.10373
-0.0526105
0.0141564
0.0951382
0.182324
0.275156
0.372491
0.473917
0.578649
0.674937
0.748217
0.799764
0.835325
0.859757
0.875917
0.885261
0.88917
0.890075
0.889967
-0.137605
-0.12339
-0.071862
-0.00400169
0.0782181
0.167014
0.261752
0.361317
0.465481
0.573489
0.673621
0.750798
0.804863
0.842049
0.866992
0.88283
0.891543
0.895173
0.895834
0.89572
-0.157501
-0.142461
-0.0905707
-0.0217333
0.0615491
0.151771
0.248246
0.349876
0.456488
0.567428
0.671146
0.752273
0.809681
0.849249
0.874962
0.890282
0.898154
0.900892
0.901346
0.901189
-0.176952
-0.161137
-0.108826
-0.0390656
0.0451513
0.136632
0.234664
0.338117
0.446817
0.560379
0.667852
0.753062
0.814303
0.856753
0.884015
0.898907
0.905153
0.906415
0.906391
0.906261
-0.195812
-0.17943
-0.126636
-0.0559896
0.029059
0.121624
0.220974
0.325988
0.436596
0.552699
0.663448
0.752488
0.818056
0.864625
0.8945
0.909508
0.913647
0.911513
0.910816
0.911608
-0.214058
-0.197257
-0.143944
-0.0724671
0.0133152
0.106779
0.207218
0.313597
0.425994
0.544264
0.657498
0.750708
0.821154
0.872435
0.906423
0.922997
0.925459
0.919108
0.913701
0.911958
-0.231656
-0.214512
-0.160682
-0.0884564
-0.0020355
0.0921659
0.193498
0.301052
0.414956
0.53491
0.650392
0.747409
0.822495
0.879811
0.919567
0.940177
0.945213
0.932822
0.930649
0.935001
-0.248616
-0.231121
-0.17679
-0.103909
-0.0169367
0.0778705
0.179927
0.288418
0.403477
0.524873
0.642476
0.742333
0.822162
0.885603
0.932862
0.960738
0.971738
0.944235
0.901849
0.863769
-0.26487
-0.247097
-0.192304
-0.118888
-0.0314783
0.0637866
0.166365
0.275504
0.391386
0.514004
0.633209
0.735106
0.818849
0.888631
0.944906
0.984008
1.00953
0.998321
1.01514
1.07055
-0.280379
-0.262489
-0.207319
-0.133529
-0.0458326
0.0496926
0.152537
0.261998
0.378345
0.501752
0.621962
0.725232
0.811581
0.88614
0.947313
0.990368
1.00931
0.994177
0.956106
0.96865
-0.295114
-0.277273
-0.221789
-0.147775
-0.0599231
0.0356838
0.138574
0.248084
0.364535
0.488185
0.608772
0.712332
0.798623
0.873737
0.934692
0.975952
0.970136
0.920761
0.858815
0.8472
-0.309072
-0.291443
-0.23572
-0.161632
-0.0737543
0.0217586
0.124498
0.233808
0.349997
0.473322
0.593574
0.696168
0.779979
0.849823
0.904321
0.918186
0.886365
0.812674
0.739613
0.720322
-0.322286
-0.304992
-0.24912
-0.175123
-0.0873549
0.00790184
0.110319
0.219195
0.33474
0.457137
0.576204
0.676469
0.754406
0.812205
0.842132
0.832367
0.779298
0.679387
0.593046
0.572579
-0.335214
-0.318328
-0.262391
-0.188623
-0.101082
-0.00620075
0.0957559
0.20399
0.31856
0.439494
0.556509
0.652968
0.72374
0.765606
0.761418
0.728552
0.621621
0.500836
0.394505
0.36887
-0.348751
-0.33224
-0.276228
-0.202757
-0.115515
-0.0210399
0.0803843
0.18784
0.301199
0.420171
0.534188
0.625231
0.688766
0.707346
0.6735
0.588525
0.434086
0.282723
0.154791
0.128401
-0.363424
-0.347144
-0.29096
-0.217763
-0.130833
-0.036751
0.0641005
0.170672
0.282621
0.399155
0.509134
0.594479
0.647001
0.638298
0.58493
0.437285
0.237797
0.0254979
-0.154216
-0.201467
-0.379335
-0.363123
-0.306636
-0.233661
-0.147019
-0.05331
0.0469332
0.152531
0.262903
0.376611
0.48155
0.561624
0.599133
0.558857
0.471701
0.283715
0.0513063
-0.238593
-0.561337
-0.707305
-0.39657
-0.380282
-0.323385
-0.250541
-0.164118
-0.0707752
0.0288194
0.133349
0.241984
0.352585
0.451687
0.525882
0.545987
0.474676
0.338643
0.131449
-0.105196
-0.451931
-1.04312
-1.61737
-0.415194
-0.398696
-0.341259
-0.268452
-0.182155
-0.0891383
0.009803
0.113222
0.220059
0.327489
0.420612
0.487137
0.489623
0.400144
0.209459
-0.027097
-0.233452
-0.472665
-1.03705
-2.57209
-0.435224
-0.41846
-0.360379
-0.287529
-0.201279
-0.108588
-0.0103452
0.0918715
0.196766
0.300868
0.388101
0.44531
0.428363
0.341329
0.114588
-0.127542
-0.278772
-0.3196
-0.314718
-0.70728
-0.456575
-0.439695
-0.380886
-0.308054
-0.221896
-0.129619
-0.032234
0.0685573
0.171197
0.271406
0.353172
0.40021
0.367591
0.293004
0.063648
-0.143548
-0.257484
-0.267001
-0.215132
-0.25641
-0.479128
-0.4623
-0.402804
-0.330096
-0.244065
-0.152339
-0.0559985
0.043132
0.14315
0.238918
0.31607
0.353341
0.313436
0.240721
0.0301807
-0.135347
-0.218917
-0.226557
-0.274282
-0.27988
-0.502832
-0.48604
-0.426001
-0.353631
-0.267783
-0.17677
-0.081676
0.0155475
0.112615
0.203774
0.276342
0.304567
0.266453
0.180842
0.00275536
-0.125617
-0.198374
-0.171429
-0.193255
-0.19498
-0.527503
-0.510526
-0.450426
-0.378583
-0.292878
-0.202808
-0.109163
-0.0140599
0.0797728
0.166398
0.234499
0.252302
0.224569
0.113077
-0.0323528
-0.120353
-0.164924
-0.20757
-0.183754
-0.191824
-0.552758
-0.535424
-0.475883
-0.40473
-0.319137
-0.230291
-0.13827
-0.0454587
0.0447655
0.127055
0.190959
0.198814
0.182171
0.0515614
-0.0694845
-0.136087
-0.120987
-0.180272
-0.158632
-0.16366
-0.577878
-0.560323
-0.502246
-0.431718
-0.346193
-0.258934
-0.168669
-0.0782885
0.00787099
0.086261
0.14749
0.14746
0.131095
-0.00210854
-0.099435
-0.153799
-0.13567
-0.157915
-0.161841
-0.16127
-0.602313
-0.584942
-0.528622
-0.458761
-0.373724
-0.288369
-0.199943
-0.11209
-0.0302907
0.0443049
0.103941
0.0990978
0.0747823
-0.0479114
-0.116901
-0.150677
-0.178719
-0.160286
-0.166405
-0.162678
-0.625242
-0.608577
-0.554074
-0.485097
-0.401302
-0.317988
-0.231486
-0.146261
-0.0688251
0.00155353
0.0606038
0.0538518
0.0193841
-0.0864081
-0.136845
-0.13109
-0.193214
-0.15547
-0.165392
-0.15895
-0.645826
-0.630276
-0.577538
-0.509701
-0.428494
-0.347016
-0.262566
-0.180073
-0.106638
-0.041299
0.0169304
0.0105629
-0.0309996
-0.108374
-0.1574
-0.127619
-0.182295
-0.145932
-0.150325
-0.147313
-0.662723
-0.64874
-0.598369
-0.53216
-0.454206
-0.374352
-0.292251
-0.212651
-0.142644
-0.0834688
-0.0263737
-0.0337635
-0.0743091
-0.112147
-0.145614
-0.138233
-0.141395
-0.140666
-0.139766
-0.137619
-0.674915
-0.662947
-0.615473
-0.551482
-0.476826
-0.399068
-0.319599
-0.242905
-0.175777
-0.123179
-0.0677402
-0.0769221
-0.121922
-0.112343
-0.0898228
-0.0914468
-0.101297
-0.132597
-0.136962
-0.139681
-0.681194
-0.671525
-0.627922
-0.566614
-0.494937
-0.4199
-0.343336
-0.26959
-0.204811
-0.158285
-0.103974
-0.117126
-0.184241
-0.161678
-0.0602441
-0.0800127
-0.0891557
-0.118251
-0.130721
-0.138826
-0.681155
-0.673557
-0.63397
-0.575844
-0.507491
-0.435633
-0.362146
-0.291081
-0.228612
-0.185699
-0.135342
-0.149226
-0.253593
-0.333051
-0.337047
-0.411285
-0.41391
-0.389504
-0.370215
-0.359066
-0.673891
-0.666623
-0.632047
-0.578157
-0.513482
-0.445029
-0.374606
-0.305738
-0.244295
-0.202146
-0.158898
-0.170567
-0.337075
-0.610753
-0.991691
-1.1886
-1.23241
-1.18834
-1.08494
-1.00314
-0.65515
-0.64732
-0.619676
-0.571895
-0.511978
-0.447286
-0.379789
-0.312123
-0.24924
-0.203622
-0.165176
-0.159241
-0.340065
-0.657233
-1.02883
-1.16935
-1.15583
-1.0513
-0.9624
-0.918697
-0.61775
-0.61057
-0.59571
-0.557455
-0.502969
-0.441887
-0.377049
-0.308904
-0.241189
-0.186028
-0.140607
-0.0903629
-0.0804587
-0.0693036
-0.0955145
-0.0337068
0.0672205
0.151958
0.235805
0.307224
-0.572606
-0.568967
-0.5652
-0.535533
-0.488235
-0.430611
-0.366694
-0.296765
-0.221032
-0.145537
-0.0744583
0.0557714
0.247386
0.565186
0.854898
1.1029
1.29988
1.41747
1.47376
1.49411
-0.542769
-0.543185
-0.536256
-0.514142
-0.472379
-0.416239
-0.350578
-0.277473
-0.192418
-0.093455
0.0133495
0.171508
0.451208
0.854987
1.25394
1.58597
1.8091
1.9349
1.98873
2.00656
-0.511042
-0.512113
-0.505343
-0.495651
-0.458833
-0.40285
-0.333846
-0.256755
-0.166826
-0.0580745
0.0603252
0.187591
0.456647
0.796693
1.13147
1.42077
1.63541
1.76462
1.8232
1.84036
-0.482236
-0.48085
-0.480044
-0.477837
-0.445438
-0.390688
-0.319649
-0.239215
-0.149073
-0.0425038
0.0701876
0.156726
0.377786
0.660271
0.929657
1.16492
1.3532
1.46875
1.52033
1.53387
-0.47271
-0.470212
-0.47412
-0.468164
-0.437498
-0.379899
-0.307287
-0.226472
-0.140532
-0.0462282
0.0582199
0.116848
0.281502
0.512765
0.724501
0.903618
1.04842
1.13959
1.17997
1.19065
-0.462144
-0.461122
-0.46795
-0.4625
-0.431472
-0.368483
-0.295258
-0.216526
-0.137132
-0.0578234
0.0392626
0.0858153
0.196579
0.379715
0.546225
0.679058
0.78377
0.852785
0.883376
0.890327
-0.433177
-0.433786
-0.439753
-0.436577
-0.406187
-0.345389
-0.27698
-0.203882
-0.131973
-0.0665269
0.0216192
0.0653497
0.133722
0.271956
0.401074
0.499999
0.575619
0.625812
0.646759
0.652611
-0.369743
-0.371712
-0.377769
-0.373936
-0.348852
-0.300602
-0.24533
-0.183696
-0.12036
-0.0676262
0.0082623
0.0501586
0.0928502
0.195738
0.291622
0.36248
0.416211
0.452562
0.467714
0.47291
-0.272752
-0.275352
-0.27827
-0.276806
-0.261195
-0.231783
-0.195681
-0.152084
-0.100843
-0.0602663
0.00033327
0.0382241
0.0665266
0.145015
0.213554
0.262056
0.301092
0.328569
0.339456
0.342429
-0.169412
-0.171073
-0.172842
-0.173177
-0.167024
-0.154149
-0.135894
-0.11043
-0.0759176
-0.0465001
-0.00230247
0.0286022
0.0490596
0.110995
0.159336
0.191528
0.218742
0.236107
0.243882
0.246232
-0.0806575
-0.0817267
-0.0834711
-0.0859812
-0.0868463
-0.085153
-0.0796029
-0.0681492
-0.0491269
-0.0301156
-0.000902908
0.0223912
0.0366109
0.0841776
0.117944
0.140486
0.156991
0.166601
0.170104
0.170535
-0.0166096
-0.0173612
-0.0189516
-0.02302
-0.0285542
-0.0333143
-0.0352263
-0.0328461
-0.0248255
-0.015151
0.00267053
0.0196873
0.0306659
0.0628143
0.0851372
0.09992
0.108924
0.112825
0.113126
0.112084
0.0222982
0.021735
0.0202832
0.0155823
0.00778544
-3.30606e-05
-0.00589401
-0.0086479
-0.00679891
-0.00328924
0.00681883
0.0181473
0.0271715
0.0463025
0.0594008
0.0670771
0.0710225
0.0713261
0.0696413
0.0682274
0.0415729
0.0411389
0.0398565
0.0354815
0.0275468
0.0189931
0.0114404
0.00602896
0.00474411
0.00542375
0.0114167
0.0182317
0.0240741
0.0335004
0.040157
0.0430036
0.0435037
0.0420656
0.0399252
0.0385232
0.0484883
0.0481384
0.0470483
0.0434002
0.0366026
0.028948
0.0214265
0.015154
0.012347
0.0114974
0.015583
0.0188455
0.0213354
0.0255615
0.0279118
0.0285552
0.0281902
0.0267717
0.0250288
0.0233379
0.0485426
0.0482656
0.0474103
0.0446956
0.0396036
0.033611
0.0272348
0.0213098
0.0178248
0.0155583
0.0178086
0.0193984
0.0191739
0.0210681
0.021467
0.0216367
0.0206572
0.0185692
0.0168389
0.0153305
0.0457584
0.0455386
0.0449022
0.0429434
0.0393055
0.0348565
0.0298914
0.0247668
0.0212651
0.0179631
0.0185183
0.0192903
0.0181855
0.0194634
0.018974
0.0184252
0.0171104
0.0153278
0.0137568
0.0124243
0.0419111
0.0417652
0.0413283
0.0399745
0.0373362
0.0339275
0.0300719
0.0258132
0.0228287
0.0193083
0.0190083
0.0181683
0.0167035
0.0185387
0.0192805
0.018599
0.0177952
0.0166983
0.0157345
0.0144944
0.0375478
0.0374509
0.037119
0.0362039
0.0342978
0.0317397
0.0287812
0.0253303
0.0229831
0.019892
0.0192813
0.0181657
0.017454
0.0185766
0.0202296
0.0209661
0.0203104
0.0195933
0.019515
0.0185285
0.032928
0.0328561
0.0326144
0.0320533
0.0306679
0.0288655
0.026656
0.0239725
0.0222783
0.0195691
0.0193799
0.0184359
0.0186961
0.0205547
0.0220721
0.0237213
0.0246756
0.0248385
0.0249551
0.0243007
0.0282685
0.0281943
0.0279736
0.0275799
0.0266973
0.0255632
0.0240393
0.0221742
0.0210947
0.0188751
0.0190733
0.0186627
0.0187787
0.0223802
0.0252484
0.0272479
0.0304382
0.0327406
0.0332683
0.0322957
0.0240384
0.0239615
0.0238148
0.0235408
0.0229222
0.0223124
0.021308
0.0199159
0.0193005
0.0178223
0.0184999
0.0185172
0.0196864
0.023524
0.0278871
0.0318189
0.0344811
0.0369417
0.0384047
0.0371259
0.0202362
0.0201486
0.0200366
0.0198708
0.0195182
0.0191444
0.0186389
0.0177127
0.0170819
0.0160507
0.0174766
0.0177539
0.0205267
0.0234207
0.0278576
0.033479
0.0367239
0.0382322
0.0393824
0.0386223
0.0167516
0.0166611
0.0166129
0.016488
0.0162341
0.0159697
0.0155502
0.0149771
0.0149031
0.0137282
0.0149548
0.0146237
0.0179675
0.0225247
0.0272885
0.0319306
0.0372601
0.0397998
0.0403487
0.0394347
0.0135053
0.0133639
0.0133381
0.0132394
0.0130422
0.0128126
0.0125767
0.0118022
0.0118797
0.0112793
0.0122061
0.011917
0.0136681
0.0162987
0.0235274
0.0297276
0.0344004
0.0371439
0.0384338
0.0371603
0.0102446
0.0101499
0.010127
0.0099745
0.00984866
0.00963663
0.0096492
0.00878063
0.00893708
0.00864066
0.00894154
0.00966372
0.00994874
0.0112763
0.0180642
0.0241577
0.0291611
0.0328059
0.0341748
0.0327638
0.00697049
0.00683238
0.00669358
0.00666692
0.00673489
0.0062494
0.00628904
0.00591732
0.0060986
0.00655596
0.00576679
0.0057778
0.00344297
0.00975397
0.0142049
0.017411
0.0212901
0.0235814
0.0244806
0.0235647
0.00327749
0.00325474
0.00332204
0.00325705
0.00279488
0.00229676
0.00219936
0.00351294
0.00517381
0.00471981
0.00359425
0.00359081
0.00178954
0.00611371
0.00562283
0.00314321
0.00209375
0.00113442
0.0023343
0.0021305
-1.06796
-0.219585
0.050707
0.329593
0.514518
0.673799
0.804556
0.937521
1.08187
1.16173
-0.0801278
0.330309
0.349543
0.539671
0.666876
0.780744
0.879085
0.966341
0.994439
0.951749
0.302382
0.518556
0.556266
0.6939
0.781971
0.863621
0.930825
0.98118
0.983718
0.997327
0.53542
0.680687
0.716564
0.820541
0.87768
0.937136
0.98253
1.01523
1.02451
1.04804
0.716123
0.819291
0.849087
0.91852
0.962895
1.00505
1.03754
1.06199
1.07194
1.1034
0.861214
0.931037
0.961557
1.00532
1.04173
1.07228
1.09686
1.11767
1.13198
1.16017
0.981491
1.03264
1.05839
1.08675
1.11476
1.13875
1.1589
1.17823
1.19325
1.21968
1.08596
1.12319
1.14445
1.16533
1.18638
1.20595
1.22347
1.24165
1.25656
1.28022
1.18035
1.20959
1.22603
1.24145
1.25778
1.27398
1.28959
1.30656
1.32017
1.34248
1.26888
1.2894
1.30437
1.3177
1.3314
1.34525
1.35876
1.37336
1.38489
1.40453
1.35458
1.37049
1.38441
1.39629
1.40825
1.41989
1.43101
1.44267
1.45032
1.46713
1.44016
1.45283
1.46658
1.47827
1.48885
1.49859
1.50736
1.51559
1.51914
1.53042
1.52908
1.54012
1.55359
1.56287
1.5703
1.5775
1.58468
1.5912
1.59225
1.59965
1.62754
1.63211
1.64019
1.64482
1.64816
1.65263
1.65864
1.66636
1.67021
1.68009
1.74059
1.72719
1.7199
1.71429
1.71162
1.71298
1.71939
1.73176
1.74655
1.77621
1.8622
1.80631
1.77535
1.75816
1.74998
1.74996
1.75874
1.77832
1.81023
1.87946
)
;

boundaryField
{
    wall-4
    {
        type            zeroGradient;
    }
    pressure-outlet-7
    {
        type            fixedValue;
        value           uniform 0;
    }
    velocity-inlet-6
    {
        type            zeroGradient;
    }
    velocity-inlet-5
    {
        type            zeroGradient;
    }
    frontAndBackPlanes
    {
        type            empty;
    }
}


// ************************************************************************* //
