/*--------------------------------*- C++ -*----------------------------------*\
  =========                 |
  \\      /  F ield         | OpenFOAM: The Open Source CFD Toolbox
   \\    /   O peration     | Website:  https://openfoam.org
    \\  /    A nd           | Version:  9
     \\/     M anipulation  |
\*---------------------------------------------------------------------------*/
FoamFile
{
    format      ascii;
    class       surfaceScalarField;
    location    "41";
    object      phi;
}
// * * * * * * * * * * * * * * * * * * * * * * * * * * * * * * * * * * * * * //

dimensions      [0 3 -1 0 0 0 0];

internalField   nonuniform List<scalar> 
4262
(
0.107143
0.470845
0.095571
0.705158
0.0693877
0.858486
0.0473842
1.02077
0.0310067
1.21489
0.019831
1.4494
0.0124902
1.7332
0.00733861
2.07619
0.00339196
2.48919
-0.000227246
2.98591
-0.00390273
2.98597
-0.0079321
2.48927
-0.0130581
2.07616
-0.0202363
1.73304
-0.0311989
1.44918
-0.0473094
1.21463
-0.0690915
1.02055
-0.09531
0.858521
-0.1071
0.705376
0.470888
0.112907
0.357938
0.135367
0.682698
0.12052
0.873333
0.0980038
1.04328
0.0747491
1.23815
0.0529584
1.47119
0.0344967
1.75167
0.0202167
2.09047
0.00892034
2.50049
-0.00121319
2.99604
-0.0112305
2.99599
-0.022102
2.50014
-0.0360234
2.09008
-0.0544281
1.75145
-0.0762874
1.47104
-0.0998885
1.23823
-0.122882
1.04354
-0.136718
0.872357
-0.113463
0.682122
0.357425
0.0920563
0.265882
0.124997
0.649757
0.121131
0.877199
0.104882
1.05953
0.0863147
1.25672
0.0672582
1.49024
0.048345
1.77058
0.0304017
2.10841
0.014024
2.51686
-0.00174303
3.01181
-0.0173877
3.01163
-0.033531
2.51629
-0.0512513
2.1078
-0.0697654
1.76996
-0.0882018
1.48948
-0.1057
1.25573
-0.120269
1.05811
-0.125307
0.877394
-0.0923392
0.649154
0.265085
0.0640529
0.201829
0.104978
0.608831
0.106821
0.875357
0.0954838
1.07087
0.0815983
1.2706
0.066916
1.50492
0.050727
1.78677
0.0335125
2.12563
0.0157537
2.53462
-0.00306509
3.03063
-0.0216556
3.03022
-0.0389469
2.53358
-0.0554205
2.12428
-0.070613
1.78515
-0.084403
1.50327
-0.0979984
1.26932
-0.109603
1.06971
-0.10671
0.874502
-0.0647576
0.607202
0.200328
0.0375561
0.164273
0.0808896
0.565498
0.0912181
0.865029
0.084033
1.07805
0.0714351
1.2832
0.0596423
1.51672
0.046842
1.79957
0.0320598
2.14041
0.0153255
2.55136
-0.00361818
3.04957
-0.0222586
3.04886
-0.0383842
2.5497
-0.0523463
2.13824
-0.0646274
1.79743
-0.0760579
1.5147
-0.0880908
1.28135
-0.0945029
1.07613
-0.0828991
0.862898
-0.0382822
0.562585
0.162046
0.0194832
0.14479
0.0572699
0.527711
0.0727254
0.849573
0.0706664
1.08011
0.0618836
1.29198
0.0510092
1.52759
0.0399164
1.81066
0.0274701
2.15285
0.012492
2.56634
-0.00510677
3.06717
-0.0223405
3.06609
-0.0363824
2.56375
-0.0478381
2.1497
-0.0577102
1.80731
-0.0675816
1.52457
-0.0754072
1.28918
-0.0764586
1.07718
-0.0596138
0.846053
-0.0202534
0.523224
0.141792
0.0106617
0.134128
0.0425221
0.495851
0.0587897
0.833306
0.0592005
1.0797
0.0531562
1.29803
0.0438722
1.53688
0.0336323
1.8209
0.0224102
2.16408
0.00947215
2.57927
-0.00618139
3.08283
-0.0214954
3.08141
-0.0335294
2.57578
-0.0435358
2.1597
-0.052612
1.81638
-0.0608225
1.53278
-0.0655931
1.29395
-0.0637581
1.07534
-0.0455375
0.827832
-0.0115928
0.48928
0.1302
0.00666896
0.127459
0.0332356
0.469284
0.0496657
0.816875
0.0513359
1.07803
0.046489
1.30287
0.0383489
1.54502
0.0287702
1.83048
0.0178773
2.17497
0.00575704
2.59139
-0.00804328
3.09663
-0.0211521
3.09452
-0.0319903
2.58662
-0.0413704
2.16908
-0.049315
1.82433
-0.0557709
1.53924
-0.0589527
1.29713
-0.0554845
1.07187
-0.0367162
0.809064
-0.00773858
0.460302
0.122461
0.00478832
0.122671
0.0268104
0.447262
0.0429212
0.800765
0.0452759
1.07568
0.0408558
1.30729
0.033498
1.55237
0.0246103
1.83937
0.0142846
2.1853
0.00277023
2.60291
-0.00987674
3.10927
-0.0219232
3.10656
-0.0319742
2.59667
-0.0403129
2.17742
-0.0471827
1.8312
-0.0527023
1.54476
-0.0551369
1.29957
-0.0503988
1.06714
-0.0311951
0.78986
-0.00613083
0.435238
0.11633
0.00377307
0.118897
0.0217562
0.429279
0.0369507
0.78557
0.0399042
1.07272
0.035858
1.31134
0.0288153
1.55942
0.020363
1.84782
0.0105657
2.19509
-0.00051678
2.61399
-0.0125207
3.12128
-0.0236571
3.1177
-0.0326869
2.6057
-0.0402179
2.18495
-0.0462873
1.83727
-0.050857
1.54933
-0.0523972
1.30111
-0.0464101
1.06115
-0.0272028
0.770653
-0.00545436
0.413489
0.110876
0.0030499
0.115848
0.0176329
0.414696
0.0317868
0.771416
0.0349301
1.06958
0.030977
1.31529
0.0241987
1.5662
0.0162699
1.85575
0.00705406
2.20431
-0.00343994
2.62448
-0.0151478
3.13299
-0.0259048
3.12846
-0.0341573
2.61395
-0.0404752
2.19127
-0.0455902
1.84238
-0.0496554
1.55339
-0.0504042
1.30186
-0.0432433
1.05399
-0.0241324
0.751542
-0.00507772
0.394435
0.105798
0.00245402
0.113394
0.0140161
0.403134
0.0267929
0.75864
0.0301465
1.06623
0.0263396
1.3191
0.0194473
1.57309
0.0113445
1.86385
0.00238669
2.21327
-0.00766998
2.63454
-0.0190858
3.1444
-0.0291344
3.13851
-0.0362526
2.62107
-0.0416481
2.19666
-0.0460097
1.84674
-0.0491961
1.55658
-0.0487969
1.30146
-0.040553
1.04574
-0.0217605
0.73275
-0.00485809
0.377532
0.10094
0.00162514
0.111768
0.0101078
0.394651
0.0209089
0.747839
0.0239304
1.06321
0.0204286
1.3226
0.0140352
1.57948
0.00625246
1.87163
-0.00260163
2.22212
-0.0126141
2.64455
-0.0234208
3.15521
-0.0326621
3.14775
-0.0390528
2.62746
-0.0435488
2.20116
-0.0472421
1.85044
-0.0491086
1.55844
-0.0478999
1.30025
-0.038522
1.03637
-0.0199057
0.714133
-0.00464369
0.36227
0.0962962
0.000763064
0.111005
0.00679153
0.388623
0.0158662
0.738764
0.0183655
1.06071
0.0146101
1.32636
0.00809513
1.586
0.000271711
1.87946
-0.00860031
2.23099
-0.0183067
2.65426
-0.028527
3.16543
-0.037051
3.15627
-0.0426279
2.63304
-0.0462216
2.20475
-0.0485851
1.8528
-0.0492394
1.5591
-0.0471059
1.29811
-0.0366537
1.02591
-0.0183982
0.695878
-0.00444164
0.348313
0.0918546
4.09899e-05
0.110964
0.00356103
0.385103
0.0100592
0.732266
0.0115644
1.0592
0.00759416
1.33033
0.000949916
1.59264
-0.00724383
1.88765
-0.0164353
2.24018
-0.0262589
2.66408
-0.0356766
3.17485
-0.0425316
3.16313
-0.0466234
2.63713
-0.0492106
2.20734
-0.0507018
1.85429
-0.0505468
1.55894
-0.0470595
1.29463
-0.0358053
1.01466
-0.0176374
0.67771
-0.00439799
0.335074
0.0874566
-0.000770778
0.111735
0.000179877
0.384152
0.00469603
0.72775
0.00499139
1.05891
6.59519e-05
1.33525
-0.00738298
1.60009
-0.0160745
1.89634
-0.0255066
2.24962
-0.034687
2.67326
-0.0427762
3.18294
-0.0485597
3.16891
-0.051724
2.64029
-0.0532079
2.20883
-0.0538314
1.85491
-0.0529101
1.55802
-0.0481723
1.28989
-0.0356203
1.00211
-0.0173826
0.659472
-0.00452847
0.32222
0.0829281
-0.00184015
0.113575
-0.00334512
0.385657
-0.00241043
0.726815
-0.00366315
1.06016
-0.00907889
1.34067
-0.0169317
1.60794
-0.0260445
1.90546
-0.0356627
2.25923
-0.0453905
2.68299
-0.0538634
3.19141
-0.0585069
3.17355
-0.0598545
2.64164
-0.0596802
2.20865
-0.058549
1.85378
-0.0557518
1.55522
-0.0495939
1.28373
-0.035916
0.98843
-0.017422
0.640978
-0.00466894
0.309467
0.0782592
-0.00316756
0.116743
-0.00705765
0.389547
-0.00921476
0.728972
-0.0121945
1.06314
-0.0187282
1.3472
-0.0276191
1.61683
-0.0373549
1.91519
-0.0475339
2.26941
-0.0571888
2.69265
-0.0648744
3.19909
-0.068503
3.17718
-0.0686523
2.64179
-0.0669773
2.20698
-0.0647558
1.85156
-0.0607826
1.55125
-0.0525793
1.27553
-0.0369087
0.972759
-0.017799
0.621869
-0.0048794
0.296547
0.0733798
-0.00464137
0.121384
-0.0119089
0.396815
-0.0177401
0.734803
-0.0235581
1.06896
-0.0309868
1.35463
-0.040701
1.62655
-0.0514782
1.92597
-0.0624005
2.28034
-0.0728609
2.70311
-0.0810102
3.20724
-0.0836836
3.17985
-0.0816885
2.6398
-0.0774726
2.20276
-0.0723499
1.84644
-0.0659328
1.54483
-0.055737
1.26533
-0.0385248
0.955547
-0.0187079
0.602052
-0.00523637
0.283076
0.0681434
-0.00613426
0.127518
-0.0172767
0.407957
-0.0275391
0.745066
-0.0358407
1.07726
-0.0450908
1.36388
-0.0566624
1.63812
-0.0688507
1.93816
-0.081072
2.29256
-0.0914829
2.71352
-0.0975439
3.2133
-0.0969566
3.17927
-0.0929263
2.63577
-0.0873626
2.1972
-0.0814987
1.84058
-0.0735467
1.53688
-0.060649
1.25243
-0.0410484
0.935946
-0.0200949
0.581098
-0.00567125
0.268652
0.0624722
-0.00858577
0.136104
-0.0246191
0.42399
-0.0403868
0.760833
-0.0524299
1.0893
-0.0631715
1.37462
-0.0757813
1.65073
-0.0895697
1.95195
-0.10316
2.30615
-0.114496
2.72485
-0.120774
3.21958
-0.119892
3.17839
-0.11392
2.62979
-0.104813
2.18809
-0.094179
1.82994
-0.0826764
1.52538
-0.0670927
1.23685
-0.0452671
0.914121
-0.0225522
0.558383
-0.00636307
0.252463
0.0561091
-0.0108948
0.146999
-0.0312875
0.444383
-0.052209
0.781755
-0.068423
1.10552
-0.0827883
1.38899
-0.098907
1.66685
-0.115116
1.96815
-0.130421
2.32145
-0.142104
2.73654
-0.146386
3.22386
-0.141192
3.17319
-0.13107
2.61967
-0.120077
2.1771
-0.108921
1.81879
-0.0956038
1.51206
-0.0766142
1.21786
-0.0512969
0.888803
-0.0256826
0.532769
-0.00710598
0.233886
0.0490031
-0.0155662
0.162565
-0.04312
0.471937
-0.0704289
0.809064
-0.0919209
1.12701
-0.109959
1.40703
-0.128913
1.6858
-0.147813
1.98705
-0.164576
2.33822
-0.176218
2.74818
-0.179361
3.22701
-0.172713
3.16654
-0.160699
2.60766
-0.14597
2.16237
-0.129555
1.80237
-0.111487
1.49399
-0.0886507
1.19502
-0.0594802
0.859633
-0.0298739
0.503163
-0.00809909
0.212111
0.040904
-0.0196577
0.182223
-0.0558391
0.508118
-0.092331
0.845556
-0.120431
1.15511
-0.144232
1.43083
-0.168425
1.70999
-0.189997
2.00863
-0.207272
2.35549
-0.217211
2.75812
-0.216035
3.22583
-0.203216
3.15373
-0.185242
2.58968
-0.166749
2.14387
-0.149326
1.78495
-0.129622
1.47429
-0.102834
1.16824
-0.0685563
0.825355
-0.0338359
0.468442
-0.00881871
0.187094
0.0320853
-0.0328749
0.215098
-0.0817609
0.557004
-0.127707
0.891501
-0.163139
1.19054
-0.193376
1.46106
-0.220799
1.73742
-0.24349
2.03132
-0.259978
2.37198
-0.267157
2.7653
-0.261498
3.22017
-0.243836
3.13606
-0.22273
2.56858
-0.201281
2.12243
-0.178069
1.76174
-0.151878
1.4481
-0.119263
1.13562
-0.0787391
0.784831
-0.0382097
0.427913
-0.00948244
0.158367
0.0226029
-0.0473971
0.262495
-0.120129
0.629736
-0.181302
0.952675
-0.224224
1.23346
-0.259851
1.49669
-0.289115
1.76668
-0.310218
2.05242
-0.322708
2.38447
-0.323782
2.76637
-0.310812
3.2072
-0.286126
3.11138
-0.258383
2.54083
-0.230759
2.0948
-0.205111
1.73609
-0.176915
1.4199
-0.138185
1.09689
-0.0890846
0.735731
-0.0408494
0.379678
-0.0093814
0.126899
0.0132215
-0.0335235
0.296018
-0.0953717
0.691584
-0.151812
1.00912
-0.198311
1.27996
-0.241087
1.53947
-0.277562
1.80316
-0.311284
2.08614
-0.340484
2.41367
-0.36078
2.78667
-0.365877
3.2123
-0.351838
3.09734
-0.327544
2.51654
-0.299941
2.0672
-0.265562
1.70171
-0.220494
1.37484
-0.162282
1.03868
-0.0952155
0.668664
-0.0382083
0.32267
-0.00838049
0.0970711
0.00484097
-0.012144
0.308162
-0.0457223
0.725162
-0.0862707
1.04966
-0.12504
1.31873
-0.163078
1.57751
-0.196899
1.83698
-0.227565
2.11681
-0.252502
2.43861
-0.267336
2.8015
-0.266989
3.21195
-0.249499
3.07985
-0.222376
2.48942
-0.187918
2.03274
-0.150519
1.66431
-0.111208
1.33553
-0.0687726
0.996244
-0.0307617
0.630653
-0.0082443
0.300153
-0.00125497
0.0900818
0.003586
0.00106308
0.307099
-0.0224406
0.748666
-0.0514018
1.07863
-0.0813966
1.34872
-0.112261
1.60837
-0.142333
1.86705
-0.169753
2.14423
-0.191879
2.46073
-0.205744
2.81537
-0.205524
3.21173
-0.186701
3.06103
-0.157414
2.46013
-0.124072
1.9994
-0.087354
1.62759
-0.0479976
1.29617
-0.0122138
0.96046
0.00894483
0.609495
0.0103228
0.298775
0.00357112
0.0968335
0.00715712
0.00163268
0.305467
-0.0107738
0.761072
-0.0321389
1.09999
-0.0569425
1.37353
-0.0824175
1.63385
-0.107408
1.89204
-0.130878
2.1677
-0.149986
2.47984
-0.160541
2.82592
-0.156503
3.20769
-0.139362
3.04388
-0.113778
2.43455
-0.0801064
1.96573
-0.0438966
1.59138
-0.0127753
1.26505
0.0102039
0.937481
0.0197311
0.599967
0.0152005
0.303306
0.00510543
0.106929
0.0122625
0.00455744
0.300909
-0.00361821
0.769248
-0.0213566
1.11773
-0.0420005
1.39417
-0.0636726
1.65552
-0.0853839
1.91375
-0.10607
2.18838
-0.12346
2.49723
-0.134153
2.83661
-0.134439
3.20798
-0.118768
3.02821
-0.0912508
2.40703
-0.0608974
1.93537
-0.0304963
1.56098
0.00010322
1.23445
0.0207299
0.916854
0.0251177
0.59558
0.0169215
0.311502
0.00541581
0.118434
0.0176784
0.00545017
0.295459
-0.0001641
0.774862
-0.0158554
1.13342
-0.0341646
1.41248
-0.0530961
1.67445
-0.0721408
1.9328
-0.0906161
2.20686
-0.106171
2.51279
-0.115071
2.84551
-0.111534
3.20444
-0.0950945
3.01177
-0.0732067
2.38514
-0.0478435
1.91001
-0.0190919
1.53223
0.00471952
1.21064
0.0200448
0.901529
0.0230939
0.592531
0.0147425
0.319853
0.00465841
0.128518
0.0223368
0.00409057
0.291368
0.000312842
0.77864
-0.0125933
1.14633
-0.0291259
1.42901
-0.046488
1.69181
-0.0641084
1.95042
-0.0812684
2.22402
-0.0961421
2.52766
-0.106287
2.85566
-0.106904
3.20506
-0.0940501
2.99892
-0.0717251
2.36282
-0.0456428
1.88393
-0.0214755
1.50806
0.00122484
1.18794
0.0151633
0.887591
0.0172556
0.590438
0.0109828
0.326126
0.00333524
0.136166
0.025672
0.00268163
0.288687
-0.000661864
0.781983
-0.0124434
1.15811
-0.0274991
1.44407
-0.043537
1.70785
-0.0598736
1.96675
-0.0762836
2.24043
-0.0910955
2.54247
-0.100752
2.86532
-0.0999583
3.20427
-0.0872369
2.9862
-0.0699509
2.34553
-0.0484346
1.86241
-0.0234276
1.48306
-0.00501619
1.16952
0.00696334
0.875611
0.0105077
0.586894
0.00639868
0.330235
0.00206722
0.140497
0.0277392
0.000193829
0.288493
-0.00286528
0.785042
-0.0132617
1.1685
-0.0266417
1.45745
-0.0418451
1.72305
-0.0577291
1.98264
-0.0738155
2.25651
-0.0884818
2.55714
-0.0989457
2.87578
-0.102132
3.20745
-0.0918318
2.9759
-0.0708687
2.32457
-0.0490568
1.8406
-0.0315141
1.46551
-0.013546
1.15156
-0.00207999
0.864145
0.00130097
0.583513
0.00108909
0.330447
0.000539718
0.141047
0.0282789
-0.000469868
0.288963
-0.00525593
0.789829
-0.0149243
1.17817
-0.0273821
1.46991
-0.0417517
1.73742
-0.056948
1.99783
-0.0727359
2.2723
-0.0877877
2.57219
-0.0994885
2.88748
-0.102048
3.21001
-0.0908652
2.96472
-0.0753741
2.30908
-0.0576619
1.82289
-0.0376581
1.44551
-0.02282
1.13672
-0.0119653
0.85329
-0.00519077
0.576739
-0.00330435
0.328561
-0.000904793
0.138647
0.0273742
-0.00232343
0.291286
-0.00739905
0.794904
-0.016451
1.18722
-0.0280706
1.48153
-0.0417413
1.75109
-0.0566962
2.01279
-0.0726952
2.2883
-0.0883636
2.58786
-0.100807
2.89992
-0.10508
3.21428
-0.0991434
2.95878
-0.0828169
2.29275
-0.0632932
1.80336
-0.046927
1.42914
-0.030853
1.12064
-0.0188381
0.841275
-0.0115892
0.56949
-0.00546667
0.322438
-0.00151213
0.134693
0.025862
-0.00372627
0.295013
-0.00906252
0.80024
-0.0179413
1.1961
-0.0292356
1.49282
-0.0424008
1.76426
-0.05695
2.02734
-0.0728783
2.30423
-0.0888471
2.60383
-0.102438
2.91351
-0.110029
3.22188
-0.103958
2.95271
-0.0898265
2.27862
-0.0723598
1.7859
-0.0530387
1.40982
-0.0383558
1.10596
-0.0258703
0.82879
-0.0155799
0.559199
-0.00815598
0.315014
-0.00229231
0.128829
0.0235697
-0.00430881
0.299321
-0.0104038
0.806335
-0.0191923
1.20489
-0.0299893
1.50362
-0.0426724
1.77694
-0.0570148
2.04168
-0.0730692
2.32028
-0.0897565
2.62051
-0.105062
2.92882
-0.114213
3.23103
-0.110728
2.94922
-0.098015
2.2659
-0.0782767
1.76616
-0.0611577
1.3927
-0.0440906
1.08889
-0.0305281
0.815227
-0.0197186
0.54839
-0.00893015
0.304226
-0.00241389
0.122313
0.0211558
-0.00441341
0.303735
-0.0110784
0.813
-0.0199876
1.2138
-0.0306555
1.51429
-0.0430543
1.78934
-0.0570836
2.05571
-0.0731109
2.33631
-0.0902527
2.63766
-0.106387
2.94495
-0.117957
3.2426
-0.118518
2.94978
-0.105987
2.25337
-0.0889903
1.74916
-0.0674828
1.3712
-0.0499479
1.07136
-0.0345064
0.799786
-0.0206075
0.534491
-0.00973114
0.293349
-0.00236767
0.114949
0.0187881
-0.0045046
0.308239
-0.0116983
0.820194
-0.0205382
1.22264
-0.0308528
1.5246
-0.042903
1.80139
-0.0567854
2.06959
-0.0729184
2.35244
-0.0906178
2.65536
-0.108479
2.96282
-0.122918
3.25703
-0.124821
2.95169
-0.11478
2.24333
-0.0951874
1.72957
-0.0746001
1.35061
-0.0528664
1.04963
-0.0356159
0.782535
-0.0219295
0.520805
-0.00902028
0.28044
-0.00195539
0.107884
0.0168328
-0.00456025
0.3128
-0.0118529
0.827487
-0.0206135
1.2314
-0.0308225
1.53481
-0.0426874
1.81325
-0.0563369
2.08324
-0.0724121
2.36852
-0.0904216
2.67336
-0.108905
2.9813
-0.124707
3.27284
-0.131099
2.95808
-0.123175
2.23541
-0.10666
1.71305
-0.0811251
1.32507
-0.0565743
1.02508
-0.0342433
0.760204
-0.0168638
0.503425
-0.00666672
0.270243
-0.000980336
0.102198
0.0158524
-0.00464165
0.317441
-0.0120508
0.834896
-0.0205797
1.23993
-0.0304415
1.54467
-0.0419896
1.8248
-0.0554661
2.09672
-0.0714877
2.38454
-0.0897924
2.69167
-0.109733
3.00124
-0.128541
3.29164
-0.137691
2.96723
-0.13235
2.23007
-0.113097
1.6938
-0.0885093
1.30049
-0.0576188
0.994185
-0.0305723
0.733158
-0.0108146
0.483667
-0.00126117
0.26069
-0.00198541
0.102922
0.013867
-0.00460307
0.322044
-0.0118606
0.842153
-0.020188
1.24826
-0.0298658
1.55435
-0.0411761
1.83611
-0.0543709
2.10991
-0.0702482
2.40042
-0.0887707
2.71019
-0.109113
3.02158
-0.128532
3.31106
-0.140742
2.97944
-0.139394
2.22872
-0.126218
1.68062
-0.0973039
1.27157
-0.0613838
0.958265
-0.0212411
0.693015
0.014787
0.447639
0.0309719
0.244505
0.0237718
0.110122
0.0376388
-0.00451508
0.326559
-0.0117184
0.849357
-0.0197708
1.25631
-0.0290497
1.56363
-0.0399718
1.84704
-0.0529197
2.12286
-0.0686482
2.41615
-0.0872335
2.72878
-0.108415
3.04276
-0.130747
3.33339
-0.1458
2.99449
-0.148813
2.23173
-0.133983
1.66579
-0.107562
1.24515
-0.0641206
0.914824
-0.0168738
0.645768
0.0314337
0.399332
0.0423833
0.233555
0.0184897
0.134016
0.0561285
-0.00431607
0.330876
-0.0112735
0.856314
-0.0190673
1.2641
-0.0280774
1.57264
-0.0387288
1.85769
-0.0513503
2.13548
-0.0668435
2.43164
-0.0854072
2.74734
-0.106783
3.06414
-0.129583
3.35619
-0.146809
3.01172
-0.153282
2.23821
-0.148241
1.66075
-0.122012
1.21892
-0.078115
0.870927
-0.00556228
0.573215
0.0962861
0.297483
0.182467
0.147374
0.17906
0.137422
0.235189
-0.00418555
0.335061
-0.0111109
0.863239
-0.0188319
1.27183
-0.0277711
1.58158
-0.0385539
1.86847
-0.0516451
2.14857
-0.0680107
2.44801
-0.088049
2.76738
-0.112257
3.08835
-0.140514
3.38445
-0.164078
3.03528
-0.177269
2.2514
-0.172666
1.65615
-0.151572
1.19783
-0.103936
0.823291
-0.0520052
0.521285
-0.0884142
0.333892
-0.360371
0.419332
-0.936535
0.713586
0.89794
-1.59929
-0.0039858
0.339047
-0.0106574
0.869911
-0.0181955
1.27936
-0.0270521
1.59043
-0.0377883
1.87921
-0.0509559
2.16174
-0.0676787
2.46473
-0.0886274
2.78833
-0.114462
3.11418
-0.14507
3.41506
-0.17342
3.06363
-0.1915
2.26948
-0.205909
1.67056
-0.199222
1.19114
-0.181988
0.806057
-0.26642
0.605717
-0.691964
0.759436
-1.43027
1.15764
-2.04068
1.32399
1.21806
-2.36079
-0.00378464
0.342832
-0.0102526
0.876379
-0.017555
1.28667
-0.0261633
1.59904
-0.0367323
1.88977
-0.0499855
2.17499
-0.0670588
2.4818
-0.0887945
2.81006
-0.116531
3.14192
-0.151827
3.45036
-0.186647
3.09845
-0.215952
2.29878
-0.231655
1.68626
-0.230936
1.19042
-0.318168
0.893289
-0.751951
1.0395
-1.53016
1.53764
-2.10284
1.73032
-2.34401
1.56516
1.3331
-2.45906
-0.00356976
0.346401
-0.00965413
0.882463
-0.0166851
1.2937
-0.0251418
1.6075
-0.0355928
1.90023
-0.0488482
2.18825
-0.0661672
2.49912
-0.0886949
2.83259
-0.118007
3.17123
-0.155896
3.48824
-0.196678
3.13923
-0.2302
2.3323
-0.26586
1.72192
-0.353309
1.27787
-0.693262
1.23324
-1.42779
1.77402
-2.02123
2.13108
-2.26243
1.97153
-2.37654
1.67927
1.3983
-2.44174
-0.00331181
0.349713
-0.009068
0.88822
-0.015781
1.30041
-0.0239202
1.61564
-0.0341987
1.9105
-0.0474519
2.2015
-0.0649984
2.51667
-0.0881533
2.85575
-0.119162
3.20224
-0.161648
3.53073
-0.209643
3.18723
-0.258589
2.38125
-0.306593
1.76993
-0.485346
1.45662
-1.08743
1.83533
-1.77914
2.46573
-2.10455
2.45649
-2.25438
2.12136
-2.33706
1.76195
1.4641
-2.40286
-0.003226
0.352939
-0.00882918
0.893823
-0.0155158
1.3071
-0.0237637
1.62389
-0.0343307
1.92107
-0.0478514
2.21502
-0.0658672
2.53468
-0.0899596
2.87984
-0.122583
3.23486
-0.167604
3.57575
-0.221897
3.24152
-0.272028
2.43138
-0.365802
1.8637
-0.751538
1.84236
-1.48298
2.56677
-1.96089
2.94364
-2.16176
2.65736
-2.26857
2.22817
-2.3457
1.83908
1.52811
-2.4097
-0.00332029
0.356259
-0.00923318
0.899736
-0.0162842
1.31415
-0.0248934
1.63249
-0.0359158
1.93209
-0.0500979
2.2292
-0.0689975
2.55358
-0.0942672
2.90511
-0.128898
3.26949
-0.178739
3.62559
-0.237999
3.30078
-0.304871
2.49825
-0.495058
2.05389
-1.04262
2.38992
-1.67167
3.19582
-1.9516
3.22358
-2.09955
2.8053
-2.21399
2.34262
-2.30773
1.93282
1.59026
-2.36988
-0.00334678
0.359606
-0.00949277
0.905882
-0.0169546
1.32161
-0.0261347
1.64167
-0.0377452
1.9437
-0.0525768
2.24404
-0.0723165
2.57332
-0.0988642
2.93166
-0.135261
3.30589
-0.187155
3.67749
-0.251487
3.36511
-0.342049
2.58881
-0.621678
2.33352
-1.25711
3.02535
-1.75016
3.68888
-1.95847
3.43189
-2.09983
2.94667
-2.22437
2.46715
-2.33596
2.04441
1.64923
-2.39493
-0.0033328
0.362939
-0.00983411
0.912383
-0.0177696
1.32954
-0.0273799
1.65129
-0.0394744
1.9558
-0.0550251
2.25959
-0.0757129
2.59401
-0.103461
2.9594
-0.141779
3.34421
-0.197787
3.73349
-0.267732
3.43506
-0.39308
2.71416
-0.773573
2.71401
-1.40391
3.65569
-1.76138
4.04634
-1.93568
3.60618
-2.03902
3.05001
-2.12893
2.55707
-2.19756
2.11304
1.64251
-2.19085
-0.00323523
0.366174
-0.00990632
0.919054
-0.0182972
1.33794
-0.0285833
1.66157
-0.0413895
1.9686
-0.0576405
2.27584
-0.0791837
2.61555
-0.108203
2.98842
-0.148206
3.38421
-0.204959
3.79025
-0.284398
3.5145
-0.455672
2.88544
-0.902987
3.16133
-1.45762
4.21032
-1.72218
4.3109
-1.87657
3.76057
-1.97109
3.14453
-1.9742
2.56018
-1.9077
2.04654
1.61142
-1.87662
-0.00298852
0.369163
-0.010037
0.926103
-0.0188969
1.3468
-0.0295253
1.6722
-0.0426725
1.98175
-0.0593868
2.29255
-0.0813887
2.63755
-0.110715
3.01775
-0.151141
3.42464
-0.208333
3.84744
-0.295543
3.60171
-0.49801
3.0879
-0.980017
3.64333
-1.42462
4.65493
-1.59383
4.48011
-1.66236
3.8291
-1.66818
3.15035
-1.522
2.414
-1.02298
1.54752
0.588441
-0.00259272
0.371755
-0.00969566
0.933206
-0.0190169
1.35612
-0.0305248
1.68371
-0.0448216
1.99605
-0.0628156
2.31055
-0.0865748
2.66131
-0.118565
3.04974
-0.1628
3.46887
-0.225231
3.90987
-0.328587
3.70506
-0.582271
3.34159
-1.11614
4.17721
-1.47859
5.01738
-1.57893
4.58044
-1.57804
3.82821
-1.47661
3.04891
-1.23826
2.17566
-0.638137
0.947391
-0.0496969
-0.00208041
0.373836
-0.0093078
0.940433
-0.0191194
1.36593
-0.0311689
1.69576
-0.0462126
2.01109
-0.0655194
2.32985
-0.0911641
2.68696
-0.125703
3.08428
-0.174263
3.51743
-0.244187
3.97979
-0.367166
3.82804
-0.675709
3.65013
-1.2301
4.7316
-1.49691
5.28419
-1.55792
4.64145
-1.53831
3.8086
-1.33721
2.84782
-0.790367
1.62881
-0.112243
0.269267
-0.16194
-0.00143331
0.375269
-0.00821406
0.947214
-0.0182447
1.37596
-0.0311761
1.70869
-0.0473628
2.02728
-0.067901
2.35039
-0.0952706
2.71433
-0.132554
3.12156
-0.184438
3.56932
-0.2612
4.05656
-0.408161
3.975
-0.775738
4.01771
-1.31141
5.26728
-1.49169
5.46447
-1.52257
4.67233
-1.43685
3.72288
-1.10896
2.51993
-0.320156
0.840006
0.0273051
-0.0781934
-0.134635
-0.000567918
0.375837
-0.00672184
0.953368
-0.0170922
1.38633
-0.0304602
1.72206
-0.04714
2.04396
-0.0688718
2.37212
-0.0980264
2.74348
-0.137532
3.16107
-0.19253
3.62431
-0.278651
4.14268
-0.451547
4.1479
-0.878557
4.44472
-1.35125
5.73997
-1.47128
5.58449
-1.47705
4.6781
-1.26147
3.5073
-0.699284
1.95775
-0.0648662
0.205588
0.0319496
-0.175009
-0.102685
0.000963435
0.374874
-0.00386166
0.958193
-0.0142032
1.39667
-0.0284414
1.73629
-0.0460532
2.06157
-0.0688461
2.39492
-0.0993873
2.77402
-0.141051
3.20273
-0.198435
3.6817
-0.292455
4.2367
-0.491379
4.34682
-0.968619
4.92196
-1.35046
6.12182
-1.41804
5.65207
-1.37641
4.63647
-1.08763
3.21853
-0.335807
1.20593
-0.000626233
-0.129593
0.0128435
-0.188479
-0.0898419
0.00310192
0.371772
0.000189227
0.961105
-0.0107003
1.40756
-0.025073
1.75067
-0.0425976
2.0791
-0.0662887
2.41861
-0.0981362
2.80587
-0.141276
3.24587
-0.201526
3.74195
-0.303712
4.33888
-0.525321
4.56843
-1.02626
5.4229
-1.30724
6.4028
-1.34879
5.69361
-1.22052
4.5082
-0.792312
2.79032
-0.0825187
0.496133
0.0465807
-0.258692
0.0263059
-0.168204
-0.0635359
0.00533018
0.366442
0.004008
0.962428
-0.00515913
1.41673
-0.0191817
1.76469
-0.0372751
2.09719
-0.0615969
2.44293
-0.0940284
2.8383
-0.138317
3.29016
-0.200031
3.80366
-0.308876
4.44773
-0.55842
4.81798
-1.04558
5.91006
-1.24297
6.60019
-1.25921
5.70985
-1.04891
4.2979
-0.473448
2.21486
-0.00494284
0.0276286
0.00771913
-0.271354
0.0135075
-0.173992
-0.0500285
0.00833745
0.358104
0.00962913
0.961136
0.00227649
1.42408
-0.0107532
1.77772
-0.0283997
2.11484
-0.0527214
2.46725
-0.0853547
2.87094
-0.129499
3.33431
-0.192689
3.86685
-0.307257
4.5623
-0.572617
5.08334
-1.01838
6.35582
-1.14475
6.72656
-1.13267
5.69776
-0.887386
4.05262
-0.281285
1.60876
-0.0645195
-0.189136
-0.0375657
-0.298308
-0.0109676
-0.200591
-0.060996
0.0122466
0.345857
0.0178323
0.95555
0.0133533
1.42856
0.00232771
1.78875
-0.0162242
2.13339
-0.0398958
2.49092
-0.0713905
2.90243
-0.114915
3.37783
-0.177272
3.92921
-0.293824
4.67885
-0.566332
5.35585
-0.949662
6.73915
-1.02324
6.80013
-0.966941
5.64146
-0.7054
3.79108
-0.125628
1.02899
-0.0559281
-0.258836
-0.038684
-0.315552
-0.0142966
-0.224978
-0.0752926
0.0178583
0.327999
0.0289847
0.944424
0.0272874
1.43026
0.017244
1.79879
0.00100173
2.14963
-0.020083
2.51201
-0.0498466
2.93219
-0.0910198
3.419
-0.150947
3.98914
-0.266097
4.794
-0.51877
5.60852
-0.827902
7.04829
-0.868964
6.8412
-0.775353
5.54785
-0.467098
3.48282
0.000552899
0.561336
0.02542
-0.283703
0.0136344
-0.303766
0.00297173
-0.214315
-0.0723209
0.0245627
0.303436
0.0433639
0.925623
0.0470561
1.42656
0.0399412
1.8059
0.0270469
2.16252
0.00738567
2.53167
-0.0197462
2.95933
-0.0569286
3.45619
-0.111965
4.04417
-0.217043
4.89908
-0.434509
5.82598
-0.658646
7.27242
-0.706263
6.88881
-0.599275
5.44087
-0.261035
3.14458
0.0550674
0.245234
0.0501771
-0.278813
0.0498847
-0.303474
0.029013
-0.193444
-0.0433079
0.0334735
0.269963
0.0622158
0.89688
0.0721896
1.41659
0.0695952
1.8085
0.0607539
2.17137
0.0447038
2.54772
0.021991
2.98204
-0.0103099
3.48849
-0.0572994
4.09116
-0.143263
4.98504
-0.307119
5.98984
-0.449615
7.41492
-0.494316
6.93352
-0.435267
5.38182
-0.146004
2.85532
-0.0157938
0.115024
-0.00782323
-0.286783
0.0227679
-0.334065
0.0363218
-0.206997
-0.00698609
0.0431027
0.22686
0.0851217
0.854861
0.105259
1.39645
0.109314
1.80444
0.104932
2.17575
0.0931384
2.55951
0.0768809
2.9983
0.0534643
3.5119
0.0151314
4.12949
-0.0347537
5.03493
-0.137443
6.09253
-0.21853
7.49601
-0.258357
6.97334
-0.318812
5.44227
-0.264457
2.80097
-0.470552
0.321119
-0.464658
-0.292678
-0.300553
-0.49817
-0.100322
-0.407228
-0.107308
0.0539324
0.172928
0.113287
0.795506
0.146846
1.36289
0.158633
1.79266
0.160842
2.17354
0.155163
2.56519
0.146905
3.00656
0.13412
3.52469
0.117495
4.14612
0.093983
5.05844
0.102531
6.08398
0.101659
7.49688
0.017681
7.05732
-0.157579
5.61753
-0.434321
3.07771
-0.791699
0.678497
-0.786837
-0.29754
-0.589262
-0.695745
-0.270069
-0.726421
-0.377378
0.0577807
0.115147
0.142587
0.7107
0.196043
1.30944
0.221377
1.76732
0.232505
2.16241
0.234016
2.56368
0.234509
3.00606
0.235031
3.52416
0.24072
4.14043
0.256833
5.04232
0.367234
5.97358
0.503564
7.36055
0.518252
7.04263
0.458421
5.67736
0.0990053
3.43712
-0.399075
1.17658
-0.687746
-0.00886852
-0.65754
-0.725951
-0.347175
-1.03679
-0.724553
0.0508976
0.0642496
0.171142
0.590455
0.255831
1.22475
0.296396
1.72676
0.317533
2.14127
0.329301
2.55191
0.339719
2.99564
0.355954
3.50793
0.388434
4.10795
0.456078
4.97468
0.720383
5.70928
1.14797
6.93296
1.53071
6.6599
1.84499
5.36308
1.59286
3.68925
0.926535
1.8429
0.37975
0.537917
0.0339355
-0.380137
-0.110196
-0.892654
-0.834749
0.0369633
0.0272863
0.200997
0.426421
0.31763
1.10812
0.3872
1.65719
0.423952
2.10452
0.447872
2.52799
0.46599
2.97753
0.495652
3.47827
0.555423
4.04818
0.688154
4.84195
1.07883
5.31859
1.78411
6.22768
2.19014
6.25387
2.43098
5.12225
2.31149
3.80873
1.82856
2.32583
1.33272
1.03376
0.814702
0.13788
0.305189
-0.383141
-0.529559
0.0309677
-0.00368139
0.221653
0.235736
0.397607
0.932163
0.493078
1.56172
0.542284
2.05531
0.579352
2.49092
0.608048
2.94883
0.651434
3.43488
0.732861
3.96675
0.894063
4.68075
1.29255
4.9201
2.06221
5.45803
2.475
5.84108
2.6897
4.90754
2.64837
3.85006
2.19975
2.77445
1.5827
1.65081
0.95643
0.764148
0.426733
0.146556
-0.102826
0.0280115
-0.0316929
0.184579
0.0791689
0.450949
0.665793
0.612743
1.39992
0.688584
1.97947
0.734387
2.44512
0.771428
2.91179
0.810902
3.39541
0.877443
3.90021
1.01507
4.54311
1.2734
4.66178
1.93636
4.79507
2.30614
5.4713
2.42357
4.79011
2.35817
3.91547
2.06411
3.06851
1.54325
2.17167
0.976378
1.33102
0.404516
0.718417
0.30169
0.0152374
-0.0469303
0.10383
-0.00942402
0.403353
0.36627
0.607064
1.19621
0.703108
1.88343
0.733729
2.4145
0.745101
2.90042
0.737005
3.4035
0.730036
3.90718
0.756038
4.51711
0.821813
4.596
1.08549
4.5314
1.32125
5.23554
1.31997
4.79139
1.24193
3.99351
1.08614
3.2243
0.817369
2.44045
0.50841
1.63998
0.209025
1.0178
0.510715
0.00378717
-0.0507175
0.0500921
-0.055729
0.250318
0.166045
0.449275
0.997253
0.546234
1.78647
0.580398
2.38034
0.597357
2.88346
0.594143
3.40672
0.587681
3.91364
0.585457
4.51934
0.612888
4.56857
0.770768
4.37352
0.963971
5.04233
0.961972
4.79339
0.885871
4.06961
0.763293
3.34687
0.577158
2.62658
0.346466
1.87067
0.132804
1.23146
0.643519
0.0232989
-0.0740164
0.0674625
-0.0998926
0.152404
0.0811034
0.299979
0.849678
0.387381
1.69907
0.425982
2.34173
0.444722
2.86472
0.453343
3.3981
0.455374
3.91161
0.450072
4.52464
0.451753
4.56689
0.543744
4.28153
0.678026
4.90805
0.675256
4.79616
0.602917
4.14195
0.504629
3.44516
0.374634
2.75658
0.217662
2.02764
0.0722939
1.37683
0.715813
0.0331208
-0.107137
0.0700313
-0.136803
0.0756911
0.0754437
0.144785
0.780585
0.214497
1.62936
0.263634
2.2926
0.293678
2.83467
0.315944
3.37583
0.328996
3.89856
0.331936
4.5217
0.323937
4.57489
0.36891
4.23656
0.456299
4.82066
0.453819
4.79864
0.396852
4.19891
0.322108
3.51991
0.227953
2.85073
0.116778
2.13882
0.0218555
1.47175
0.737668
0.0255741
-0.132711
0.0347238
-0.145953
-0.00785622
0.118024
-0.00405423
0.776783
0.0455929
1.57971
0.0996885
2.2385
0.148385
2.78598
0.186637
3.33758
0.216953
3.86825
0.231767
4.50688
0.223685
4.58297
0.242229
4.21801
0.293281
4.76961
0.284103
4.80782
0.238173
4.24484
0.179143
3.57894
0.113524
2.91635
0.0434495
2.20889
-0.0113269
1.52653
0.726341
0.00192383
-0.134635
-0.0316788