/*--------------------------------*- C++ -*----------------------------------*\
  =========                 |
  \\      /  F ield         | OpenFOAM: The Open Source CFD Toolbox
   \\    /   O peration     | Website:  https://openfoam.org
    \\  /    A nd           | Version:  9
     \\/     M anipulation  |
\*---------------------------------------------------------------------------*/
FoamFile
{
    format      ascii;
    class       volVectorField;
    location    "41";
    object      U;
}
// * * * * * * * * * * * * * * * * * * * * * * * * * * * * * * * * * * * * * //

dimensions      [0 1 -1 0 0 0 0];

internalField   nonuniform List<vector> 
2200
(
(0.878858 -0.0304147 0)
(1.0058 -0.0512844 0)
(1.00332 -0.0353931 0)
(1.00031 -0.0244459 0)
(0.999867 -0.0166684 0)
(1.00001 -0.0107348 0)
(1.00005 -0.00688254 0)
(1.00004 -0.00425804 0)
(1.00005 -0.00229509 0)
(1.00017 -0.00070737 0)
(1.00005 0.000899072 0)
(1.00006 0.00254392 0)
(1.00006 0.00453159 0)
(1.00002 0.0071132 0)
(1.00004 0.0108738 0)
(0.999879 0.0167036 0)
(1.00025 0.0244342 0)
(1.00349 0.03502 0)
(1.00594 0.0513631 0)
(0.878994 0.0303329 0)
(0.71196 -0.0327695 0)
(0.996621 -0.0630348 0)
(1.03326 -0.0562101 0)
(1.02484 -0.0464814 0)
(1.01588 -0.0361892 0)
(1.00962 -0.0264419 0)
(1.00583 -0.018166 0)
(1.00369 -0.0114287 0)
(1.00251 -0.0060549 0)
(1.00197 -0.00156 0)
(1.00197 0.0026339 0)
(1.00248 0.00700072 0)
(1.0036 0.0121538 0)
(1.00569 0.0187686 0)
(1.00941 0.0271081 0)
(1.01564 0.0368351 0)
(1.02469 0.0472614 0)
(1.03305 0.0575921 0)
(0.996641 0.0631531 0)
(0.71177 0.0329835 0)
(0.535502 -0.0238948 0)
(0.969855 -0.0569408 0)
(1.0564 -0.0547288 0)
(1.05224 -0.0487618 0)
(1.03626 -0.040459 0)
(1.0245 -0.0323254 0)
(1.01593 -0.0240704 0)
(1.01043 -0.0162188 0)
(1.00725 -0.00898266 0)
(1.00577 -0.00243698 0)
(1.0057 0.00391525 0)
(1.00706 0.0103856 0)
(1.01017 0.0175038 0)
(1.01578 0.0252479 0)
(1.02428 0.0332667 0)
(1.03605 0.0412432 0)
(1.05204 0.0493153 0)
(1.05633 0.0536754 0)
(0.969226 0.0575485 0)
(0.534457 0.0239302 0)
(0.39218 -0.013661 0)
(0.911675 -0.0464358 0)
(1.05738 -0.0469772 0)
(1.06943 -0.0444104 0)
(1.05476 -0.0382731 0)
(1.03928 -0.0316503 0)
(1.02757 -0.0248342 0)
(1.01904 -0.0175865 0)
(1.01363 -0.0100835 0)
(1.01094 -0.00251006 0)
(1.01083 0.00510982 0)
(1.01332 0.012541 0)
(1.01863 0.0198009 0)
(1.02686 0.0266882 0)
(1.03846 0.033014 0)
(1.05405 0.0394455 0)
(1.06848 0.0454894 0)
(1.05575 0.0480935 0)
(0.910117 0.0469171 0)
(0.390192 0.0137502 0)
(0.307457 -0.0045282 0)
(0.846467 -0.0324302 0)
(1.04925 -0.0400295 0)
(1.07935 -0.0382673 0)
(1.06806 -0.0336177 0)
(1.05155 -0.0280041 0)
(1.03825 -0.0227071 0)
(1.02805 -0.0167183 0)
(1.021 -0.00987265 0)
(1.0172 -0.00235587 0)
(1.01698 0.00543243 0)
(1.02044 0.0127434 0)
(1.02718 0.0192904 0)
(1.03723 0.0249271 0)
(1.05039 0.0300538 0)
(1.06674 0.0353929 0)
(1.07776 0.0398192 0)
(1.04729 0.041467 0)
(0.843271 0.0328933 0)
(0.304212 0.00470096 0)
(0.263976 9.98234e-05 0)
(0.788684 -0.0200908 0)
(1.03324 -0.031505 0)
(1.08349 -0.0321033 0)
(1.07727 -0.0288459 0)
(1.06077 -0.0239354 0)
(1.04714 -0.0194593 0)
(1.03629 -0.0144547 0)
(1.02847 -0.00845624 0)
(1.02406 -0.0014784 0)
(1.02378 0.00584735 0)
(1.02766 0.0125393 0)
(1.03498 0.0180659 0)
(1.04547 0.0227044 0)
(1.05877 0.0265383 0)
(1.07511 0.0310704 0)
(1.0808 0.0338596 0)
(1.02981 0.0330409 0)
(0.783544 0.0206446 0)
(0.259514 8.51672e-05 0)
(0.239971 0.001061 0)
(0.73787 -0.0123213 0)
(1.0133 -0.0251 0)
(1.08377 -0.0269345 0)
(1.08281 -0.0247113 0)
(1.06766 -0.0205972 0)
(1.05404 -0.0166298 0)
(1.04325 -0.0121702 0)
(1.03519 -0.00689566 0)
(1.03036 -0.000656941 0)
(1.02988 0.00597416 0)
(1.03386 0.0118858 0)
(1.0414 0.016704 0)
(1.05168 0.020605 0)
(1.06523 0.0242164 0)
(1.08001 0.0277358 0)
(1.08045 0.029424 0)
(1.0082 0.0269743 0)
(0.729999 0.0130449 0)
(0.234003 -0.000863006 0)
(0.225526 0.000941619 0)
(0.694768 -0.00811625 0)
(0.992551 -0.0209065 0)
(1.08187 -0.0233444 0)
(1.0866 -0.0215794 0)
(1.07311 -0.0181438 0)
(1.05962 -0.0143727 0)
(1.04901 -0.0100825 0)
(1.04107 -0.00512426 0)
(1.03624 0.000522583 0)
(1.03571 0.00640077 0)
(1.03946 0.0115627 0)
(1.04647 0.0158839 0)
(1.0565 0.0195044 0)
(1.06956 0.0225498 0)
(1.08236 0.0252647 0)
(1.07634 0.0262655 0)
(0.984456 0.0230668 0)
(0.683643 0.00898486 0)
(0.217884 -0.000737053 0)
(0.215799 0.000606871 0)
(0.659106 -0.00572852 0)
(0.971848 -0.0178024 0)
(1.07895 -0.0205336 0)
(1.08966 -0.0190308 0)
(1.07778 -0.0159955 0)
(1.06449 -0.0124781 0)
(1.0541 -0.00834203 0)
(1.0463 -0.00363082 0)
(1.04129 0.00161175 0)
(1.04031 0.00687523 0)
(1.04382 0.0117175 0)
(1.05061 0.0155848 0)
(1.06024 0.0188225 0)
(1.07306 0.0215441 0)
(1.08413 0.0237692 0)
(1.07193 0.0243571 0)
(0.960956 0.0204976 0)
(0.644163 0.00685528 0)
(0.206068 -0.000375493 0)
(0.208518 0.000296068 0)
(0.630307 -0.00423472 0)
(0.95239 -0.0150385 0)
(1.07551 -0.0180136 0)
(1.09269 -0.0168133 0)
(1.08221 -0.0140387 0)
(1.06886 -0.0105658 0)
(1.05853 -0.00661209 0)
(1.05085 -0.00205422 0)
(1.04604 0.00293278 0)
(1.04514 0.00781027 0)
(1.0481 0.0121179 0)
(1.05415 0.0157057 0)
(1.06334 0.0186423 0)
(1.07598 0.0210618 0)
(1.08497 0.022782 0)
(1.06505 0.0228714 0)
(0.936776 0.0184212 0)
(0.610301 0.00563849 0)
(0.196158 -7.82707e-06 0)
(0.202693 8.36619e-05 0)
(0.607136 -0.0031638 0)
(0.934963 -0.0126562 0)
(1.07235 -0.0157991 0)
(1.09557 -0.0146905 0)
(1.08661 -0.0120436 0)
(1.07322 -0.00873237 0)
(1.0626 -0.00498192 0)
(1.05463 -0.000667642 0)
(1.04933 0.00409192 0)
(1.0477 0.00889002 0)
(1.05038 0.0129443 0)
(1.05668 0.0161126 0)
(1.06601 0.0185718 0)
(1.07838 0.0207005 0)
(1.08584 0.0221483 0)
(1.05921 0.0217794 0)
(0.914376 0.016672 0)
(0.58139 0.00486371 0)
(0.187177 0.000259165 0)
(0.197931 1.60251e-06 0)
(0.588335 -0.00231188 0)
(0.918245 -0.0103807 0)
(1.06894 -0.0136693 0)
(1.09903 -0.0127303 0)
(1.09132 -0.0100654 0)
(1.07751 -0.0065914 0)
(1.06648 -0.00290224 0)
(1.05816 0.00124456 0)
(1.0528 0.00585443 0)
(1.0512 0.0104971 0)
(1.05352 0.0141333 0)
(1.05908 0.0167829 0)
(1.06834 0.0189634 0)
(1.08096 0.0207895 0)
(1.0859 0.0217554 0)
(1.05035 0.0208316 0)
(0.890749 0.0151623 0)
(0.555383 0.0043881 0)
(0.178571 0.000433165 0)
(0.194497 1.22825e-05 0)
(0.57423 -0.00146327 0)
(0.904903 -0.00787227 0)
(1.06628 -0.0109486 0)
(1.10211 -0.0100702 0)
(1.09601 -0.00764448 0)
(1.08219 -0.00435411 0)
(1.07075 -0.000788966 0)
(1.06203 0.00340096 0)
(1.05608 0.00788312 0)
(1.05354 0.0121814 0)
(1.05537 0.015493 0)
(1.06151 0.0179057 0)
(1.07083 0.0195766 0)
(1.08284 0.0211518 0)
(1.08546 0.0215517 0)
(1.04314 0.0201147 0)
(0.869587 0.0139569 0)
(0.532925 0.00404936 0)
(0.170522 0.000516489 0)
(0.192414 5.10829e-05 0)
(0.563995 -0.000689276 0)
(0.892419 -0.0057771 0)
(1.06318 -0.00855714 0)
(1.10548 -0.00760568 0)
(1.10091 -0.00502181 0)
(1.08699 -0.00177129 0)
(1.07515 0.00184303 0)
(1.06593 0.00585771 0)
(1.05952 0.0102115 0)
(1.05676 0.0142304 0)
(1.05806 0.0173259 0)
(1.06303 0.0192881 0)
(1.07237 0.0205905 0)
(1.08374 0.0212819 0)
(1.084 0.0214751 0)
(1.03162 0.0194993 0)
(0.846041 0.0128639 0)
(0.511421 0.00381575 0)
(0.162563 0.000547794 0)
(0.191716 6.54786e-05 0)
(0.556687 -9.00504e-05 0)
(0.883246 -0.0034285 0)
(1.06145 -0.00571963 0)
(1.10856 -0.00451466 0)
(1.10541 -0.00198775 0)
(1.09176 0.00146626 0)
(1.07964 0.00509877 0)
(1.06976 0.00929257 0)
(1.06232 0.0135363 0)
(1.05865 0.0170428 0)
(1.05974 0.0193615 0)
(1.06529 0.0207634 0)
(1.07413 0.0216107 0)
(1.08408 0.0220614 0)
(1.08199 0.0217314 0)
(1.0225 0.0192534 0)
(0.825877 0.0122585 0)
(0.492734 0.0037618 0)
(0.155154 0.000575297 0)
(0.192379 -5.26764e-05 0)
(0.553734 0.000953413 0)
(0.876665 -0.00135796 0)
(1.0603 -0.00302126 0)
(1.11248 -0.00140961 0)
(1.11059 0.0016189 0)
(1.09692 0.0051151 0)
(1.08458 0.00912978 0)
(1.07433 0.0131213 0)
(1.0662 0.0168973 0)
(1.06172 0.0197548 0)
(1.06182 0.0217709 0)
(1.06586 0.0227026 0)
(1.07432 0.0230727 0)
(1.08355 0.023264 0)
(1.0778 0.022581 0)
(1.00867 0.0193192 0)
(0.802089 0.0119666 0)
(0.473044 0.00383643 0)
(0.147203 0.000632052 0)
(0.194581 0.000305485 0)
(0.554499 0.00158454 0)
(0.873048 0.00132623 0)
(1.06132 0.000566254 0)
(1.11706 0.00252047 0)
(1.11598 0.00547402 0)
(1.10229 0.00943666 0)
(1.08956 0.0133823 0)
(1.0786 0.0176391 0)
(1.06957 0.0216665 0)
(1.06427 0.0244793 0)
(1.06349 0.0255944 0)
(1.06735 0.0258481 0)
(1.07503 0.0256794 0)
(1.08261 0.0248974 0)
(1.07424 0.023314 0)
(0.997758 0.0196361 0)
(0.782409 0.0119081 0)
(0.455929 0.00393907 0)
(0.139629 0.00067181 0)
(0.198772 0.000676291 0)
(0.557888 0.00246318 0)
(0.874039 0.00389199 0)
(1.06309 0.00386185 0)
(1.12198 0.00640911 0)
(1.12199 0.0100443 0)
(1.10779 0.0140235 0)
(1.09423 0.0184229 0)
(1.08242 0.0227977 0)
(1.07227 0.0266052 0)
(1.06506 0.028951 0)
(1.06263 0.0297755 0)
(1.06517 0.0294013 0)
(1.07293 0.0284733 0)
(1.07984 0.0274181 0)
(1.06741 0.0250982 0)
(0.980927 0.0204548 0)
(0.757353 0.0119864 0)
(0.436111 0.00411537 0)
(0.131012 0.000715416 0)
(0.205824 0.000851978 0)
(0.566236 0.00381044 0)
(0.878644 0.00662838 0)
(1.06759 0.00843608 0)
(1.12785 0.0116411 0)
(1.12831 0.0152886 0)
(1.11345 0.0200117 0)
(1.09861 0.024625 0)
(1.08517 0.0292989 0)
(1.07325 0.033495 0)
(1.06535 0.0359393 0)
(1.0628 0.036004 0)
(1.06535 0.0345338 0)
(1.07202 0.0325133 0)
(1.0766 0.0300185 0)
(1.06045 0.0268763 0)
(0.966591 0.0214103 0)
(0.736716 0.0124161 0)
(0.41881 0.00444529 0)
(0.122792 0.000761164 0)
(0.214617 0.0010274 0)
(0.578865 0.00515463 0)
(0.888037 0.0101026 0)
(1.07435 0.0133803 0)
(1.13466 0.0171817 0)
(1.13577 0.0219655 0)
(1.11999 0.0271621 0)
(1.10413 0.0324841 0)
(1.08937 0.0374659 0)
(1.07565 0.0412274 0)
(1.06495 0.042361 0)
(1.0595 0.0411974 0)
(1.0601 0.0390574 0)
(1.0667 0.0364517 0)
(1.07096 0.0339183 0)
(1.05018 0.0296594 0)
(0.946146 0.0228249 0)
(0.709505 0.0131937 0)
(0.397178 0.00487919 0)
(0.112914 0.000794656 0)
(0.227881 0.0014318 0)
(0.599723 0.00715051 0)
(0.904774 0.0147058 0)
(1.08509 0.0199784 0)
(1.1434 0.0248394 0)
(1.14442 0.0297466 0)
(1.12793 0.0357621 0)
(1.11079 0.0417398 0)
(1.09425 0.0472237 0)
(1.07829 0.0512446 0)
(1.06579 0.052293 0)
(1.06033 0.0509878 0)
(1.06025 0.0475764 0)
(1.06471 0.0431669 0)
(1.06471 0.0384363 0)
(1.03872 0.0328799 0)
(0.927502 0.0250593 0)
(0.686553 0.0146835 0)
(0.377316 0.00557105 0)
(0.103185 0.000837108 0)
(0.244161 0.00200633 0)
(0.625214 0.00879348 0)
(0.926624 0.0188642 0)
(1.09928 0.0262362 0)
(1.15396 0.0322979 0)
(1.1547 0.0391949 0)
(1.1366 0.0462357 0)
(1.1178 0.0531452 0)
(1.0992 0.0591796 0)
(1.08077 0.0630144 0)
(1.06512 0.0626726 0)
(1.0552 0.0592015 0)
(1.05191 0.0544426 0)
(1.05539 0.0494812 0)
(1.05623 0.0446997 0)
(1.02463 0.0378172 0)
(0.902353 0.028266 0)
(0.654739 0.0167982 0)
(0.350401 0.00632884 0)
(0.0909278 0.000869975 0)
(0.266788 0.00285087 0)
(0.659855 0.0125824 0)
(0.955625 0.0253519 0)
(1.11802 0.0353983 0)
(1.1673 0.0433482 0)
(1.16633 0.0514077 0)
(1.14618 0.0597585 0)
(1.12465 0.067617 0)
(1.10274 0.0740646 0)
(1.08063 0.077539 0)
(1.0624 0.0767074 0)
(1.05254 0.0726366 0)
(1.05009 0.0667729 0)
(1.05163 0.059733 0)
(1.04543 0.0524957 0)
(1.00684 0.0436682 0)
(0.876987 0.0327153 0)
(0.625259 0.0196257 0)
(0.323894 0.00732167 0)
(0.0785595 0.000917066 0)
(0.298527 0.00374121 0)
(0.706225 0.015671 0)
(0.994317 0.0332711 0)
(1.14276 0.0465933 0)
(1.18393 0.056511 0)
(1.18044 0.0675381 0)
(1.15664 0.0775434 0)
(1.13183 0.0861637 0)
(1.10644 0.0923636 0)
(1.08101 0.094624 0)
(1.05929 0.0914863 0)
(1.04477 0.0847215 0)
(1.03736 0.0763847 0)
(1.03676 0.0682221 0)
(1.0324 0.0608294 0)
(0.987373 0.0509084 0)
(0.844201 0.037747 0)
(0.583595 0.0226935 0)
(0.287632 0.0080937 0)
(0.0630327 0.000908548 0)
(0.335134 0.00722608 0)
(0.764677 0.0248148 0)
(1.04194 0.0462263 0)
(1.17325 0.0634692 0)
(1.20537 0.0763176 0)
(1.19675 0.0896363 0)
(1.16862 0.100649 0)
(1.13955 0.109402 0)
(1.10966 0.114908 0)
(1.0793 0.11548 0)
(1.05364 0.110473 0)
(1.03821 0.101667 0)
(1.03252 0.0923271 0)
(1.03135 0.0823844 0)
(1.01713 0.0717643 0)
(0.961932 0.059022 0)
(0.808882 0.0438201 0)
(0.542857 0.0259085 0)
(0.252716 0.00895811 0)
(0.0483181 0.000788801 0)
(0.416148 0.0108748 0)
(0.851247 0.0358478 0)
(1.10561 0.0665401 0)
(1.2116 0.088594 0)
(1.23059 0.10332 6.89296e-34)
(1.21503 0.119535 -3.08266e-34)
(1.18057 0.13051 0)
(1.1465 0.138135 0)
(1.1119 0.141524 0)
(1.07773 0.139326 0)
(1.04868 0.13088 0)
(1.02909 0.119058 0)
(1.01763 0.106611 0)
(1.01121 0.0941434 0)
(0.99833 0.0832069 0)
(0.934559 0.069151 0)
(0.763544 0.0503643 0)
(0.485755 0.0291031 0)
(0.204173 0.00890645 0)
(0.0299666 0.000708282 0)
(0.487201 0.0261223 5.23237e-20)
(0.951816 0.0594152 -3.95464e-20)
(1.17341 0.100263 0)
(1.25084 0.125648 3.01844e-20)
(1.25826 0.141731 -2.44693e-20)
(1.23241 0.159111 3.25245e-34)
(1.19115 0.168252 0)
(1.15149 0.174019 1.70656e-20)
(1.1113 0.175243 -5.59025e-20)
(1.07121 0.170431 1.13715e-20)
(1.03676 0.158886 0)
(1.01498 0.144258 -2.85907e-20)
(1.00548 0.13004 -3.41634e-20)
(1.00105 0.117271 5.9718e-20)
(0.972796 0.1023 -4.71591e-20)
(0.888199 0.0824148 0)
(0.697665 0.0585918 -1.70518e-20)
(0.412082 0.0312418 0)
(0.150641 0.00955099 -9.38895e-20)
(0.012227 0.000817383 1.10699e-19)
(0.522142 0.0538551 -6.82364e-21)
(1.01385 0.102656 1.21703e-19)
(1.22229 0.150391 -7.75415e-21)
(1.2842 0.173308 -7.67368e-20)
(1.28237 0.190799 -5.1851e-20)
(1.24727 0.206116 8.4256e-20)
(1.1997 0.2127 0)
(1.15427 0.216048 0)
(1.10836 0.214446 8.91404e-20)
(1.06311 0.2062 0)
(1.02478 0.192111 1.03716e-19)
(0.998205 0.175443 3.06761e-20)
(0.981184 0.160026 3.6104e-22)
(0.964086 0.142559 -6.52924e-20)
(0.935445 0.125809 0)
(0.843724 0.10393 0)
(0.642536 0.0722654 -2.79252e-19)
(0.364094 0.0390743 6.9998e-19)
(0.130042 0.0117688 -4.15246e-19)
(0.00497154 0.00103284 -4.89469e-19)
(0.529152 0.076412 -7.46041e-20)
(1.0499 0.159438 2.78942e-20)
(1.25809 0.210847 1.45811e-20)
(1.31065 0.232134 1.34364e-19)
(1.30125 0.247789 1.42789e-20)
(1.25852 0.258742 -2.20299e-19)
(1.20517 0.261522 7.46254e-20)
(1.15395 0.261809 0)
(1.10205 0.257269 -1.88885e-19)
(1.05097 0.247239 1.66513e-19)
(1.00651 0.230295 -2.79953e-19)
(0.975849 0.21125 1.31075e-19)
(0.957691 0.193077 -8.46911e-20)
(0.944773 0.176333 1.90805e-19)
(0.904371 0.156299 0)
(0.805179 0.127078 -6.98435e-20)
(0.611064 0.0893704 0)
(0.354209 0.0475073 3.86313e-19)
(0.1306 0.0175083 -9.16608e-19)
(0.00783371 0.000692313 5.74152e-19)
(0.522567 0.10824 2.2308e-19)
(1.06819 0.216158 -9.64569e-20)
(1.27953 0.276077 -1.99485e-20)
(1.3281 0.296691 0)
(1.31342 0.309777 -9.8649e-20)
(1.26538 0.315332 1.2137e-19)
(1.20759 0.31346 -7.98433e-20)
(1.15166 0.309979 0)
(1.09565 0.301769 1.34295e-19)
(1.04023 0.286978 -1.17111e-19)
(0.991489 0.266208 2.42724e-19)
(0.956926 0.246733 0)
(0.931816 0.226897 -1.8005e-19)
(0.905251 0.205652 1.01533e-19)
(0.869868 0.184208 2.56049e-19)
(0.777874 0.155584 -2.25275e-19)
(0.596195 0.112966 3.59995e-19)
(0.356012 0.0645436 -7.96675e-19)
(0.144544 0.025932 5.0313e-19)
(0.0165648 0.00285533 -6.29457e-19)
(0.510042 0.132457 -8.70351e-20)
(1.07443 0.270187 6.27574e-20)
(1.28993 0.341719 -6.59027e-20)
(1.33737 0.361671 1.26594e-19)
(1.3192 0.372481 -1.16711e-19)
(1.26753 0.373254 3.88463e-20)
(1.20607 0.367033 3.659e-21)
(1.14588 0.359623 -1.54098e-19)
(1.08458 0.347586 -1.41019e-19)
(1.02305 0.329746 -2.51577e-19)
(0.970154 0.308536 -5.21784e-19)
(0.931155 0.283559 -1.60294e-19)
(0.904303 0.261496 2.41097e-21)
(0.885987 0.24168 -3.47231e-19)
(0.841794 0.218839 -6.27321e-21)
(0.748026 0.182496 3.27606e-19)
(0.579001 0.135236 -9.90308e-20)
(0.357808 0.0816539 -5.75544e-20)
(0.157689 0.0360363 0)
(0.0250904 0.00587212 1.33739e-18)
(0.492662 0.153105 0)
(1.06818 0.320074 -9.16248e-21)
(1.29228 0.40539 -1.35711e-20)
(1.33984 0.425902 -1.27215e-20)
(1.31907 0.43506 1.14552e-19)
(1.26498 0.431202 -8.97299e-20)
(1.20101 0.420825 8.74874e-20)
(1.1379 0.40954 2.5255e-19)
(1.07417 0.393404 -7.82441e-20)
(1.01167 0.371692 1.24996e-19)
(0.955259 0.343294 2.80414e-19)
(0.911643 0.317507 3.49136e-19)
(0.880018 0.294016 -2.09809e-19)
(0.846911 0.270461 3.75491e-19)
(0.809462 0.245353 -2.97308e-19)
(0.727883 0.213077 0)
(0.573711 0.161129 -7.51107e-19)
(0.366167 0.102048 1.011e-18)
(0.172041 0.0483272 7.54565e-20)
(0.0335951 0.00971659 -1.4111e-18)
(0.478009 0.17333 -5.13586e-21)
(1.05925 0.367969 3.73892e-20)
(1.28902 0.465833 9.97439e-20)
(1.33733 0.487218 -1.19217e-19)
(1.31458 0.495188 9.26495e-20)
(1.25888 0.487635 -8.78804e-20)
(1.19307 0.473772 1.74411e-19)
(1.12754 0.458701 -7.67669e-20)
(1.06036 0.438889 -3.16624e-19)
(0.991138 0.413375 5.89078e-23)
(0.92899 0.383349 -3.04182e-19)
(0.884163 0.353908 -3.74797e-19)
(0.853427 0.327541 2.31111e-19)
(0.830148 0.30425 -1.34976e-19)
(0.785723 0.278828 3.22369e-19)
(0.703212 0.238531 0)
(0.558983 0.185676 -4.64978e-19)
(0.36742 0.121005 6.86679e-19)
(0.181058 0.0603349 1.3017e-18)
(0.0395341 0.0134634 -1.5314e-18)
(0.463512 0.190769 1.55896e-21)
(1.04636 0.412553 -7.65262e-21)
(1.28192 0.523586 -7.50792e-20)
(1.33081 0.546479 1.24209e-19)
(1.30646 0.553558 1.1776e-20)
(1.24966 0.542351 -1.7369e-19)
(1.18247 0.525178 -1.00249e-19)
(1.11498 0.506868 -9.65181e-20)
(1.0455 0.483681 -1.7761e-19)
(0.975442 0.454076 2.86324e-19)
(0.914308 0.419941 3.08319e-19)
(0.866218 0.38705 5.94864e-19)
(0.828128 0.360376 0)
(0.79348 0.330892 6.03821e-21)
(0.757646 0.303478 -8.82924e-19)
(0.686243 0.268822 2.05613e-19)
(0.552645 0.210598 1.00246e-18)
(0.370305 0.141351 -2.95672e-19)
(0.187786 0.0720066 6.16884e-19)
(0.0437022 0.0169942 -5.14737e-20)
(0.453854 0.209205 5.86982e-21)
(1.03428 0.4553 1.82346e-20)
(1.2723 0.578191 -4.05953e-20)
(1.32162 0.602427 1.52898e-19)
(1.29595 0.608636 -2.02891e-19)
(1.23836 0.594575 1.73814e-19)
(1.1702 0.57487 1.03912e-19)
(1.10135 0.553436 2.89912e-19)
(1.03021 0.526973 3.58547e-19)
(0.957498 0.494299 -3.28303e-19)
(0.889811 0.457174 0)
(0.838985 0.420356 -2.23913e-19)
(0.805113 0.38745 2.57074e-19)
(0.777915 0.36231 3.23025e-19)
(0.735943 0.334056 -1.86733e-19)
(0.661805 0.290686 -4.55663e-19)
(0.535051 0.233218 -1.36169e-19)
(0.363777 0.157511 -1.47675e-21)
(0.186895 0.0814714 0)
(0.0449289 0.0191968 0)
(0.445443 0.224691 -4.50711e-20)
(1.02155 0.49535 0)
(1.26083 0.629877 -2.74559e-20)
(1.31017 0.655954 -1.73822e-21)
(1.28345 0.661458 2.26742e-19)
(1.22538 0.644558 -5.83369e-20)
(1.15658 0.622245 1.05571e-19)
(1.08674 0.598152 -1.9685e-19)
(1.01358 0.56871 2.71998e-19)
(0.937617 0.532662 -1.06301e-19)
(0.868648 0.48962 1.7606e-19)
(0.818706 0.449403 7.09517e-19)
(0.779728 0.41825 1.39718e-20)
(0.743729 0.386354 -3.36896e-19)
(0.708099 0.354453 6.22799e-19)
(0.643474 0.31815 4.26124e-21)
(0.52384 0.253524 1.45681e-19)
(0.356686 0.172901 -6.95394e-19)
(0.181568 0.0884963 7.13091e-19)
(0.0437976 0.0205906 -8.43246e-19)
(0.438825 0.243275 2.58574e-23)
(1.00967 0.533681 0)
(1.24855 0.678567 0)
(1.29753 0.706368 -1.31656e-20)
(1.26989 0.710933 -7.00444e-20)
(1.21145 0.691722 8.33267e-20)
(1.14215 0.667482 -1.99774e-19)
(1.07119 0.641039 0)
(0.996566 0.609227 -4.00384e-19)
(0.919678 0.570146 4.74491e-19)
(0.850603 0.524892 4.99338e-19)
(0.794317 0.482976 -2.60257e-19)
(0.754916 0.444522 -3.13634e-19)
(0.728134 0.413759 7.34787e-19)
(0.687176 0.382994 -2.21141e-19)
(0.61949 0.334185 -2.64156e-19)
(0.504186 0.271214 -1.5827e-19)
(0.345585 0.184339 -7.494e-19)
(0.174762 0.0927785 1.0863e-19)
(0.0411312 0.0214203 9.10007e-19)
(0.434935 0.2617 -2.58865e-20)
(0.998509 0.569831 -3.03878e-20)
(1.23531 0.724153 2.35541e-20)
(1.28376 0.754057 -1.38273e-22)
(1.25543 0.758077 -6.29818e-20)
(1.19675 0.736659 1.41323e-19)
(1.12705 0.710378 0)
(1.05538 0.681779 1.17921e-19)
(0.979503 0.647471 -9.29823e-20)
(0.89964 0.605233 7.90492e-19)
(0.823967 0.556154 -1.13883e-19)
(0.767717 0.508384 1.29161e-19)
(0.730804 0.470429 0)
(0.692932 0.434623 -3.97533e-19)
(0.66018 0.397726 4.80614e-19)
(0.600348 0.357874 0)
(0.489903 0.285062 -3.41537e-19)
(0.331559 0.19389 1.00383e-18)
(0.16507 0.0950184 1.18287e-19)
(0.0372656 0.0213276 -1.11977e-18)
(0.43278 0.278531 -7.02609e-20)
(0.988624 0.604493 9.05713e-20)
(1.22214 0.767308 0)
(1.26971 0.798857 -9.98853e-21)
(1.2407 0.802069 0)
(1.18183 0.778828 -1.76431e-19)
(1.11197 0.751076 0)
(1.03977 0.720719 0)
(0.962731 0.684779 -1.21171e-19)
(0.881188 0.641013 -7.50898e-19)
(0.80655 0.589434 -9.21851e-19)
(0.750004 0.539308 1.50313e-19)
(0.703745 0.494548 5.41059e-19)
(0.677658 0.457506 4.36999e-19)
(0.639286 0.422906 -1.54197e-18)
(0.575943 0.36775 -6.1966e-19)
(0.466965 0.297397 3.62593e-19)
(0.315397 0.198521 0)
(0.154565 0.0954237 1.01735e-18)
(0.0331032 0.0203306 -1.20618e-18)
(0.431333 0.29417 8.76653e-20)
(0.978732 0.636709 -1.08379e-19)
(1.20867 0.807271 0)
(1.25531 0.840845 -1.08535e-20)
(1.22578 0.843765 1.02584e-20)
(1.16685 0.818897 0)
(1.09684 0.789519 6.09302e-20)
(1.02394 0.757451 8.0432e-20)
(0.94532 0.719453 -2.29472e-19)
(0.861248 0.672679 1.00097e-19)
(0.78076 0.617235 0)
(0.718052 0.562979 6.22838e-19)
(0.679911 0.51741 4.71317e-21)
(0.641984 0.475838 2.35675e-19)
(0.610357 0.431693 2.79812e-19)
(0.554773 0.386461 0)
(0.450333 0.304451 -5.94155e-19)
(0.298571 0.202024 1.16653e-18)
(0.143414 0.0941852 -1.23408e-18)
(0.0289743 0.0189603 2.59754e-18)
(0.430246 0.309135 0)
(0.969985 0.668071 0)
(1.19582 0.845241 -5.02845e-20)
(1.24117 0.880288 0)
(1.21106 0.882568 0)
(1.15205 0.856311 -1.53183e-19)
(1.08198 0.82586 6.25089e-20)
(1.00857 0.792455 1.75236e-20)
(0.92884 0.753347 -5.29542e-20)
(0.842949 0.706031 0)
(0.762337 0.649994 -1.39645e-19)
(0.700903 0.592142 -5.07812e-19)
(0.651272 0.540218 -6.10234e-19)
(0.624613 0.49424 -2.44909e-19)
(0.588561 0.453092 3.03415e-19)
(0.529726 0.388821 -7.15605e-19)
(0.425634 0.310559 1.27854e-18)
(0.280469 0.200674 3.23612e-21)
(0.132279 0.0915967 -1.18477e-18)
(0.0253581 0.0173557 -1.7525e-19)
(0.429215 0.323796 0)
(0.961248 0.697313 -9.05749e-20)
(1.18305 0.880278 6.4221e-20)
(1.22714 0.917096 0)
(1.19655 0.919236 0)
(1.13753 0.891804 3.10565e-19)
(1.06734 0.860098 0)
(0.99329 0.825422 0)
(0.912324 0.784857 -5.02951e-19)
(0.824644 0.735227 1.36736e-19)
(0.738959 0.675009 -1.24061e-18)
(0.669318 0.61499 0)
(0.626694 0.561591 -6.60763e-19)
(0.586817 0.51061 1.07878e-20)
(0.556931 0.454519 -9.73903e-19)
(0.506311 0.401337 3.85217e-19)
(0.40919 0.308886 2.05748e-21)
(0.265694 0.198364 -1.34748e-18)
(0.123221 0.0880273 6.39123e-19)
(0.0219375 0.0156521 1.87523e-19)
(0.428349 0.338086 0)
(0.953688 0.725912 -1.32916e-19)
(1.17104 0.913771 6.78674e-20)
(1.21361 0.951741 6.85624e-20)
(1.18248 0.953316 -2.24914e-20)
(1.12339 0.924847 3.24928e-20)
(1.05324 0.892398 -4.04866e-20)
(0.978966 0.856748 4.93827e-19)
(0.897224 0.815504 5.38016e-19)
(0.807287 0.765917 1.04581e-18)
(0.719436 0.706375 1.03094e-18)
(0.65093 0.644219 1.80466e-19)
(0.596116 0.582886 9.50577e-19)
(0.566817 0.525496 5.85727e-19)
(0.532364 0.472402 6.9918e-19)
(0.47971 0.393404 -4.22075e-19)
(0.384166 0.305264 -4.92681e-19)
(0.250979 0.187116 5.77038e-19)
(0.116992 0.0856508 -3.42428e-19)
(0.0234193 0.0200363 6.06961e-19)
(0.427502 0.351956 1.91456e-19)
(0.946097 0.752343 2.07323e-19)
(1.15914 0.944603 4.05982e-20)
(1.20035 0.983968 1.62327e-20)
(1.1688 0.985447 3.94298e-20)
(1.1098 0.956146 -8.67656e-20)
(1.03971 0.922799 3.95691e-20)
(0.964975 0.886263 -2.06113e-20)
(0.881894 0.843916 -6.25862e-19)
(0.790037 0.792527 -1.13411e-18)
(0.699257 0.730154 7.17486e-20)
(0.622223 0.665512 0)
(0.571358 0.604685 0)
(0.525183 0.54225 -3.05222e-19)
(0.494494 0.467112 -1.14235e-18)
(0.450954 0.396922 9.09129e-19)
(0.371734 0.283594 5.39714e-19)
(0.256163 0.16934 0)
(0.128881 0.0613677 1.0919e-18)
(0.0170013 -0.00481961 -6.49182e-19)
(0.4268 0.365189 -1.0135e-19)
(0.939411 0.778029 9.01541e-20)
(1.14797 0.974144 -1.00303e-19)
(1.18769 1.01434 -7.31545e-20)
(1.15571 1.01526 -1.92794e-21)
(1.09672 0.985176 -2.71738e-20)
(1.02679 0.951371 0)
(0.95187 0.914178 -6.20734e-19)
(0.868085 0.8714 7.70983e-20)
(0.774571 0.820567 0)
(0.681127 0.76043 0)
(0.602934 0.695263 1.14325e-19)
(0.538106 0.626696 1.53058e-19)
(0.501459 0.555742 -3.29155e-19)
(0.46338 0.484843 8.20174e-19)
(0.414419 0.375592 -9.90292e-19)
(0.337409 0.263395 -1.15431e-18)
(0.254882 0.146384 1.02135e-18)
(0.178239 0.0974755 -3.89581e-19)
(0.113459 0.0815137 2.26915e-19)
(0.425933 0.377673 1.30209e-19)
(0.932551 0.801555 0)
(1.13691 1.00119 0)
(1.17537 1.04247 -1.84521e-20)
(1.14308 1.04331 1.4938e-20)
(1.08428 1.01262 -2.09247e-20)
(1.01449 0.978196 1.71591e-19)
(0.939227 0.940441 6.38948e-19)
(0.854482 0.897036 1.13634e-18)
(0.759651 0.845146 -8.48502e-20)
(0.663229 0.782656 1.74572e-19)
(0.577174 0.715797 -1.02293e-18)
(0.515709 0.650207 -1.01468e-18)
(0.45511 0.576998 -1.76331e-19)
(0.411607 0.476021 0)
(0.370115 0.38064 -8.95188e-21)
(0.308412 0.199443 6.33892e-19)
(0.272341 0.0454051 -1.07028e-18)
(0.233108 -0.0778461 8.14152e-19)
(0.0821928 -0.096493 6.76676e-19)
(0.425102 0.389658 -2.8881e-19)
(0.926337 0.824396 -1.31417e-19)
(1.12649 1.02726 6.90169e-21)
(1.16359 1.06921 4.77033e-20)
(1.13094 1.06958 0)
(1.07214 1.03835 -1.08775e-19)
(1.00253 1.00376 -2.43857e-19)
(0.927212 0.96576 3.78211e-22)
(0.842081 0.922371 -5.95949e-19)
(0.745373 0.871275 -8.32257e-20)
(0.645339 0.811572 7.73015e-20)
(0.558846 0.747676 8.98297e-19)
(0.478731 0.676162 9.90506e-19)
(0.427548 0.593025 1.71338e-19)
(0.374229 0.505267 8.75876e-19)
(0.299028 0.352646 0)
(0.183238 0.186116 0)
(0.0120343 0.220154 7.39231e-19)
(-0.0765924 0.629248 -3.10895e-20)
(0.00546363 1.53099 -9.04041e-19)
(0.424033 0.401033 1.60107e-19)
(0.92 0.845448 3.63235e-19)
(1.11614 1.05127 -4.87875e-19)
(1.15203 1.09426 2.33569e-19)
(1.11904 1.09477 -7.09551e-22)
(1.06041 1.06332 -6.79796e-20)
(0.990924 1.02856 0)
(0.915363 0.990533 -5.34593e-19)
(0.829283 0.947222 0)
(0.73131 0.89603 1.17877e-18)
(0.62941 0.835546 -9.31744e-20)
(0.53356 0.770678 1.04474e-19)
(0.459484 0.705637 1.12969e-18)
(0.37403 0.630868 -3.70665e-19)
(0.282582 0.506815 -4.46336e-19)
(0.202778 0.410538 0)
(0.0935671 0.523467 0)
(0.0278818 1.31288 0)
(0.0734874 2.45551 -4.20307e-19)
(0.101739 2.90703 -2.57957e-19)
(0.422896 0.411818 0)
(0.914208 0.865801 0)
(1.10641 1.07454 1.78874e-19)
(1.14104 1.11823 -1.8832e-19)
(1.10769 1.11849 7.1448e-20)
(1.04902 1.08684 7.16749e-20)
(0.979698 1.05233 3.10299e-20)
(0.904102 1.01462 -2.41594e-20)
(0.817731 0.971936 8.34712e-20)
(0.717982 0.92221 -1.35284e-18)
(0.611691 0.865065 1.69516e-19)
(0.51629 0.805917 8.94185e-19)
(0.419122 0.740718 -1.12609e-18)
(0.345344 0.651102 -1.22955e-18)
(0.269291 0.569779 4.14372e-19)
(0.196038 0.698521 0)
(0.127284 1.54115 5.77796e-19)
(0.127223 2.68803 6.39621e-19)
(0.135233 3.08612 -7.15427e-19)
(0.126469 3.22132 7.72413e-19)
(0.421512 0.42218 0)
(0.908327 0.884433 3.27577e-19)
(1.09678 1.0958 -4.46009e-20)
(1.13032 1.14053 2.73285e-19)
(1.09662 1.14116 -7.49963e-20)
(1.03814 1.10962 0)
(0.968943 1.07529 0)
(0.893157 1.03794 0)
(0.805934 0.995936 4.76602e-19)
(0.705351 0.947176 6.30179e-20)
(0.598447 0.890987 0)
(0.493296 0.832545 -8.90004e-19)
(0.409799 0.774269 0)
(0.295673 0.702978 8.80571e-19)
(0.208448 0.773271 -5.91582e-19)
(0.159591 1.45843 -4.7659e-19)
(0.161602 2.67635 -1.1231e-18)
(0.182782 3.12661 -5.93684e-19)
(0.173498 3.26827 -8.13556e-19)
(0.159148 3.30869 6.28219e-19)
(0.420157 0.431715 -1.1533e-19)
(0.902926 0.902381 1.53585e-20)
(1.08778 1.1165 -5.00907e-20)
(1.12021 1.16198 -2.09376e-19)
(1.08616 1.16254 0)
(1.02763 1.13106 0)
(0.958566 1.09728 0)
(0.882764 1.06064 3.71244e-20)
(0.795449 1.01976 -6.01867e-19)
(0.69337 0.973088 0)
(0.581921 0.920365 0)
(0.48056 0.868947 0)
(0.366191 0.812417 0)
(0.30643 0.793833 6.42317e-19)
(0.274657 1.17354 1.5791e-18)
(0.25498 2.37311 4.69094e-19)
(0.267091 3.08299 9.50621e-19)
(0.261374 3.28509 -7.30566e-19)
(0.212101 3.35127 2.71355e-19)
(0.179168 3.36388 0)
(0.4186 0.440943 1.19126e-19)
(0.897263 0.919199 -7.32328e-19)
(1.0786 1.13582 -1.94717e-19)
(1.11011 1.18239 -4.19744e-20)
(1.07573 1.18353 1.69543e-20)
(1.01742 1.15239 -2.87967e-20)
(0.948499 1.11901 -6.99832e-21)
(0.872604 1.08298 -4.28336e-19)
(0.784688 1.04323 0)
(0.682401 0.998331 -7.87252e-20)
(0.57241 0.948382 7.16156e-20)
(0.461415 0.89838 0)
(0.377025 0.85691 0)
(0.320326 0.977847 -8.03133e-19)
(0.278753 1.85286 9.95862e-20)
(0.274559 2.94076 -3.53189e-19)
(0.295722 3.28963 7.38621e-19)
(0.268622 3.38872 5.40853e-19)
(0.202329 3.41335 -7.41728e-19)
(0.177278 3.42261 3.68867e-19)
(0.416775 0.450321 2.35706e-19)
(0.891464 0.936854 7.16893e-19)
(1.06929 1.15643 2.3282e-19)
(1.09983 1.20373 0)
(1.06518 1.20478 0)
(1.00688 1.1737 2.34051e-20)
(0.938177 1.14093 9.8535e-20)
(0.862471 1.10576 3.82683e-19)
(0.774811 1.06732 2.42483e-20)
(0.671479 1.0248 1.01645e-18)
(0.557114 0.978027 -1.18379e-18)
(0.447454 0.932176 0)
(0.368385 0.930929 0)
(0.337962 1.34186 -5.4825e-19)
(0.340226 2.47943 -6.58801e-19)
(0.382585 3.1988 0)
(0.407285 3.37277 -7.52587e-19)
(0.337441 3.43591 4.5051e-20)
(0.266883 3.48036 3.67372e-19)
(0.243925 3.50576 -1.24773e-19)
(0.414474 0.460127 -4.49568e-19)
(0.884715 0.954883 -3.44972e-19)
(1.05879 1.17711 0)
(1.0885 1.22543 0)
(1.05365 1.22708 0)
(0.995764 1.19625 0)
(0.927422 1.16375 -1.13162e-19)
(0.851903 1.12904 3.44994e-19)
(0.764042 1.0917 0)
(0.661434 1.05128 -9.26015e-19)
(0.55135 1.00868 2.12516e-18)
(0.4438 0.974152 8.62988e-20)
(0.389927 1.05934 1.13488e-19)
(0.389972 1.74597 8.95386e-19)
(0.405985 2.89674 -4.82421e-19)
(0.443425 3.32277 0)
(0.426286 3.44764 2.11269e-19)
(0.340228 3.53563 9.30768e-20)
(0.262917 3.60016 1.47718e-19)
(0.187615 3.57971 -4.43706e-21)
(0.411726 0.470293 2.14467e-19)
(0.877423 0.974373 -3.55364e-19)
(1.04778 1.19995 0)
(1.07663 1.24878 -6.06412e-20)
(1.04162 1.25005 2.04089e-19)
(0.983891 1.219 0)
(0.916035 1.18693 0)
(0.841093 1.15298 -6.02395e-19)
(0.754034 1.11683 -6.03377e-20)
(0.65125 1.07872 9.12304e-19)
(0.534402 1.03852 -1.01038e-18)
(0.444045 1.01935 5.85472e-19)
(0.405503 1.23196 0)
(0.428476 2.18073 -4.75188e-19)
(0.471066 3.14556 3.10841e-19)
(0.533293 3.42739 1.96535e-19)
(0.526004 3.52461 0)
(0.462209 3.60782 -3.58242e-20)
(0.39085 3.64981 -4.11496e-19)
(0.309508 3.62094 -9.52586e-20)
(0.408267 0.480807 -4.30417e-19)
(0.868937 0.994353 5.09645e-19)
(1.0353 1.22266 3.48278e-19)
(1.06346 1.27228 -8.58054e-20)