/*--------------------------------*- C++ -*----------------------------------*\
  =========                 |
  \\      /  F ield         | OpenFOAM: The Open Source CFD Toolbox
   \\    /   O peration     | Website:  https://openfoam.org
    \\  /    A nd           | Version:  9
     \\/     M anipulation  |
\*---------------------------------------------------------------------------*/
FoamFile
{
    format      ascii;
    class       volScalarField;
    location    "20";
    object      p;
}
// * * * * * * * * * * * * * * * * * * * * * * * * * * * * * * * * * * * * * //

dimensions      [0 2 -2 0 0 0 0];

internalField   nonuniform List<scalar> 
918
(
0.213396
0.895902
0.0191578
0.212305
0.000123506
0.863022
-0.851091
0.390974
0.193412
-0.471794
-0.0775088
0.182451
0.723441
0.490513
-1.47866
0.00581648
0.346446
-0.732837
0.192095
0.000492936
0.46764
0.200162
0.203162
0.193728
0.253085
0.480894
0.603874
0.00736117
-0.000500558
0.000371034
0.0065259
-0.00529494
-0.000635245
0.746656
0.797753
0.820409
0.162375
-0.0105957
-0.700926
-0.778439
-0.76179
-0.902245
0.379182
0.384208
-0.502747
0.393474
0.409344
0.181014
0.19266
0.193481
0.194956
0.193775
0.195207
0.157628
-0.471878
-0.494975
-0.456123
-0.443525
-0.0967707
-0.113985
-0.160699
-0.0509294
-0.0361878
0.11891
0.179381
0.177845
0.187687
0.197466
0.835449
0.807346
0.833483
0.747195
0.763705
0.701395
0.673886
0.51066
0.531778
0.475634
0.465791
-1.92254
-2.8973
-0.87602
-0.616534
0.000373202
0.0063177
0.00694709
0.332747
0.340364
0.344445
0.357454
0.735253
-0.716195
-0.861652
0.192223
0.190881
0.199477
0.20014
0.196128
0.195232
0.00982391
0.0139481
-0.00957352
0.00149226
-0.00266603
0.450988
0.44503
0.194271
0.19133
0.205251
0.227759
0.216337
-0.0378063
0.263748
0.285093
0.286568
0.46394
0.460842
0.468698
0.577344
0.540064
0.64132
0.66461
0.015534
0.00447416
-0.0019435
0.000416336
-0.00170314
0.158554
0.151622
0.175404
0.166031
0.168183
-0.0942975
-0.229403
0.0731257
0.0965659
-0.608855
-0.676337
-0.78438
-0.798417
-0.912709
0.214513
0.368952
0.371413
-0.520859
-0.436298
-0.582981
-0.361512
-0.432556
0.171748
0.178449
0.173659
0.188543
0.183191
0.185111
0.196788
0.193869
0.19547
0.186139
0.300068
0.0921652
0.0318884
-0.599849
-0.498536
-0.585766
-0.432062
-0.383985
-0.0951338
-0.103867
-0.107357
-0.0578633
-0.345301
-0.219552
-0.284227
-0.0191351
-0.012403
0.111864
0.10298
0.128607
0.134806
0.171216
0.172092
0.175274
0.173139
0.624638
0.646962
0.65449
0.628311
-3.91048
-6.73737
-0.281764
-0.138136
0.00293396
0.00357517
0.00293263
0.00633089
0.00319902
0.000575944
-0.011037
-0.00554598
0.00650853
0.00362628
0.318501
0.322613
0.654154
0.653387
0.644849
0.620258
0.180178
0.182267
0.187829
0.183723
0.00153712
0.0128431
0.00633738
0.411979
0.431227
0.428123
-0.0733965
-0.160549
0.00890064
0.0356184
0.305375
0.289955
0.306819
0.349712
0.386831
0.672031
0.690368
0.688654
0.697169
0.741242
0.757683
0.72293
0.13946
0.147865
0.143378
0.179194
0.17672
0.177783
0.171854
0.174169
0.171158
-0.383323
-0.770178
0.16615
0.179341
0.139831
0.148564
0.303217
0.375731
0.352545
0.360407
0.365009
-0.297967
-0.362968
0.00425142
-0.0224602
0.0608429
0.09216
0.0760944
0.595662
0.5564
0.606254
0.579753
0.541253
0.566861
-0.721892
-2.25394
-1.35383
0.226876
0.0320981
0.123276
-0.0340101
-0.0340751
-0.0246956
0.633182
0.712615
0.349536
0.505361
0.526386
0.428582
0.460488
0.512805
0.437261
0.472432
0.509018
0.491797
0.172909
0.169337
0.15057
0.446119
0.501628
-0.186399
-0.235999
-0.290809
-0.10387
-0.0558628
-0.0837122
0.683842
0.567487
0.646671
0.191159
0.19182
0.013834
0.0196791
0.195561
0.195416
0.00734099
0.00575801
0.104277
-1.19028
-0.194846
0.18386
0.174719
0.191308
-0.455037
0.0388856
-0.117319
-0.0627895
0.0770286
0.181648
0.128759
0.0956425
0.0063783
0.015119
-0.00472403
-0.533065
0.188791
0.187134
0.19089
0.19194
0.192603
0.00689523
0.00932889
0.00632684
0.000319725
0.00540341
0.00243131
0.156927
0.171418
-0.500786
0.190834
0.193078
0.192709
0.185763
0.191336
0.189682
0.0128374
0.00711726
0.00204976
-0.0864919
0.027918
0.362043
0.470467
0.315145
0.0863602
-0.158391
0.257225
0.326573
0.223173
0.390792
0.355281
0.379061
-0.134833
-0.280675
-0.12534
-0.181216
0.181792
0.180427
0.172998
0.170331
0.186471
0.184597
0.188853
0.185781
0.188573
0.190246
-0.475539
-0.439212
-0.440393
-0.473099
-0.0138752
0.265796
-0.0980061
0.0166798
-0.112371
-0.0897807
-0.0595899
-0.187817
-0.230257
-0.192143
0.0294033
-0.0109518
-0.0878213
0.0695218
-0.00715268
-0.142502
-0.0247023
-0.0869793
0.175943
0.172751
0.18157
0.18822
0.136656
0.138161
0.111007
0.126993
0.11523
0.059756
0.092994
0.0708072
0.00812162
0.00838171
0.00652807
0.0185268
0.0144413
0.00931719
0.0101657
0.0138611
0.00616576
0.00701549
-0.00246809
0.00630958
-0.50412
-0.621913
0.639043
0.617537
-0.184961
0.178011
0.184433
0.181262
0.185973
0.188971
0.189762
0.187623
0.184177
0.172418
0.17451
0.170544
0.171086
-0.444042
-0.577356
-0.399984
-0.46173
-0.203632
0.296224
0.040544
-0.0187468
-0.0225954
0.186651
0.58018
0.389653
0.422817
0.450245
-0.689053
-0.285892
-0.618717
-0.000577776
-0.181616
0.359307
0.412745
0.437402
0.382197
0.33047
-0.457015
0.187445
-0.377682
-0.33632
-0.148895
-0.246487
0.408494
0.339868
0.345344
0.370007
0.394645
0.345634
0.324271
0.322209
0.359175
0.363123
0.160944
-0.0543015
-0.10003
-0.13572
0.328553
0.200556
0.255882
0.174635
0.176361
0.17943
0.177901
0.16135
0.168544
0.164439
0.1694
0.172265
0.182043
0.181946
0.177581
0.179851
-0.436089
-0.438273
-0.42832
-0.466211
-0.469833
-0.533164
-0.417694
-0.286754
-0.378043
-0.0555232
0.0104517
-0.282068
-0.414183
-0.374209
-0.357945
-0.132797
-0.0961402
-0.475789
-0.120659
-0.341343
-0.376346
-0.0976526
-0.0410179
-0.19006
-0.256779
-0.331749
-0.226246
-0.12473
-0.16656
-0.179864
-0.0165723
-0.0620509
-0.0451147
-0.018488
-0.398629
-0.387117
-0.356221
-0.503102
0.0128792
0.0150877
0.0150872
0.00638516
0.0153692
0.0102569
0.170317
0.170268
0.169929
0.184261
0.196175
0.211437
0.178032
0.155672
0.14789
0.149756
0.12628
0.134195
0.131163
0.143079
0.160317
0.168252
0.167244
0.169527
0.154002
0.154843
0.144465
0.148199
0.127194
0.110051
0.100428
0.010855
0.00834584
0.00938262
0.00883116
0.011467
0.0118168
0.0239281
0.01995
0.0211068
0.0188706
0.00738511
0.0155502
0.0116938
-0.424423
-0.353138
-0.528284
-0.564604
-0.631351
0.55503
0.662977
0.498128
0.26686
0.273823
0.492997
0.59155
0.251533
0.428216
0.464591
0.17598
0.46275
0.182676
0.181946
0.179634
0.179183
0.180427
-0.351063
-0.252007
-0.240594
-0.189233
-0.0734329
0.0399971
-0.0389594
-0.175805
-0.0303273
-0.0132916
0.290778
0.304585
0.249042
0.275768
0.275726
0.102226
0.176291
0.231077
0.187516
0.228482
0.250529
0.213992
0.242475
0.189227
0.149314
0.148545
0.0967086
0.115843
0.0936673
0.0767905
0.172053
0.152171
0.160738
0.154243
0.172661
0.201224
0.19566
0.218841
0.232324
0.159678
0.122351
0.130203
0.156574
0.12184
0.13398
0.147708
-0.136867
-0.236377
-0.149107
-0.44543
-0.350664
-0.36618
-0.412076
-0.377291
-0.0906346
-0.796805
-0.760247
-1.39881
0.12428
0.610717
0.360706
0.331423
0.392657
0.368555
0.371014
0.405411
0.41143
0.31875
0.330541
0.336998
0.288582
0.313528
0.345441
0.340742
0.168456
0.0524062
0.0403046
0.00809738
-0.111278
-0.0818783
0.117536
0.0413518
-0.0288752
-0.0217434
0.136836
0.0320002
0.0938022
0.131089
0.0638861
0.0229658
0.217122
0.28652
0.276941
0.248575
0.164263
0.176804
0.200936
0.237646
0.263886
0.297338
0.169819
0.175091
0.176215
0.173921
0.171567
0.17398
0.173808
0.176444
0.177372
0.180035
0.17912
-0.307862
-0.358638
-0.418944
-0.35806
-0.552768
-0.535509
-0.425113
-0.442471
-0.46653
-0.538719
-0.543834
-0.494179
-0.444139
-0.42334
-0.36933
-0.285965
-0.260792
-0.35172
-0.0524
0.0748379
0.130807
0.0142355
-0.0854925
-0.075367
-0.0465042
-0.375767
-0.206578
-0.239158
-0.233349
-0.386587
-0.0790837
-0.0654715
-0.0718019
-0.0734826
-0.110747
-0.0453695
0.00482489
-0.00327373
-0.0138653
-0.00406997
0.00418326
0.159768
0.15304
0.150686
0.147126
0.146775
0.155947
0.160701
0.163478
0.168993
0.169494
0.160935
0.165429
0.168215
0.018061
0.0133371
0.0176712
0.00151784
0.0085107
0.0128806
0.00565801
-0.243757
-0.290994
-0.290516
-0.336901
-0.468825
-0.407617
0.128156
0.098944
0.136757
0.333064
0.188169
0.107646
0.177967
0.286597
-0.0907263
0.106025
-0.0614272
0.531663
0.41622
0.556121
0.182822
-0.117002
0.0236556
0.0799943
-0.114403
-0.043757
-0.0198325
-0.129506
-0.0959604
-0.067898
0.0306132
-0.088279
-0.118534
-0.36028
-0.173942
-0.0494561
-0.0707369
0.0579522
0.119606
-0.0983049
-0.182152
-0.224935
0.279668
0.298487
0.315613
0.287438
0.311626
0.236284
0.228419
0.246405
0.257266
0.250565
-1.13172
-0.843923
-1.7833
-1.09339
-0.65115
0.152226
0.108889
0.398347
0.293803
0.375918
0.359331
0.319961
0.28193
0.289903
0.32809
0.031391
0.136842
0.111759
0.119289
0.0253613
-0.0386805
0.25152
0.246505
0.281378
0.305218
0.275488
0.306632
0.167851
0.167161
0.167415
0.164056
0.163006
0.16381
-0.506929
-0.543164
-0.442592
-0.423566
-0.454674
-0.500345
0.0229919
-0.00307643
-0.00197796
0.002624
0.0290074
0.0231508
-0.198929
-0.260307
-0.324429
-0.306606
-0.353537
-0.420925
-0.437787
-0.335462
-0.243665
-0.255538
0.0495514
0.301528
0.124676
0.299763
0.140299
0.201145
0.138283
0.126485
0.16239
0.029832
0.107037
-0.164939
-0.657826
-0.567679
0.410814
0.432468
0.213496
0.0178433
-0.204256
-0.00483544
0.198888
0.139829
0.179321
0.247014
0.240931
-0.366578
-0.287377
-0.0657296
0.162229
-0.13517
-0.139653
-0.143549
0.0148058
-0.0513184
)
;

boundaryField
{
    wall-4
    {
        type            zeroGradient;
    }
    velocity-inlet-5
    {
        type            zeroGradient;
    }
    velocity-inlet-6
    {
        type            zeroGradient;
    }
    pressure-outlet-7
    {
        type            fixedValue;
        value           uniform 0;
    }
    wall-8
    {
        type            zeroGradient;
    }
    frontAndBackPlanes
    {
        type            empty;
    }
}


// ************************************************************************* //
