/*--------------------------------*- C++ -*----------------------------------*\
  =========                 |
  \\      /  F ield         | OpenFOAM: The Open Source CFD Toolbox
   \\    /   O peration     | Website:  https://openfoam.org
    \\  /    A nd           | Version:  9
     \\/     M anipulation  |
\*---------------------------------------------------------------------------*/
FoamFile
{
    format      ascii;
    class       surfaceScalarField;
    location    "20";
    object      phi;
}
// * * * * * * * * * * * * * * * * * * * * * * * * * * * * * * * * * * * * * //

dimensions      [0 3 -1 0 0 0 0];

internalField   nonuniform List<scalar> 
1300
(
3.75095
5.62643
-5.97188
3.75095
-5.86659
5.62643
-4.55119
4.55119
-1.25106
1.25106
1.87673
1.87422
-2.71513
2.71513
-3.79081
3.79081
-2.65826
2.65826
-5.24644
5.24644
-5.06862
5.06862
4.6838
-4.6838
-4.75716
4.75716
-1.73055
1.73055
-3.86545
3.86545
3.17017
-3.17017
-4.57215
4.57215
-0.43737
0.43737
-0.553365
4.30432
3.19759
3.19759
-2.36248
2.36248
-4.85412
4.85412
6.21824
-6.21824
9.04077
-9.04077
-3.06889
-3.43056
1.32545
-8.24118
-4.54114
-4.54114
-8.44041
8.44041
-2.81398
2.81245
2.94167
-2.94167
-1.75667
1.75667
-4.49259
-0.0586066
-4.49259
4.54443
0.00676133
4.54443
-1.37399
0.122937
-1.37399
4.01177
-4.01177
1.10344
0.147616
1.10344
3.06401
-3.06401
-1.87693
3.75366
1.87402
-1.87159
6.17591
-1.87936
3.75358
-5.78729
5.78729
-3.05296
0.337832
-3.05296
2.55977
0.155364
2.55977
-5.20938
5.20938
-3.37537
-0.415444
-3.37537
4.10615
-0.315335
4.10615
2.88726
-2.88726
-2.69324
0.0349745
-2.69324
2.60671
0.0515567
2.60671
0.35357
5.27286
-5.98
8.79245
-5.27286
0.0264181
5.20847
0.0379768
5.20847
-5.1062
0.0375793
-5.1062
5.00997
0.0586566
5.00997
4.77868
-0.094885
4.77868
-4.79657
0.11277
-4.79657
-3.33678
-3.49014
-4.85254
0.0953778
-4.85254
-1.71131
-0.0192475
-1.71131
1.69927
0.031285
1.69927
-3.4805
3.4805
-4.27099
0.40554
-4.27099
3.1255
0.0446745
3.1255
1.86863
1.88233
5.61958
-5.61958
2.44941
-4.50833
-0.0638187
-4.50833
-4.67134
-4.36942
4.67134
-0.0991939
-0.734575
0.297205
-0.734575
3.15941
0.0381773
3.15941
2.52612
0.0805903
-2.52612
0.16364
3.34282
-3.34282
1.73312
0.629362
1.73312
-5.56982
5.56982
4.95018
0.0597885
-4.95018
0.0960593
6.15753
0.0607158
6.15753
-6.19961
-0.0186328
-6.19961
3.33714
-6.76769
-3.46292
4.65026
0.106907
-4.65026
0.109116
2.90592
0.0357514
2.90592
-2.92203
2.92203
-2.98211
0.0404365
-2.98211
-2.17319
0.416526
-2.17319
1.43843
0.318235
1.43843
-4.35441
-0.138175
-4.35441
-4.45339
0.182395
4.45339
0.0910465
0.934
-0.934
-1.51018
0.13619
-1.51018
-4.16837
-0.186046
4.16837
-0.156597
-3.89826
-0.113508
-3.89826
-3.02243
0.040323
3.02243
0.041582
3.11218
0.0472349
-3.11218
0.0481635
-1.87093
3.75326
-1.88002
3.75404
-5.49635
-0.290936
-5.49635
5.91611
-0.12882
5.91611
3.46647
0.39898
-3.46647
0.413509
2.62879
-0.0690235
2.62879
-5.30208
0.0927
-5.30207
5.14993
0.0594482
5.14993
2.92907
-0.300282
-2.92907
-0.446299
4.30722
-0.201077
4.30722
2.94298
-0.0557177
2.94298
-2.85597
-0.0312899
-2.85597
2.79363
-2.79363
2.72974
0.0638827
-2.72974
0.0365039
-11.1327
11.1141
-0.0350415
-11.0976
5.17342
5.17342
4.20625
0.572431
4.20625
-5.00779
0.211219
-5.00779
3.30319
-6.7661
3.4757
-6.81248
3.47847
-11.7196
3.37537
-6.86551
5.06718
-5.06718
4.95887
0.108305
-4.95887
0.106333
-1.73701
0.025701
-1.73701
-2.85455
-0.625945
-2.85455
4.17736
-0.696865
4.17736
-3.03272
3.03272
-3.0803
0.0475859
3.0803
0.0451963
4.42637
-0.119142
-4.42637
-0.0819647
0.930829
0.172612
-0.930829
0.196254
3.55084
-0.208018
3.55084
-3.1467
-0.19612
-3.1467
-1.74187
0.00486503
1.74187
-0.00875561
-5.8169
0.24708
-5.8169
-11.1907
0.0930525
-11.1527
-6.10656
-6.10656
2.33385
11.1263
-2.86655
0.0105828
2.86655
0.0393679
2.97921
0.0535035
-2.97921
0.0571818
-2.86163
0.068005
2.86163
0.0604007
-2.56207
0.388874
-2.56207
-1.02737
1.02737
-1.20969
0.182329
1.20969
0.228735
1.19173
-0.257734
1.19173
1.61266
0.0866075
-1.61266
0.102477
-3.80646
-0.0917961
-3.80646
5.82339
0.0927195
5.82339
-3.02403
-0.122668
3.02403
-0.0810548
-0.0333024
11.1474
-5.14012
0.03392
5.14012
-11.2081
11.242
-3.24508
0.683017
3.24508
0.961171
5.2948
0.275022
-5.2948
0.287009
5.1467
0.00322356
-5.1467
0.0795241
-2.36185
-0.492702
-2.36185
-4.94413
-0.552216
4.94413
-0.76677
-11.4752
-0.203674
11.6789
-11.4165
6.02057
0.136954
-6.02057
11.3789
-0.90585
-0.0281502
0.90585
0.121516
1.50264
-0.310907
1.50264
3.71894
-0.168101
-3.71894
-0.0875263
-5.55598
0.253908
5.55598
0.267403
-1.92019
-0.441666
1.92019
-0.417544
-4.26634
4.30452
1.90957
-3.27598
-3.49171
-7.6454
1.85238
1.90088
4.30179
-7.25552
-4.46413
-7.1464
7.27335
-6.98634
-9.30266
9.20777
7.5067
-7.62021
-5.78462
5.82981
6.48182
-6.44024
1.87818
1.87548
7.04634
-6.70851
-15.825
15.5341
7.67871
-8.09415
14.5598
-14.4671
-14.457
14.4602
-5.76816
5.80314
-6.64895
6.61766
-6.8295
6.74844
-3.23589
-3.57659
9.51248
-9.4171
11.545
-11.6088
-8.40495
8.81049
3.3824
0.922117
3.42964
-1.88227
3.76044
-1.87132
3.78089
3.48712
-6.72301
3.27899
-6.7707
6.03211
5.51286
-5.93291
-1.71249
-5.89191
5.92766
-5.82233
5.88273
8.94975
-9.00835
-1.88629
3.76177
-1.86775
3.76863
-3.42466
-2.35996
3.37998
0.921808
5.77415
3.73833
-5.88105
-1.26535
-7.71187
7.54377
-7.99847
7.80235
-0.453978
5.82444
-5.37046
4.40014
-1.5537
7.37813
5.71966
5.93088
5.868
-5.59298
1.11834
-6.4888
-6.39274
-2.57448
2.71067
2.58663
-2.43902
5.90846
1.59824
5.75186
-5.49161
-2.1286
-5.5834
3.81941
2.0104
3.867
4.07689
2.40493
4.11721
3.03036
-3.03643
0.00606267
-3.05582
6.08619
0.725341
-5.41578
-4.49397
3.80509
3.24125
3.96045
-5.178
-1.5305
-4.7645
-9.51356
-6.31148
-10.0658
10.2309
5.3032
10.1021
-11.8763
12.1437
5.73886
1.93984
5.42352
-4.39246
-3.70169
-4.83876
11.4971
-0.744481
-10.7527
-8.79682
-5.66013
8.73737
5.82244
8.4679
5.99227
8.54743
3.16088
8.33626
-8.98332
3.32319
-3.85792
-1.91024
-3.82142
3.74301
2.06012
3.79457
-4.15206
-2.49689
-4.14148
-4.19623
-2.63327
4.25195
2.36571
-4.29911
-3.69936
4.42178
2.32667
3.2073
-7.67143
3.65821
-7.2348
-6.76016
-2.65695
-6.65383
4.29716
2.49108
-6.78825
-2.42584
10.909
-5.39616
9.19654
-7.00119
-4.6076
-7.08316
-6.79802
-1.60693
-6.61563
-8.79313
8.30043
-9.08401
8.38715
12.678
-5.62213
-7.05592
-3.96837
-2.47187
3.92021
-0.49057
-3.71152
3.71759
0.0489218
3.82981
4.75193
4.26136
-3.88706
-1.93527
-3.82988
3.82771
2.05502
3.89571
6.76511
2.18464
6.77187
-6.40217
-2.60618
-6.54034
9.08987
-8.67335
2.96844
-2.96357
5.2187
2.58365
-5.01068
-2.70119
6.03452
-3.03032
-3.0042
-12.2228
10.592
1.63085
-4.84468
-0.444544
-0.0071736
-5.51338
-3.78927
5.40061
0.530263
11.1222
7.33296
-5.51386
5.76094
6.16499
6.22478
-0.167963
5.85522
-5.1722
5.26147
-2.26099
-3.00048
5.24994
-5.43599
-1.2904
-5.23503
3.94462
0.315871
1.88555
-1.58835
-2.05629
-0.518191
-1.95381
1.5936
0.993034
1.76621
0.977594
1.73307
-2.9607
0.58301
2.37769
-1.9831
-1.85601
-3.54769
-1.0085
4.55618
5.48921
2.05456
-5.40168
-0.181721
2.73491
-2.70363
-0.68645
-2.86123
2.17418
-2.86063
-3.50447
-1.91048
5.41495
-3.36869
-0.461185
3.31519
0.551812
-3.82094
-2.07097
3.7805
0.336711
-3.12815
6.20554
-3.07739
-5.06342
2.5287
3.55749
4.5391
-4.78964
2.44456
2.34507
-1.23215
3.26263
0.697815
3.19361
-6.70545
5.17494
5.62058
3.18991
-6.01956
1.25507
-5.45038
8.68593
-7.83087
-0.855065
3.66256
5.02337
7.17858
5.49946
-5.76591
12.9445
-1.68226
-6.14861
7.13264
-3.94273
4.88621
-8.82894
-10.3857
4.23707
-10.8069
12.1546
-1.34774
-3.17767
-8.69867
13.9846
-1.49614
-12.4884
8.60595
-6.36368
-3.41382
9.7775
-7.10816
7.1155
-3.43806
-3.67744
-9.85788
-4.60923
9.60397
2.53977
-9.12841
12.4516
-0.792146
5.28458
0.13894
5.08351
5.07475
-5.74223
0.667487
2.03342
-5.47148
3.32722
-9.06945
-5.29072
9.94216
-4.65144
-7.94767
-7.46566
-0.482009
1.64883
10.8028
-7.6411
5.46375
2.17735
3.31147
0.584238
-3.37536
-0.446059
0.345914
4.4896
-4.83551
4.14048
4.22107
3.40031
1.08929
3.79895
2.12871
-3.83832
-0.303159
-4.10235
1.46908
-1.73664
-3.62644
5.09552
-4.04754
0.421101
-2.7023
-3.55484
6.25713
-4.61254
3.05369
3.15185
5.10871
-4.9455
1.39066
-2.4386
-2.5069
2.65688
-4.39352
1.94388
3.15164
4.27055
0.571184
5.15828
4.78388
-7.64936
0.414564
8.52221
-7.25687
2.11007
6.43736
-7.57383
0.108165
-6.54566
0.94286
-6.33902
-5.84539
5.15678
-6.76371
-3.67216
6.16063
0.611242
-6.25168
-0.363953
-5.95976
-2.83337
-6.40142
-3.04944
-6.03458
-8.81534
-1.63991
-7.17543
6.66052
-6.54545
-3.52033
7.31222
1.07493
-7.3531
7.32495
-7.42622
7.11531
0.09506
3.62253
4.35642
1.88455
-2.39038
4.27493
-5.03947
7.22411
-8.44877
3.4093
3.91906
-6.52525
-4.5297
5.02062
4.06925
5.33886
8.9668
-10.5622
1.59544
-10.8724
12.2337
-1.36129
-16.6485
5.77604
-7.68168
2.69896
0.269475
2.72466
0.672872
2.41173
-3.0846
-2.2907
-2.29945
-2.25944
-3.31197
5.57141
1.10545
-3.32358
2.21813
-3.44534
4.55079
-0.0777903
-3.24579
5.22227
-2.81054
5.49175
-3.52313
1.96861
3.22398
5.50523
-2.28125
4.2469
-1.66324
1.76627
-4.04752
-1.5457
-3.0091
5.06923
-3.24803
3.66913
-0.233715
3.90285
-4.00982
0.979493
-0.609511
3.61156
3.7752
4.17033
-3.08104
2.88139
-4.54463
-1.16613
-3.97344
-0.821807
-0.377589
-3.68319
4.06078
6.04702
-6.42461
-5.30788
9.60931
-4.30143
7.73713
-5.43354
-2.3036
-4.28296
-4.39038
3.89409
1.96113
9.69826
0.200637
-5.63417
-4.97157
-4.01039
3.21969
2.04178
-2.07056
3.7014
2.07773
-0.192176
0.583155
1.18306
1.93027
-1.34712
0.209037
1.72124
-1.37931
1.98472
0.750194
-2.07133
0.11752
-1.29236
3.46654
1.08533
-2.07836
0.731242
1.11141
-3.3724
4.6649
-2.37012
-2.29478
5.77631
1.16878
-3.5389
4.06625
-3.75038
2.2678
-3.2763
-1.2711
-5.02148
-3.42324
-2.4536
4.67173
-3.11781
5.17237
1.16726
-4.99065
6.15791
-3.54015
1.62968
-2.98104
3.73123
-1.01064
-1.9704
2.75701
2.65794
-2.87352
0.0122808
-0.116509
2.31541
-2.43191
-0.545222
-2.52833
-4.57045
4.90716
-2.10941
4.55397
2.16552
-1.91138
6.46535
1.81534
-3.72671
-3.24808
-3.70927
-1.38164
3.15746
-1.56519
-3.27358
-5.24262
3.57386
-0.380246
-6.54886
7.06931
-0.520452
-3.30761
-1.86734
5.5299
-6.85737
1.38589
-3.53015
3.53917
4.23698
3.85674
-11.9879
-0.500485
-6.68474
0.884869
-7.56961
5.90823
-3.54169
7.77876
-10.4777
6.9574
-9.4028
6.92369
-0.645918
6.31538
-5.64789
4.43728
-9.04652
-6.50675
6.21231
-4.27247
6.35125
-4.71288
11.0641
-5.50503
7.03469
4.02944
-1.63592
-5.44724
-6.55182
4.9159
0.482875
5.56638
4.94712
-2.81841
4.64396
2.24644
-4.68504
-2.14707
-6.55759
1.87255
-3.40574
-1.91792
3.79047
3.19079
3.77503
1.28357
-3.32897
7.18504
-7.66704
-2.5336
-3.31179
6.65258
-1.73668
4.29404
-7.60583
-2.04498
4.94586
-0.882378
-4.06348
0.676269
-4.34843
1.61539
-5.96382
5.14832
-5.51227
2.18163
-9.86331
-5.17147
-5.04995
-2.25052
-5.1757
-7.66755
5.41703
-1.89151
5.43343
-8.70234
7.81996
-3.53139
8.94842
-5.36766
-1.03376
5.78521
1.3301
10.2785
0.0898026
-4.6195
-1.79587
3.90106
-2.1052
1.42382
-3.59339
0.307676
2.4614
3.3149
-6.40603
-0.119221
-4.73873
-3.90558
7.97484
5.70372
11.7507
1.1885
9.19182
-1.21699
10.3803
4.12187
4.3506
-2.98225
4.57769
1.07853
4.48783
-0.844883
2.8135
1.87978
1.86053
0.843099
2.30542
1.46978
3.28491
0.200308
-2.09915
4.66252
-8.67291
-0.971657
-8.10048
1.10729
5.74821
-4.64092
3.14663
-1.10484
1.04143
0.198012
-1.81338
1.61537
-2.80247
-2.00555
-0.284317
-1.63524
2.36648
1.8313
-2.08216
-0.720306
0.316248
-3.73948
2.96005
-2.94777
-0.289827
5.86808
-2.70403
0.272119
-1.07435
-2.25621
-2.7744
2.65688
6.1853
0.280045
3.10791
5.18721
3.11624
0.297825
4.94318
-6.29092
-4.12628
-6.7914
-0.88317
4.64673
2.83111
7.97166
6.86055
5.12387
-2.48196
-10.149
6.5993
-2.02162
5.23801
-1.17453
-4.78929
4.94862
2.27549
-5.55986
0.0475916
-4.7417
-6.76331
-0.563595
8.38356
-9.71493
8.68117
5.8478
1.32764
-4.36241
-0.687537
4.18008
0.170521
10.5508
-1.13267
-6.90396
8.03664
-4.61554
3.64388
0.904046
2.79735
2.51941
1.41457
-5.4894
-10.1303
-1.80113
-1.57127
-4.0959
0.46028
-2.29158
6.2815
-2.63762
3.9779
5.39902
6.44045
-2.2112
-4.2134
6.51263
-2.53472
3.90573
)
;

boundaryField
{
    wall-4
    {
        type            calculated;
        value           uniform 0;
    }
    velocity-inlet-5
    {
        type            calculated;
        value           uniform -3.75095;
    }
    velocity-inlet-6
    {
        type            calculated;
        value           uniform -5.62643;
    }
    pressure-outlet-7
    {
        type            calculated;
        value           nonuniform List<scalar> 8(5.97188 5.86659 6.49944 6.91573 6.82692 6.80005 6.77889 6.85384);
    }
    wall-8
    {
        type            calculated;
        value           uniform 0;
    }
    frontAndBackPlanes
    {
        type            empty;
        value           nonuniform List<scalar> 0();
    }
}


// ************************************************************************* //
