/*--------------------------------*- C++ -*----------------------------------*\
  =========                 |
  \\      /  F ield         | OpenFOAM: The Open Source CFD Toolbox
   \\    /   O peration     | Website:  https://openfoam.org
    \\  /    A nd           | Version:  9
     \\/     M anipulation  |
\*---------------------------------------------------------------------------*/
FoamFile
{
    format      ascii;
    class       volVectorField;
    location    "20";
    object      U;
}
// * * * * * * * * * * * * * * * * * * * * * * * * * * * * * * * * * * * * * //

dimensions      [0 1 -1 0 0 0 0];

internalField   nonuniform List<vector> 
918
(
(0.985146 -0.000536859 0)
(0.00500271 2.96626 0)
(-0.010015 1.59125 0)
(0.97969 0.002165 0)
(-0.00369963 1.5639 3.53424e-21)
(-0.00703354 2.94878 -1.83129e-18)
(0.85668 1.20183 7.48317e-19)
(0.424006 0.192554 -8.56937e-21)
(0.999906 -0.000330271 0)
(0.0614571 0.790869 0)
(-0.0394459 1.10019 0)
(0.770329 -0.0106425 0)
(0.0111265 2.93035 0)
(0.0015285 2.79496 0)
(-0.0178284 3.16781 1.1023e-18)
(-0.00354734 1.45524 -5.6913e-21)
(0.548229 0.0879725 5.35415e-19)
(0.195529 1.19658 6.63811e-19)
(0.96292 0.00511659 0)
(0.00177008 1.31732 0)
(0.141406 0.251254 -4.62672e-19)
(1.00207 -0.00500119 0)
(1.00024 -0.00973961 0)
(0.975776 -0.00645097 0)
(0.683126 -0.0363973 0)
(0.0178187 2.63196 0)
(-0.0151655 2.91021 6.28979e-19)
(-0.0246851 1.60235 0)
(-0.0281618 1.73298 0)
(-0.0243594 1.59497 0)
(-0.00652685 1.84365 0)
(-0.000166438 1.58743 -2.79559e-21)
(-0.00387843 1.46853 0)
(-0.0206188 2.98759 -6.38965e-23)
(-0.016703 3.0053 1.42344e-18)
(0.00210415 3.0002 0)
(0.870417 -0.00897067 0)
(0.392759 0.929042 -4.28767e-20)
(0.838771 1.21846 -1.05491e-18)
(0.985752 1.05659 9.86349e-19)
(0.70524 1.31368 -1.73652e-19)
(0.701585 1.3008 9.77357e-19)
(0.455693 0.276396 8.36088e-21)
(0.448521 0.177184 0)
(1.16641 0.563558 0)
(0.425909 0.291093 3.93678e-20)
(0.38626 0.195709 -4.0852e-20)
(0.919467 -0.00751562 0)
(1.00031 5.45411e-05 0)
(0.999912 0.000303605 0)
(1.00348 -0.00777724 0)
(1.00094 -0.0010729 0)
(1.00017 -1.514e-05 0)
(0.0215862 1.77887 -2.88402e-19)
(0.0534054 0.926626 0)
(0.0765707 0.891709 0)
(0.000221581 0.849926 0)
(0.00609545 0.736522 0)
(0.0339902 1.5288 0)
(-0.0543157 1.16996 0)
(-0.0539632 0.976052 0)
(-0.0338101 1.28932 0)
(-0.0235111 1.18796 0)
(0.848998 -0.00242215 0)
(0.866536 0.00970061 0)
(0.781776 -0.00401377 0)
(0.860204 0.0155098 0)
(0.755642 -0.0116871 0)
(0.0147011 3.0004 6.69649e-19)
(0.0115219 3.00792 0)
(0.00613103 3.00284 0)
(0.0135479 2.99734 7.45373e-24)
(0.00799229 2.95846 -9.95264e-19)
(0.0144975 2.98207 0)
(0.0108163 2.9036 0)
(0.0247306 2.93043 1.32265e-24)
(0.00424459 2.82535 0)
(0.0316147 2.91572 0)
(-0.00615578 2.74404 0)
(0.311376 3.56821 0)
(-0.132498 3.65046 0)
(0.141053 3.25871 -1.02585e-18)
(-0.0112538 2.99103 0)
(-0.0201161 1.82012 0)
(0.00352074 1.61945 5.61412e-21)
(-0.0034833 1.464 -6.14564e-21)
(0.597085 0.150437 -1.8396e-19)
(0.540094 0.0514701 -1.79899e-19)
(0.584117 0.185952 -5.56046e-19)
(0.531699 0.117429 -3.72656e-19)
(0.210472 0.894386 0)
(0.275967 1.34564 -6.75602e-19)
(0.39449 1.29665 1.11042e-18)
(0.987512 0.00843431 0)
(0.94262 0.00597323 0)
(1.00029 0.000548819 0)
(1.00289 0.00926761 0)
(1.00307 0.00847579 -9.94606e-19)
(0.991966 0.00968717 7.51057e-19)
(-0.0107215 1.47865 0)
(-0.00329254 1.30407 0)
(-0.0334703 1.60758 0)
(-0.022168 1.5154 0)
(-0.00413397 1.35302 0)
(0.210631 0.264336 1.42655e-19)
(0.257435 0.241965 0)
(0.993571 -0.00825516 0)
(0.954404 -0.0064385 0)
(0.829612 0.0235497 0)
(0.796785 0.0356659 0)
(0.734392 -0.0267494 0)
(0.995616 -0.00423707 0)
(0.739917 0.0510159 0)
(0.595269 -0.015605 7.09555e-19)
(-0.0356717 2.86545 3.08217e-19)
(0.0430529 2.90807 0)
(0.0568071 2.88328 0)
(-0.00560323 2.69693 0)
(-0.0128796 2.98535 5.75961e-19)
(-0.0182446 2.89556 0)
(-0.0153475 2.98812 -1.82676e-18)
(-0.0133914 2.92525 6.31684e-19)
(-0.0251749 1.81493 0)
(-0.0203491 1.81289 0)
(0.000373354 1.60951 -9.11432e-25)
(0.000867562 1.58411 0)
(-0.00531845 1.46476 0)
(0.935626 -0.00582793 0)
(0.854067 -0.0092827 0)
(0.863955 0.00871746 0)
(0.948504 -0.00694919 0)
(0.883877 -0.0080202 0)
(0.506448 1.1249 4.23658e-20)
(0.558498 1.18063 0)
(0.352481 0.866573 2.74025e-21)
(0.295776 0.728525 0)
(0.945954 1.09256 -2.8544e-19)
(1.05799 0.891837 5.84601e-19)
(0.396439 1.39905 0)
(0.557114 1.37875 0)
(0.559786 1.32769 0)
(0.0953914 0.142049 -1.19796e-19)
(0.49693 0.261166 0)
(0.481701 0.16173 1.06505e-19)
(1.02691 0.943758 0)
(1.09196 0.785658 0)
(1.11807 0.728156 -5.11592e-19)
(1.14642 0.622571 0)
(1.19795 0.404904 5.83688e-20)
(0.956866 -0.00885963 0)
(0.962123 -0.0101765 0)
(0.900854 -0.00810252 0)
(0.984225 -0.00911895 0)
(0.974557 -0.00935667 0)
(0.936856 -0.00622852 0)
(1.00019 0.00229295 0)
(1.00086 0.00132381 0)
(0.999923 0.000858608 0)
(-0.0160364 2.03083 1.70536e-19)
(0.116915 1.71497 0)
(-0.0604958 2.02978 1.81782e-19)
(-0.0109184 1.81227 -7.58848e-20)
(0.126443 1.19168 -5.50604e-19)
(0.0718478 1.03963 0)
(0.116548 1.03596 0)
(-0.011859 0.845047 0)
(-0.0268015 0.75593 0)
(0.0473407 1.72065 1.14927e-21)
(-0.0323218 1.55888 0)
(0.059991 1.7103 7.19735e-20)
(0.00635594 1.51064 -1.11717e-19)
(-0.0451347 0.900782 0)
(-0.0630521 1.0296 0)
(-0.04792 0.8483 0)
(-0.0226785 1.37841 0)
(-0.0133562 1.24193 0)
(0.937852 0.0154499 0)
(0.871466 1.58318e-05 0)
(0.919989 0.00747182 0)
(0.839439 -0.00533266 0)
(0.8099 0.00504138 0)
(0.901757 0.0138168 0)
(0.882947 0.00987669 0)
(0.788378 0.00186347 0)
(0.00575033 3.06471 -5.85246e-21)
(0.016449 3.05809 0)
(0.0146819 2.96914 0)
(0.00847822 2.87632 0)
(0.929495 3.9884 0)
(1.24518 3.31775 1.01971e-18)
(0.0713723 3.08319 0)
(-0.0264936 2.91145 0)
(-0.0249843 1.8028 0)
(-0.0266402 1.81444 0)
(-0.02336 1.80717 0)
(-0.0104051 1.83156 5.77634e-21)
(-0.0191491 1.83008 0)
(-0.0159439 1.8273 0)
(-5.53412e-05 1.48566 -1.25323e-20)
(0.00766401 1.66986 -7.35557e-21)
(0.00313662 1.63866 6.37159e-21)
(-0.00532374 1.47209 0)
(0.624102 0.123554 2.70577e-19)
(0.557858 0.0232181 -2.63159e-19)
(0.266062 1.51933 0)
(0.26258 0.658338 -2.04591e-19)
(0.200512 1.61731 -6.94688e-19)
(0.239582 1.16575 6.96737e-19)
(0.90418 0.00691806 0)
(0.967902 0.0106665 0)
(0.974971 0.0105135 0)
(0.924639 0.00664408 0)
(-0.0181496 1.43581 0)
(-0.0145389 1.46543 0)
(-0.00841306 1.27375 0)
(0.38467 0.297791 3.65038e-19)
(0.326707 0.279974 -4.46586e-19)
(0.333636 0.216922 0)
(1.1188 0.0842674 -5.38425e-21)
(1.10425 0.0386499 0)
(1.03177 0.0382336 0)
(0.936148 0.00527117 0)
(0.649764 0.0926203 0)
(0.680542 0.0669464 -1.14278e-18)
(0.573696 0.007113 4.37484e-19)
(0.00977516 2.98179 3.99315e-19)
(-0.0326932 2.8674 4.77381e-20)
(0.00381801 3.05016 -1.26708e-20)
(0.0199955 3.04355 4.56547e-19)
(-0.0150243 2.99655 2.10307e-20)
(-0.0130013 2.94946 -8.51931e-23)
(-0.01728 3.01199 -3.99823e-19)
(0.0148027 3.02402 2.88923e-19)
(0.00729294 3.03672 -4.50874e-19)
(0.923329 0.00133694 0)
(0.93194 -0.00165647 0)
(0.840049 -0.0072995 0)
(0.957406 0.0118091 0)
(0.943969 0.0134374 0)
(0.883321 0.00769838 0)
(0.917746 0.0141185 0)
(0.927488 0.0145554 0)
(0.838202 0.00789443 0)
(0.715252 1.41118 3.43176e-19)
(0.751268 1.52295 0)
(0.222395 0.367445 2.3827e-20)
(0.179563 0.581313 1.90956e-19)
(0.264873 0.68752 -1.03976e-19)
(0.2263 0.572236 1.8897e-19)
(0.285176 0.693986 6.92892e-19)
(0.105898 0.179458 2.05694e-19)
(0.558354 0.22077 4.01362e-19)
(0.526595 0.241957 9.8783e-20)
(0.5062 0.143916 2.02315e-19)
(1.18698 0.461815 3.0977e-19)
(1.20411 0.256333 3.24454e-19)
(-0.024435 1.99332 1.68991e-20)
(-0.0190354 1.76254 0)
(0.98278 0.0279152 0)
(0.950802 0.01861 0)
(0.896773 -0.00175409 0)
(0.0110463 3.07469 0)
(0.0199198 2.94404 7.77868e-19)
(0.0165432 2.95646 0)
(0.00608809 2.8508 -7.71695e-19)
(0.00602415 3.09108 1.83773e-19)
(0.00739592 3.08254 0)
(0.785271 1.82879 -2.4341e-19)
(1.2522 2.51353 6.71613e-19)
(0.768343 1.97049 -1.50761e-18)
(0.0212325 2.98429 -2.85827e-19)
(0.0373328 3.00755 0)
(-0.0319583 2.88264 0)
(0.0487283 1.68717 1.44295e-20)
(0.0221163 1.70184 4.56353e-20)
(0.020723 1.49865 -4.03086e-23)
(0.279063 1.33099 6.61441e-19)
(0.224393 0.442442 -4.55831e-19)
(0.0331581 1.95142 4.5324e-19)
(0.134024 1.83085 -5.70286e-19)
(0.200525 1.48446 8.33648e-20)
(0.00186557 3.11886 -1.07687e-18)
(0.0161638 3.11805 1.15398e-18)
(-0.00858335 2.98138 4.95516e-19)
(-0.00304442 2.97796 -4.34844e-19)
(-0.0212567 2.88222 -5.04668e-19)
(0.0088443 3.09993 -1.34491e-18)
(0.00260106 3.10577 1.30963e-18)
(0.219543 0.610029 0)
(0.168585 0.593339 -3.70871e-19)
(0.123768 0.202325 1.65008e-19)
(0.318298 0.817841 6.18599e-19)
(0.170755 0.221855 -9.47401e-19)
(1.2014 0.170831 -6.40335e-20)
(1.20404 0.308419 0)
(1.18981 0.119088 1.28985e-19)
(0.000746874 1.80438 1.92578e-21)
(-0.0403607 1.90218 0)
(-0.0359172 1.65895 0)
(0.328211 1.21241 -2.41599e-19)
(0.351064 1.02926 -5.12183e-19)
(0.191861 0.317302 8.76877e-19)
(1.00583 -0.0110864 0)
(1.00759 -0.00763249 1.81568e-19)
(-0.025954 1.79917 0)
(-0.0347312 1.80603 0)
(1.00218 0.00335377 1.59741e-21)
(1.00367 0.00932882 3.73378e-19)
(-0.0100747 1.83745 -7.83484e-21)
(-0.00513872 1.83711 0)
(0.039678 3.1839 9.55423e-20)
(0.400661 3.50346 0)
(1.11564 0.645193 7.13706e-20)
(1.01294 0.0127404 -2.11932e-21)
(1.02136 -0.0105108 0)
(1.00172 -2.17162e-05 -3.02683e-23)
(0.155356 1.18569 0)
(0.17458 2.60986 0)
(-0.21486 1.37139 0)
(-0.192116 2.39099 -8.47354e-20)
(-0.103945 2.07003 5.58007e-20)
(1.00586 0.0106411 2.96876e-21)
(1.0483 0.0117431 0)
(1.07319 0.0302107 0)
(-0.0278481 1.81753 0)
(-0.023112 1.87542 0)
(-0.0349317 1.76844 0)
(0.280918 1.44888 -4.57411e-19)
(1.01108 -0.00958494 0)
(1.00949 -0.0153522 0)
(1.00235 0.000390616 2.28845e-19)
(1.0055 -0.00499774 -2.73214e-19)
(1.00123 -0.00109521 0)
(-0.0333392 1.80838 0)
(-0.0285205 1.79687 0)
(-0.0287823 1.80327 0)
(-0.0318131 1.77145 0)
(-0.0289293 1.77825 0)
(-0.0310908 1.77654 0)
(1.03161 -0.0141304 0)
(1.0208 0.0167178 -9.68674e-22)
(0.783308 1.26672 5.36656e-19)
(1.00266 0.000232046 -2.31357e-19)
(1.00347 0.00550194 2.72322e-19)
(1.00129 0.00218436 0)
(1.01302 0.0101894 2.24113e-19)
(1.00827 0.00834299 -2.79551e-19)
(1.00861 0.0143318 0)
(-0.0209203 1.87369 0)
(-0.01161 1.8538 7.19026e-21)
(-0.0103158 1.8542 -3.92068e-21)
(1.18845 0.254385 -1.06542e-19)
(1.1272 0.0899075 0)
(0.0535296 3.07772 -4.94392e-19)
(0.0685839 2.8508 -4.00025e-20)
(0.147692 3.19768 7.76863e-19)
(0.141754 3.22689 1.00634e-20)
(0.139868 3.24299 0)
(0.0222907 3.13869 1.05032e-19)
(0.0811428 3.16237 4.8151e-19)
(0.0737512 3.1899 -2.0365e-19)
(0.0258734 3.12863 0)
(0.666877 0.327059 0)
(0.612327 0.36747 0)
(1.08841 0.671471 -2.69083e-19)
(1.08535 0.81254 4.11936e-19)
(1.14564 0.561881 0)
(1.17649 0.504555 0)
(1.01588 0.0130591 -4.13206e-19)
(1.01436 0.013923 5.16093e-19)
(1.02513 -0.0104711 0)
(1.02321 -0.0118959 0)
(1.00672 0.00285102 0)
(1.01026 0.00325021 0)
(1.00503 0.00159755 0)
(1.00974 0.00562941 0)
(1.00836 0.0062817 0)
(1.00439 0.00479406 0)
(0.176183 1.18698 0)
(0.0978111 1.01085 0)
(0.220047 1.2672 0)
(0.143128 1.2857 0)
(0.165417 2.62205 0)
(0.208291 2.64925 -1.96539e-19)
(0.0771199 2.69448 0)
(0.0782113 2.68481 -3.25165e-20)
(-0.162712 2.67863 1.66295e-19)
(-0.174484 1.41642 0)
(-0.148558 1.46672 0)
(-0.220823 1.32908 0)
(-0.178749 1.19092 0)
(-0.405117 2.12356 1.30099e-19)
(-0.161115 2.17429 -7.55652e-22)
(-0.179979 2.37415 -5.42581e-20)
(-0.114783 2.25979 0)
(-0.0970117 2.06705 -9.85976e-20)
(-0.0642896 2.02207 -1.18378e-20)
(-0.423663 2.10176 -1.25173e-19)
(-0.269571 2.11832 9.85756e-22)
(-0.27182 2.25598 7.12387e-20)
(1.01565 0.0225691 4.07793e-19)
(1.01277 0.00858252 -4.98915e-19)
(1.00765 0.0215683 -4.27891e-19)
(0.992084 0.0130186 5.43232e-19)
(1.04831 0.0123429 0)
(1.03501 -0.0071237 0)
(1.07001 0.0393809 0)
(1.05471 0.0203788 0)
(1.05388 0.0140926 0)
(1.11057 0.0783027 0)
(1.08338 0.0479806 0)
(1.08704 0.0382977 0)
(-0.0192741 1.84166 -1.63646e-21)
(-0.0298593 1.83195 0)
(-0.0226376 1.83195 0)
(-0.036733 1.90127 1.07267e-20)
(-0.030977 1.90962 -2.46453e-22)
(-0.0506538 1.81586 1.14898e-20)
(-0.0387701 1.81032 -1.16203e-20)
(-0.0441159 1.78576 0)
(-0.0371732 1.79645 0)
(-0.0367127 1.79665 0)
(-0.0479339 1.75368 0)
(-0.033841 1.7171 0)
(0.383577 1.47288 8.81772e-19)
(0.409015 1.48063 3.46551e-19)
(0.580322 2.42601 -1.48331e-19)
(0.397989 2.51324 4.20896e-19)
(0.33936 2.08629 -3.96014e-20)
(1.02072 -0.00840396 0)
(1.01511 -0.00978479 0)
(1.01494 -0.0158453 0)
(1.00731 -0.00115375 0)
(1.00467 -0.00158067 0)
(1.00744 -0.00474946 0)
(1.0096 -0.00403532 0)
(1.01351 -0.00448785 0)
(1.02238 0.016952 3.89969e-19)
(1.01729 0.0160011 -5.01273e-19)
(1.02373 0.0209567 -3.98763e-19)
(1.01709 0.0217368 4.99756e-19)
(0.758402 1.31233 0)
(0.688295 1.37173 6.3938e-19)
(0.858754 1.20422 3.74238e-19)
(0.899862 1.16085 -4.97702e-19)
(1.14691 2.61509 -5.87451e-19)
(0.835327 0.1104 2.76167e-19)
(1.12659 0.0998264 0)
(1.17267 0.179165 9.07374e-20)
(1.15918 0.156717 3.9599e-21)
(0.979566 0.122661 0)
(0.148515 2.96756 1.06767e-19)
(0.126011 2.87345 -6.36976e-19)
(0.0389916 2.35475 4.65081e-19)
(0.103908 0.103389 -1.93862e-19)
(0.345015 3.43147 -4.55143e-19)
(0.198944 3.32233 0)
(0.240376 3.36716 5.9274e-19)
(0.256058 3.04096 -6.87984e-19)
(0.350398 3.20054 0)
(0.00739357 3.12072 2.52008e-20)
(0.0173338 3.12979 -3.253e-19)
(0.0157746 3.12567 4.78797e-19)
(0.0383101 3.14014 0)
(0.0370729 3.15176 0)
(1.2134 2.61787 0)
(0.506954 0.85332 -2.18825e-19)
(1.01683 0.990388 -2.12292e-19)
(0.952937 1.05341 0)
(0.796675 0.950386 6.30662e-20)
(1.03795 0.861094 3.07757e-20)
(0.407857 0.463978 -5.22512e-19)
(0.702964 0.336102 -2.23712e-20)
(0.688515 0.27917 2.12515e-19)
(0.621536 0.40189 1.71427e-20)
(0.559349 0.392807 -7.07307e-19)
(0.678469 0.358364 0)
(0.714485 0.421583 3.42507e-19)
(0.711812 0.419022 0)
(0.649681 0.384793 0)
(0.631498 0.328856 0)
(0.759264 0.587332 1.16738e-19)
(1.18732 0.270348 7.24365e-20)
(1.1832 0.401758 0)
(1.1951 0.357132 0)
(0.764729 0.203967 3.21298e-19)
(0.815941 0.514799 -1.73442e-19)
(0.736886 0.490426 2.79714e-19)
(0.912982 0.416065 -2.55164e-19)
(1.01942 0.0144893 2.69966e-19)
(1.01753 0.0138277 -2.7834e-19)
(1.0146 0.015794 0)
(1.03335 -0.011108 0)
(1.02884 -0.00962938 -2.47584e-19)
(1.02593 -0.0138822 2.44826e-19)
(1.02678 0.00742003 0)
(1.02502 0.0137967 0)
(1.01146 0.00427422 0)
(1.01427 0.00902905 0)
(1.01532 0.00390588 0)
(1.01372 0.00203163 0)
(0.0678728 1.00244 0)
(-0.0280624 0.969097 0)
(0.321911 1.31085 4.69723e-19)
(0.272817 1.4485 2.67385e-19)
(0.199693 1.40644 5.98747e-19)
(0.211631 1.40918 -9.42529e-19)
(0.284855 1.38745 0)
(0.294489 1.63823 2.99262e-19)
(0.320277 1.65465 0)
(0.335372 2.03495 5.7506e-20)
(0.336986 2.3859 2.10683e-19)
(0.306696 1.47062 -2.71766e-19)
(0.267361 1.40915 2.01495e-19)
(0.284462 1.37102 -1.63021e-19)
(0.272963 1.35108 3.37146e-19)
(0.21149 1.6039 0)
(0.301011 1.61586 -2.11727e-19)
(-0.151115 2.56403 2.21111e-19)
(-0.125762 2.7176 0)
(0.0471046 2.57483 -3.99516e-19)
(-0.0452518 2.63901 0)
(-0.00190082 2.75719 3.57075e-20)
(-0.0901806 2.73005 0)
(-0.380232 1.61832 2.19529e-19)
(-0.461173 1.73987 0)
(-0.313177 1.42037 0)
(-0.325121 1.43724 -2.4756e-19)
(-0.221686 2.51786 -8.12535e-20)
(-0.171653 2.66958 -2.11982e-19)
(-0.171214 2.60117 -1.44147e-21)
(-0.300687 1.94858 -3.03512e-21)
(-0.370209 1.92625 -4.21421e-20)
(-0.124868 1.53473 0)
(-0.0863089 1.56544 0)
(-0.362757 1.86688 -5.57528e-19)
(-0.318145 1.45217 -5.33623e-19)
(-0.376613 1.70513 6.72409e-19)
(-0.13195 1.80505 0)
(-0.0641564 1.86307 -3.55413e-20)
(-0.0592748 1.891 1.34638e-20)
(-0.070858 1.90369 -4.56256e-21)
(-0.246943 1.88692 3.68025e-21)
(-0.110266 1.96958 -6.73198e-21)
(-0.133019 2.01043 4.92422e-20)
(1.02061 0.0229695 -2.6547e-19)
(1.01989 0.0207466 2.65138e-19)
(1.0151 0.0188712 0)
(1.00348 0.0474132 3.87945e-19)
(0.993413 0.0340169 -4.57171e-19)
(0.966029 0.022462 5.31609e-19)
(1.00396 0.0809536 -5.02362e-20)
(1.0359 -0.0134599 0)
(1.03749 -0.00478476 2.19144e-19)
(1.02866 -0.0205917 -2.2174e-19)
(1.0543 0.0434882 -1.19485e-20)
(1.054 0.0281686 1.07312e-19)
(1.05166 0.0504655 0)
(1.04333 0.0435687 -4.03514e-20)
(1.03728 0.0273538 0)
(1.03236 0.0211831 0)
(1.03082 0.0103784 0)
(1.02886 0.0150462 0)
(1.04464 0.0262398 8.37789e-20)
(1.04608 0.0194888 -1.90629e-19)
(1.04672 0.0300686 -8.42081e-20)
(1.0444 0.0295558 -9.82174e-20)
(1.05134 0.0562076 1.74389e-19)
(1.07529 0.0501591 0)
(1.07727 0.0935385 0)
(-0.05691 1.86137 -1.32328e-20)
(-0.0346088 1.83514 -1.63538e-21)
(-0.0432385 1.84139 0)
(-0.0353969 1.86126 1.32551e-20)
(-0.0228408 1.84538 3.13255e-21)
(-0.0254273 1.85316 -2.83568e-21)
(-0.0561513 2.00127 5.36614e-21)
(-0.0763409 1.92846 -1.71411e-21)
(-0.0881377 1.94684 8.17724e-21)
(-0.0427976 1.94829 -8.15867e-21)
(-0.0427324 1.96104 1.0345e-20)
(-0.0642051 1.79833 2.42696e-22)
(-0.0655354 1.81828 1.62596e-20)
(0.393142 1.40409 -4.40477e-19)
(0.350204 1.3906 -4.30724e-19)
(0.643476 1.41656 -6.15554e-19)
(0.520025 1.47683 -3.34009e-19)
(0.557849 1.45326 0)
(0.58381 2.39763 1.20484e-19)
(0.652327 2.38352 2.19799e-19)
(0.411761 2.48339 7.90002e-20)
(0.408905 2.54914 -1.37339e-19)
(0.516685 2.51493 2.59147e-19)
(0.534898 2.43761 0)
(0.486391 2.47466 -3.4884e-19)
(0.276778 2.54882 5.88918e-19)
(0.35879 2.52057 -7.50375e-20)
(0.302848 2.61072 -9.18997e-19)
(0.921757 2.37479 1.81896e-19)
(0.824019 2.3659 0)
(1.0107 0.000480477 9.05634e-21)
(1.01595 -0.00553094 -7.55077e-21)
(1.01745 -0.00413919 -1.345e-19)
(1.01514 -0.00035444 1.3454e-19)
(1.01237 0.00095335 0)
(0.625442 1.2558 0)
(0.623301 1.17246 0)
(0.729989 1.08103 0)
(0.617645 1.12818 0)
(1.17699 2.63192 5.71659e-20)
(1.06107 2.36363 0)
(0.835897 2.22886 -1.83995e-21)
(0.834522 2.48397 0)
(0.923245 2.56381 3.04508e-20)
(0.956744 2.51609 -2.04236e-20)
(0.842181 0.146119 0)
(0.812396 0.152369 7.96051e-20)
(0.927124 0.126733 4.00511e-19)
(0.86632 0.117438 -1.62571e-19)
(0.854399 0.0676746 -4.89217e-19)
(1.03083 0.211607 -2.1065e-19)
(0.953592 0.274885 -1.59546e-20)
(0.896967 0.271808 3.63959e-19)
(0.966254 0.197071 2.66477e-19)
(0.933968 0.159055 -5.00057e-19)
(0.909438 0.173654 6.50842e-20)
(0.933851 0.23499 -1.25886e-19)
(0.911057 0.193326 0)
(0.969476 0.159494 2.38243e-19)
(1.00653 0.162177 0)
(1.00443 0.188136 0)
(1.07072 0.108028 7.2083e-20)
(1.03042 0.152376 -1.3076e-20)
(1.02482 0.214803 -4.0095e-20)
(1.06094 0.187454 0)
(1.02178 0.0266839 2.02483e-19)
(1.03805 0.0467228 2.38217e-19)
(1.03603 0.032078 -2.00925e-19)
(1.03422 0.050636 -1.60325e-19)
(1.01428 0.0526266 -2.73063e-19)
(0.975653 0.123566 0)
(0.982846 0.0758092 0)
(0.969444 0.0437132 -1.91893e-19)
(0.936461 0.0577934 8.10077e-20)
(1.02038 0.0811113 2.26748e-19)
(1.03623 0.109795 -2.23012e-19)
(1.03906 0.133288 2.04164e-19)
(1.00297 0.123219 0)
(1.04577 0.0967502 0)
(1.03282 0.0789585 -9.36574e-20)
(1.031 0.0796594 -1.80861e-19)
(0.561799 1.07429 -1.05291e-19)
(0.609402 1.45052 2.0557e-19)
(1.15148 2.76268 1.19534e-19)
(1.22093 3.0987 -7.48616e-20)
(1.24243 2.73449 5.94048e-19)
(1.2758 2.71853 -3.54147e-19)
(1.20135 2.35094 -7.85081e-21)
(1.20647 3.00195 2.10428e-19)
(1.22396 2.96659 -2.39803e-19)
(1.21349 3.25202 -2.75513e-19)
(1.37633 2.98248 3.81582e-19)
(1.36964 2.89887 0)
(0.511254 0.86047 -1.0842e-20)
(0.161187 1.29214 3.60951e-19)
(0.525211 0.538475 3.45277e-19)
(0.357534 0.308366 3.75358e-19)
(0.565739 0.426018 3.95896e-19)
(0.564162 0.491947 -6.29069e-19)
(0.562025 0.514293 5.17414e-19)
(0.526578 0.462867 -2.07405e-19)
(0.48126 0.401637 4.7626e-19)
(0.769349 0.263493 -1.79963e-19)
(0.732164 0.301596 0)
(0.719562 0.252381 1.00486e-20)
(0.730073 0.508456 1.80882e-19)
(0.704444 0.468818 -6.67132e-19)
(0.629249 0.488374 1.93184e-20)
(0.644901 0.459376 0)
(0.632303 0.734773 1.38427e-19)
(0.77948 0.753895 4.0268e-20)
(0.709568 0.841196 -5.58653e-20)
(0.827849 0.789786 -1.08113e-20)
(0.86613 0.830349 1.63096e-20)
(0.874843 0.833971 -1.66983e-20)
(0.799269 0.620368 -2.00091e-19)
(0.875283 0.680984 1.00494e-20)
(0.936717 0.69512 0)
(0.924598 0.669881 -6.64879e-21)
(0.98015 0.311631 5.41856e-20)
(1.09288 0.277756 -9.49927e-21)
(1.0162 0.246263 8.59963e-20)
(0.965305 0.347794 -1.27832e-19)
(1.0154 0.404271 0)
(1.05344 0.392089 0)
(0.886133 0.355854 5.56839e-21)
(0.819096 0.289449 0)
(0.842263 0.274505 1.90342e-19)
(0.877763 0.281239 -6.31566e-21)
(0.906658 0.417917 6.95151e-19)
(0.866138 0.469586 1.76256e-19)
(0.874495 0.439241 -2.31442e-19)
(0.806775 0.423235 2.47859e-19)
(0.793634 0.420326 1.71702e-19)
(0.762761 0.407056 -1.68955e-19)
(1.02781 -0.00377497 2.15639e-19)
(1.01971 -0.000956869 0)
(1.01824 -4.55244e-05 1.43123e-19)
(1.02231 -0.00136496 -3.22068e-19)
(1.02145 0.00281324 1.55247e-19)
(1.0209 0.0101147 -3.26606e-19)
(1.02215 0.00952082 0)
(1.0208 0.0105752 -6.89604e-20)
(1.01645 0.00721068 1.7321e-19)
(1.01693 0.0102451 -8.7003e-20)
(1.01752 0.00940557 6.36107e-20)
(-0.198801 1.1822 0)
(-0.292741 1.36637 0)
(-0.108559 1.06509 0)
(-0.110458 1.0231 0)
(0.186179 1.32052 -1.17121e-18)
(0.242641 1.21299 3.94939e-19)
(0.29908 1.63301 2.53405e-19)
(0.308319 1.28718 -2.18494e-19)
(-0.225365 1.47432 7.71651e-19)
(-0.181826 1.48059 -5.79952e-19)
(0.0659238 1.21895 3.84535e-20)
(-0.00528676 1.19843 7.17402e-19)
(-0.108064 1.18761 9.265e-20)
(-0.220428 1.28642 8.30402e-20)
(0.128437 2.54511 4.31406e-19)
(0.124753 2.53611 0)
(0.246628 2.16536 -4.09994e-20)
(0.257338 1.8031 -1.46533e-19)
(0.277039 2.07225 2.58879e-20)
(0.240615 2.44311 0)
(0.283201 2.39927 -1.20534e-19)
(0.323895 2.40424 8.569e-20)
(0.273444 2.01848 9.14701e-20)
(0.222442 2.22738 1.77901e-20)
(0.169349 2.36646 0)
(-0.360274 2.25757 6.05819e-19)
(-0.341259 2.43541 3.30592e-19)
(-0.40623 2.29818 0)
(-0.252849 2.57226 -6.49861e-21)
(-0.231665 2.52607 -2.98449e-19)
(-0.305524 1.58736 -1.33373e-20)
(-0.213822 1.61969 2.05463e-19)
(-0.220317 1.68053 -5.53623e-20)
(-0.32656 1.67056 -7.32741e-20)
(-0.369189 1.61848 0)
(-0.192816 1.68193 0)
(-0.067206 1.70334 3.69328e-21)
(-0.111429 1.73032 -3.16714e-22)
(-0.143089 1.70095 0)
(-0.0886324 1.62956 5.69083e-23)
(-0.046578 1.64918 -3.8017e-21)
(1.03541 0.000563884 0)
(1.04273 0.00195605 -2.07969e-20)
(1.04774 0.0158354 -1.51e-19)
(1.04841 0.0160421 0)
(1.0487 0.0158255 0)
(1.04432 0.00443104 -6.77714e-21)
(1.03804 0.00371198 2.52366e-19)
(1.04022 0.011653 3.04068e-19)
(1.03014 0.0178509 0)
(1.02951 0.0174974 0)
(1.04291 0.0198562 1.5231e-19)
(1.03391 0.0171294 0)
(1.03184 0.0165046 0)
(-0.11764 1.86442 0)
(-0.0850688 1.81551 1.90471e-21)
(-0.096654 1.8532 8.31816e-21)
(-0.086787 1.74192 0)
(-0.105577 1.79837 3.95313e-21)
(-0.0806101 1.78555 -6.18811e-21)
(-0.075588 1.77153 0)
(0.389647 1.70476 0)
(0.348182 1.31429 6.83952e-19)
(0.278226 1.37262 0)
(0.427623 1.27291 -8.80839e-19)
(0.486282 1.43221 0)
(0.4375 1.38439 4.1522e-19)
(1.02594 2.70133 -3.51898e-21)
(0.947501 2.40725 -2.29467e-19)
(0.874936 2.14733 3.07688e-19)
(0.846839 2.35971 1.2456e-19)
(0.848832 2.52289 0)
(0.908208 2.51282 0)
(0.882127 2.37451 0)
(0.917974 2.32869 -4.397e-19)
(0.691865 2.50559 6.6205e-21)
(0.812683 2.4924 -7.51479e-21)
(0.822811 2.46671 5.74169e-21)
(0.683974 2.36406 0)
(0.790068 2.36489 0)
(0.74921 2.37332 -2.22837e-19)
(0.775444 2.5112 0)
(0.577659 1.08557 0)
(0.474229 0.926816 2.77235e-20)
(0.517611 0.957639 4.55265e-22)
(0.500405 1.04949 0)
(0.502111 1.00516 -3.90135e-20)
(0.732465 0.867792 2.12033e-20)
(0.75631 1.00146 0)
(0.728453 0.959916 -7.56632e-20)
(0.608605 1.02543 0)
(0.615824 0.934274 0)
(1.15666 2.77915 6.82294e-20)
(1.1344 2.84479 1.31944e-19)
(0.925885 2.37304 -2.98e-19)
(0.892796 2.34574 3.90215e-20)
(1.11972 2.74791 0)
(1.07175 2.71744 -4.68873e-20)
(1.07606 2.48904 -6.38079e-20)
(0.968507 2.22136 -2.93985e-20)
(0.489265 1.36837 0)
(0.491072 1.06782 9.2784e-20)
(0.546398 1.14979 0)
(0.858693 0.212661 0)
(0.822503 0.170104 0)
(0.779556 0.154686 0)
(0.848503 0.218174 -2.98844e-19)
(0.795611 0.214427 1.87213e-19)
(0.941424 0.0521843 -1.67032e-19)
(0.950815 0.101597 0)
(0.924774 0.103641 7.5617e-20)
(0.88777 0.0799312 3.11112e-19)
(0.882439 0.0488854 -1.90967e-19)
(1.16527 3.37717 -9.97806e-19)
(1.2104 3.29704 0)
(1.16617 3.40327 -1.96194e-18)
(0.653246 3.56389 1.68481e-18)
(0.880105 3.12902 4.01161e-19)
(0.49518 0.880937 1.98599e-19)
(0.429162 0.865087 0)
(0.355928 0.563413 -7.98033e-20)
(0.42928 0.701735 3.54946e-19)
(0.528046 0.538089 -1.08151e-19)
(0.512824 0.561402 1.23436e-19)
(0.661474 0.53395 2.58491e-19)
(0.685097 0.536811 0)
(0.623962 0.635594 0)
(0.586516 0.565293 0)
(0.931985 0.579447 -5.76949e-20)
(0.864922 0.517659 -1.70383e-19)
(0.885929 0.549888 7.26843e-20)
(0.923792 0.491322 -1.23396e-19)
(1.01643 0.469569 0)
(1.02952 0.554907 -1.31607e-21)
(0.826771 0.383754 -3.77996e-19)
(0.825614 0.368978 -4.37885e-19)
(0.778736 0.380275 2.97432e-19)
(0.772837 0.350414 -3.38856e-19)
(0.819493 0.314477 -2.5176e-19)
(0.779409 0.31193 3.09077e-19)
(1.02679 0.00294965 -1.59648e-19)
(1.02707 0.00239919 3.24641e-19)
(1.0287 -0.00414767 2.0455e-19)
(1.0315 -0.0060543 -2.46356e-19)
(1.03623 -0.00153421 0)
(1.03384 -9.97748e-05 -3.96081e-19)
(-0.0307925 1.93751 -1.45889e-19)
(-0.0251611 1.80087 0)
(0.221862 1.81703 -8.70261e-19)
(0.240552 1.82654 7.56666e-19)
(0.268913 1.6657 -4.77471e-19)
(0.190107 1.67193 0)
(-0.213771 1.8788 0)
(-0.19392 1.75718 8.39893e-22)
(-0.146018 1.75811 -7.60537e-22)
(-0.126662 1.79639 5.88244e-21)
(-0.138995 1.8732 -9.04388e-21)
(-0.16097 1.87615 5.41747e-21)
(0.497909 1.37769 4.58629e-19)
(0.501967 1.38495 -4.92562e-19)
(0.444004 1.27522 4.52696e-19)
(0.431697 1.29065 -2.83757e-20)
(0.613858 1.29697 0)
(0.54675 1.36636 5.67024e-19)
(0.557447 1.37261 -5.48314e-19)
(0.457544 1.25755 -4.32531e-19)
(0.502314 1.21811 0)
(0.553475 1.18816 0)
(0.651413 2.45945 -9.76458e-21)
(0.672682 2.47765 4.97259e-19)
(0.717196 2.49757 -3.4109e-19)
(0.620465 2.48623 -1.17197e-19)
(0.553963 2.57563 9.57305e-20)
(0.514308 2.54794 -2.90468e-19)
(0.960661 2.36268 -1.66077e-19)
(1.00207 2.38809 0)
(0.893151 2.1322 -2.26386e-19)
(1.0406 2.69855 0)
(1.03903 2.68322 0)
(0.623672 2.29758 2.68303e-19)
(1.04385 3.17892 5.0427e-19)
(0.915987 3.04834 -4.57247e-19)
(0.294351 0.976275 0)
(0.347205 0.847873 -1.4213e-19)
(0.492107 0.791807 -5.16042e-20)
(0.412246 2.05113 0)
(0.474225 2.79588 -2.79243e-19)
(0.437497 2.5621 0)
(0.645184 0.679043 -2.85608e-19)
(0.717662 0.656521 3.62748e-19)
(0.751368 0.602344 -3.5337e-19)
(0.643253 0.640709 -4.33623e-20)
(0.709042 0.584804 -1.76977e-19)
(1.00363 2.78673 -3.83332e-19)
(1.03517 2.84333 3.11443e-19)
(0.654128 2.20173 6.14729e-21)
(0.601715 1.73985 -3.79486e-20)
(0.698985 1.93333 1.41589e-19)
(0.986793 2.46969 -6.5503e-20)
(0.988239 2.4727 -1.87474e-19)
(0.675792 1.88741 -7.1147e-21)
(0.451617 1.35144 -9.35922e-20)
)
;

boundaryField
{
    wall-4
    {
        type            noSlip;
    }
    velocity-inlet-5
    {
        type            fixedValue;
        value           uniform (1 0 0);
    }
    velocity-inlet-6
    {
        type            fixedValue;
        value           uniform (0 3 0);
    }
    pressure-outlet-7
    {
        type            zeroGradient;
    }
    wall-8
    {
        type            noSlip;
    }
    frontAndBackPlanes
    {
        type            empty;
    }
}


// ************************************************************************* //
