/*--------------------------------*- C++ -*----------------------------------*\
  =========                 |
  \\      /  F ield         | OpenFOAM: The Open Source CFD Toolbox
   \\    /   O peration     | Website:  https://openfoam.org
    \\  /    A nd           | Version:  9
     \\/     M anipulation  |
\*---------------------------------------------------------------------------*/
FoamFile
{
    format      ascii;
    class       volScalarField;
    location    "31";
    object      p;
}
// * * * * * * * * * * * * * * * * * * * * * * * * * * * * * * * * * * * * * //

dimensions      [0 2 -2 0 0 0 0];

internalField   nonuniform List<scalar> 
918
(
0.467698
1.12119
0.0247896
0.466967
-0.0178587
1.0882
-0.592126
0.639337
0.447802
-0.175243
-0.11989
0.44138
0.948893
0.7137
-1.21892
-0.00943531
0.590731
-0.469871
0.446795
-0.208201
0.672746
0.454424
0.457462
0.448054
0.507807
0.694915
0.829553
-0.0560908
0.0125656
-0.0373151
-0.0920216
-0.129048
-0.136631
0.971852
1.02293
1.04561
0.416348
0.243148
-0.450507
-0.522405
-0.513873
-0.640872
0.631299
0.633763
-0.257624
0.639618
0.649806
0.435083
0.447166
0.448069
0.449179
0.448114
0.449521
0.330193
-0.184174
-0.212174
-0.15324
-0.147156
0.00561123
-0.116781
-0.121362
-0.123204
-0.134472
0.368531
0.437752
0.434902
0.446002
0.453264
1.06073
1.03266
1.05879
0.972465
0.988947
0.926878
0.89939
0.73528
0.757023
0.697835
0.685519
-1.65727
-2.62114
-0.622305
-0.367744
-0.0410254
0.0324986
-0.000303151
0.581043
0.581918
0.591298
0.603618
0.988959
-0.466859
-0.59646
0.446936
0.445724
0.454116
0.454803
0.450812
0.449905
-0.219833
-0.206337
-0.124148
-0.204251
-0.174947
0.661121
0.66001
0.448601
0.445625
0.460832
0.480704
0.472843
0.203721
0.513235
0.528808
0.515496
0.682441
0.678391
0.686584
0.803151
0.765861
0.866746
0.890138
-0.0289831
-0.0230636
-0.0120107
-0.0867824
-0.055649
0.412321
0.405103
0.430832
0.419683
0.422084
0.158239
0.0222923
0.329747
0.355079
-0.360367
-0.424076
-0.527599
-0.545353
-0.659903
0.507859
0.619607
0.620452
-0.277051
-0.196844
-0.335434
-0.123261
-0.185594
0.42557
0.4324
0.427497
0.442819
0.437333
0.439264
0.451387
0.448481
0.45003
0.392656
0.515289
0.256223
0.223258
-0.329307
-0.232117
-0.329263
-0.136901
-0.131347
0.00888492
0.0288139
0.000129082
-0.0098866
-0.128146
-0.124135
-0.12819
-0.148315
-0.157008
0.361296
0.350711
0.380394
0.387353
0.428665
0.429668
0.432543
0.431204
0.85024
0.872699
0.880063
0.853774
-3.6238
-6.43046
-0.0380785
0.101419
-0.0768906
-0.081542
-0.0379505
-0.0739947
-0.0356263
-0.0150976
-0.0045633
-0.0176034
0.0110265
0.0108247
0.56626
0.566378
0.905574
0.901512
0.890351
0.84065
0.43495
0.437095
0.442657
0.438506
-0.178813
-0.196037
-0.186006
0.647755
0.655136
0.654981
0.16781
0.0840694
0.251242
0.278414
0.551904
0.534411
0.549131
0.577899
0.613233
0.897669
0.91584
0.914096
0.922383
0.966429
0.982837
0.948164
0.392793
0.402161
0.397428
0.434112
0.431762
0.432734
0.427974
0.429631
0.427339
-0.130424
-0.515246
0.414848
0.43066
0.404108
0.414077
0.583665
0.654693
0.60275
0.611098
0.611987
-0.0570655
-0.115112
0.17857
0.147616
0.304388
0.338883
0.319038
0.821419
0.781663
0.831718
0.805258
0.766578
0.792888
-0.467247
-1.98315
-1.09331
0.457457
0.268267
0.357217
-0.0205809
-0.0220559
-0.0112577
0.892361
0.972059
0.572573
0.734867
0.746366
0.652304
0.683085
0.738981
0.661774
0.698316
0.735476
0.716794
0.465665
0.426827
0.427372
0.722655
0.777989
0.0571475
0.00360236
-0.0411768
0.0458631
0.104609
0.0787468
0.939473
0.835754
0.908479
0.445363
0.446049
-0.116107
-0.1475
0.450151
0.450165
-0.118094
-0.178453
0.339123
-0.928656
0.0454346
0.438582
0.428944
0.445806
-0.165289
0.285277
-0.110068
0.000503795
-0.0409779
0.438815
0.377957
0.339911
-0.191324
-0.0525428
-0.22176
-0.291457
0.443034
0.441348
0.445273
0.446291
0.446939
-0.225244
-0.191362
-0.152994
-0.276215
-0.21562
-0.225635
0.410716
0.427491
-0.245269
0.445401
0.447538
0.447351
0.440503
0.446145
0.4444
-0.0914236
-0.144526
-0.0982864
0.153889
0.270994
0.586761
0.683021
0.551529
0.324726
0.0854226
0.486408
0.55219
0.454201
0.613187
0.612681
0.630367
0.107613
-0.0399349
0.116184
0.0600513
0.436465
0.435118
0.427206
0.424338
0.440683
0.438777
0.443335
0.440279
0.443229
0.444672
-0.119649
-0.135997
-0.161777
-0.219931
0.245465
0.505719
0.178817
0.210394
0.0844333
-0.10539
-0.11104
-0.111089
-0.121983
-0.063975
-0.0629274
-0.0109465
0.0043954
-0.0179973
-0.0360302
-0.0646674
-0.072279
-0.0811616
0.432681
0.431585
0.437631
0.445228
0.387021
0.391045
0.357661
0.377226
0.363061
0.305148
0.339193
0.314205
-0.112019
-0.188815
-0.104682
-0.0791466
-0.0265238
-0.271836
-0.297249
-0.3168
-0.248433
-0.263711
-0.208063
-0.20833
-0.251394
-0.365013
0.891986
0.833803
0.0290376
0.432277
0.438645
0.435479
0.440208
0.443312
0.444205
0.441954
0.438472
0.428121
0.429935
0.426269
0.426748
-0.185603
-0.322921
-0.146621
-0.213786
0.0514205
0.544451
0.284523
0.225634
0.219416
0.439074
0.834235
0.630996
0.629699
0.653435
-0.432706
-0.0361565
-0.365695
0.252487
0.0749478
0.586272
0.636508
0.657838
0.605305
0.556802
-0.201624
0.457549
-0.133259
-0.0889996
0.102636
-0.00400368
0.630092
0.5957
0.600605
0.617673
0.636348
0.601344
0.579794
0.574802
0.614299
0.619999
0.413314
0.186543
0.141967
0.103886
0.579547
0.454743
0.513081
0.426715
0.431331
0.434183
0.432756
0.415457
0.422607
0.418409
0.424016
0.427161
0.436409
0.436736
0.432193
0.434392
-0.123573
-0.130132
-0.102936
-0.216318
-0.204243
-0.260188
-0.14554
-0.0113343
-0.043276
0.144804
0.251378
-0.0375915
-0.150635
-0.120735
-0.0915187
0.0893736
0.114928
0.00265982
0.101056
0.07849
0.065522
0.166245
0.175658
-0.0970976
-0.0942964
-0.106169
-0.104707
-0.0304956
0.0338238
0.0466003
-0.0888419
-0.0619385
-0.109643
-0.132869
-0.0967641
-0.0964844
-0.0896027
-0.0575409
-0.222085
-0.129835
-0.102139
-0.0978417
-0.0612222
-0.0687485
0.42672
0.428457
0.428327
0.435631
0.45132
0.465984
0.428645
0.408785
0.399956
0.402866
0.377261
0.386952
0.383516
0.395723
0.415616
0.423718
0.422223
0.424709
0.408039
0.409653
0.397261
0.400411
0.377614
0.359472
0.348157
-0.212414
-0.201676
-0.217036
-0.141154
-0.138297
-0.128556
-0.0434885
-0.0557524
-0.0545163
-0.0352842
-0.0346151
-0.29367
-0.281314
-0.162595
-0.0857142
-0.269781
-0.301761
-0.370759
0.798797
0.913824
0.725301
0.504702
0.511364
0.747612
0.836947
0.47063
0.646309
0.674312
0.480008
0.739001
0.437054
0.436622
0.43429
0.433761
0.434991
-0.0987786
0.000619507
0.0122731
0.0656965
0.183348
0.297984
0.21294
0.0854203
0.220219
0.226776
0.538949
0.555289
0.501371
0.525646
0.523252
0.351218
0.42839
0.483795
0.43695
0.482225
0.504528
0.465249
0.495628
0.441858
0.399396
0.398164
0.343986
0.364865
0.342718
0.324914
0.426643
0.404751
0.41505
0.405682
0.425347
0.45193
0.446334
0.4728
0.484321
0.410973
0.371313
0.380796
0.408795
0.36982
0.382758
0.398233
0.132894
0.032758
0.118134
-0.174292
-0.0930799
-0.108832
-0.155385
-0.109915
0.176587
-0.52256
-0.496114
-1.12961
0.398363
0.865446
0.584698
0.555606
0.63179
0.609984
0.612719
0.636081
0.643357
0.569256
0.586579
0.591088
0.544868
0.56865
0.591214
0.589647
0.429797
0.3055
0.296565
0.257509
0.134178
0.167012
0.370123
0.291894
0.21933
0.224235
0.386828
0.276854
0.342682
0.380887
0.312607
0.268144
0.469728
0.536814
0.527454
0.502702
0.418531
0.430712
0.456551
0.492049
0.519105
0.551474
0.423864
0.42966
0.430946
0.428525
0.425648
0.428495
0.428539
0.431079
0.431958
0.434886
0.433858
-0.119612
-0.109945
-0.117483
-0.125932
-0.0963259
-0.103404
-0.054732
-0.0657769
-0.081532
-0.0737449
-0.102477
-0.106682
-0.0978727
-0.0908201
0.0194008
0.0354082
0.025291
-0.0204446
0.157591
0.291332
0.356833
0.237598
0.130667
0.156829
0.183213
-0.0849879
-0.0384202
-0.0584209
-0.0215959
-0.0383313
-0.111897
-0.128591
-0.135209
-0.0823911
-0.0925899
-0.159847
-0.200606
-0.183016
-0.170096
-0.141952
-0.176099
0.411081
0.404734
0.405766
0.39999
0.398895
0.412274
0.416403
0.418177
0.42336
0.425105
0.415925
0.421231
0.424598
-0.155048
-0.244651
-0.217976
-0.175784
-0.203076
-0.249661
-0.213666
0.0235288
-0.0498337
-0.0438662
-0.0856199
-0.207813
-0.153211
0.388347
0.387914
0.396706
0.613466
0.465897
0.385913
0.482303
0.586093
0.169804
0.37042
0.201808
0.783945
0.674602
0.818864
0.440706
0.145891
0.300704
0.350171
0.159527
0.23219
0.237111
0.1267
0.159109
0.189829
0.288934
0.169783
0.144439
-0.0993015
0.0869773
0.206741
0.187042
0.318299
0.382938
0.159484
0.0832096
0.0375332
0.53099
0.551017
0.569821
0.539484
0.564358
0.486551
0.478326
0.496465
0.504557
0.498465
-0.857492
-0.564976
-1.51014
-0.82515
-0.374681
0.429401
0.393244
0.665828
0.556629
0.622084
0.607717
0.568417
0.534064
0.545841
0.578388
0.280129
0.38984
0.364108
0.370673
0.273519
0.207049
0.505583
0.498945
0.536015
0.559986
0.52641
0.560106
0.42173
0.421386
0.420772
0.41748
0.41605
0.418072
-0.0123212
-0.0437697
-0.0115145
-0.0339667
-0.0581125
-0.0669652
-0.110464
-0.129171
-0.149064
-0.159598
-0.145
-0.105325
0.0632964
0.00643498
-0.0685597
-0.0395999
-0.0965866
-0.159704
-0.179449
-0.0810216
0.00794512
0.000176737
0.302675
0.55373
0.376826
0.545994
0.384207
0.440118
0.388005
0.378972
0.409566
0.285737
0.362544
0.129706
-0.374691
-0.283309
0.682569
0.701456
0.486519
0.300126
0.0702091
0.258198
0.457269
0.394942
0.434054
0.50239
0.494888
-0.0849309
-0.0182577
0.244337
0.472576
0.138905
0.129822
0.125216
0.300096
0.223874
)
;

boundaryField
{
    wall-4
    {
        type            zeroGradient;
    }
    velocity-inlet-5
    {
        type            zeroGradient;
    }
    velocity-inlet-6
    {
        type            zeroGradient;
    }
    pressure-outlet-7
    {
        type            fixedValue;
        value           uniform 0;
    }
    wall-8
    {
        type            zeroGradient;
    }
    frontAndBackPlanes
    {
        type            empty;
    }
}


// ************************************************************************* //
