/*--------------------------------*- C++ -*----------------------------------*\
  =========                 |
  \\      /  F ield         | OpenFOAM: The Open Source CFD Toolbox
   \\    /   O peration     | Website:  https://openfoam.org
    \\  /    A nd           | Version:  9
     \\/     M anipulation  |
\*---------------------------------------------------------------------------*/
FoamFile
{
    format      ascii;
    class       volVectorField;
    location    "31";
    object      U;
}
// * * * * * * * * * * * * * * * * * * * * * * * * * * * * * * * * * * * * * //

dimensions      [0 1 -1 0 0 0 0];

internalField   nonuniform List<vector> 
918
(
(0.985168 -0.00049503 0)
(0.00500947 2.96625 0)
(-0.0551265 1.12732 0)
(0.979698 0.00215274 0)
(-0.0267224 1.26121 1.05646e-19)
(-0.00704273 2.94879 -2.32582e-18)
(0.834044 1.17833 5.2095e-19)
(0.34958 0.160686 -1.41718e-20)
(0.999905 -0.000293501 0)
(0.0592992 0.856321 0)
(0.0117172 0.685692 0)
(0.734304 -0.01023 0)
(0.0111417 2.93032 0)
(0.00248614 2.79498 0)
(-0.017645 3.15748 8.64869e-19)
(-0.12006 1.59522 -1.02547e-20)
(0.429896 0.0547846 9.20987e-19)
(0.189344 1.19962 4.02195e-19)
(0.962774 0.00502813 0)
(-0.0290234 0.665651 0)
(0.0840261 0.198378 -6.71823e-19)
(1.00198 -0.00498478 0)
(1.00022 -0.0098021 0)
(0.975711 -0.00643841 0)
(0.593896 -0.0429873 0)
(0.0164285 2.63755 0)
(-0.0149123 2.91007 8.45465e-19)
(-0.110235 0.983233 0)
(-0.20291 1.29713 0)
(-0.0781052 1.05002 0)
(-0.135673 2.39113 0)
(0.024852 1.37815 -8.313e-20)
(-0.019607 1.03895 0)
(-0.0206068 2.9876 -8.31681e-23)
(-0.0166905 3.0053 1.80761e-18)
(0.00210451 3.00018 0)
(0.870331 -0.00940204 0)
(0.404713 0.939438 1.21052e-19)
(0.815297 1.19432 -6.36698e-19)
(0.965266 1.03316 6.52253e-19)
(0.684669 1.2878 -1.20674e-19)
(0.683172 1.27341 6.89578e-19)
(0.390231 0.248787 1.38261e-20)
(0.371661 0.132555 0)
(1.14687 0.557326 0)
(0.351934 0.249564 6.33378e-20)
(0.308164 0.165885 -6.57308e-20)
(0.919646 -0.00747797 0)
(1.00027 0.000132696 0)
(0.999911 0.000328322 0)
(1.00364 -0.00778218 0)
(1.00096 -0.000929991 0)
(1.00017 2.57899e-05 0)
(0.0769096 1.7846 -6.30909e-19)
(0.030439 1.01097 0)
(0.0818364 0.917234 0)
(0.0289942 0.950462 0)
(0.0253919 0.785227 0)
(0.0287883 2.00563 0)
(-0.018201 0.819834 0)
(0.00466377 0.682683 0)
(-0.0082872 0.79978 0)
(-0.00723082 0.658567 0)
(0.835667 -0.014555 0)
(0.852143 0.0266191 0)
(0.768316 -0.000800057 0)
(0.826626 0.0353186 0)
(0.701443 -0.0147742 0)
(0.0146918 3.0004 8.60091e-19)
(0.0115072 3.00803 0)
(0.00611513 3.00279 0)
(0.0135523 2.99737 9.72672e-24)
(0.00797156 2.95846 -1.27831e-18)
(0.0144849 2.982 0)
(0.0108391 2.9036 0)
(0.0246726 2.93037 1.91082e-24)
(0.00442884 2.82521 0)
(0.0313215 2.91605 0)
(-0.00552509 2.74536 0)
(0.308877 3.55484 0)
(-0.131928 3.63647 0)
(0.139781 3.24799 -8.04862e-19)
(-0.0125754 2.983 0)
(-0.311196 2.21101 0)
(-0.128389 1.775 1.00566e-20)
(-0.110285 1.78415 -4.64894e-21)
(0.511018 0.150658 -3.18302e-19)
(0.428515 0.0319458 -3.07583e-19)
(0.495331 0.175021 -9.59344e-19)
(0.413862 0.0775171 -6.35174e-19)
(0.216253 0.925006 0)
(0.270644 1.33754 -4.558e-19)
(0.379532 1.28285 7.57333e-19)
(0.98748 0.00851891 0)
(0.941957 0.00583975 0)
(1.0003 0.000572246 0)
(1.00287 0.00929858 0)
(1.00303 0.0084545 -2.28921e-18)
(0.991919 0.00970336 1.72872e-18)
(-0.0117458 0.776064 0)
(-0.0084612 0.623958 0)
(-0.103938 0.972826 0)
(-0.0228406 0.798054 0)
(-0.00706118 0.705096 0)
(0.131212 0.206319 2.07783e-19)
(0.186498 0.184935 0)
(0.993527 -0.00840261 0)
(0.954379 -0.00652716 0)
(0.780493 0.0414024 0)
(0.724904 0.0502456 0)
(0.659933 -0.0321429 0)
(0.948976 -0.00676481 0)
(0.65052 0.0628765 0)
(0.483829 -0.0208299 1.31145e-18)
(-0.0363113 2.86418 5.85161e-19)
(0.0418713 2.90952 0)
(0.0549396 2.88467 0)
(-0.00444713 2.69895 0)
(-0.0131378 2.98516 7.96069e-19)
(-0.0180391 2.89514 0)
(-0.015432 2.98808 -2.47783e-18)
(-0.0132948 2.9252 8.4989e-19)
(-0.283514 1.29783 0)
(-0.299338 1.49754 0)
(-0.139692 1.56455 1.56492e-21)
(-0.0895722 1.37663 0)
(-0.0996344 1.3059 0)
(0.937608 -0.00765456 0)
(0.855715 -0.00964311 0)
(0.863721 0.006814 0)
(0.948911 -0.008079 0)
(0.883448 -0.00811408 0)
(0.517021 1.13325 -1.5615e-19)
(0.566632 1.18462 0)
(0.368308 0.883773 2.56133e-20)
(0.310418 0.743803 0)
(0.924802 1.07117 -1.82162e-19)
(1.03829 0.874085 3.66806e-19)
(0.373961 1.38126 0)
(0.536752 1.35119 0)
(0.545332 1.30716 0)
(0.10793 0.180701 -2.53067e-19)
(0.426349 0.229539 0)
(0.395024 0.118557 1.79631e-19)
(1.00839 0.928299 0)
(1.07431 0.775974 0)
(1.10001 0.718181 -2.94515e-19)
(1.12656 0.617245 0)
(1.17194 0.401101 5.57737e-20)
(0.957348 -0.00888225 0)
(0.962269 -0.0101011 0)
(0.901339 -0.0080273 0)
(0.98414 -0.00919552 0)
(0.974579 -0.00936476 0)
(0.936996 -0.00641469 0)
(1.00019 0.00232763 0)
(1.00091 0.0014127 0)
(0.999908 0.000845434 0)
(0.0357121 2.05122 3.55899e-19)
(0.121759 1.72711 0)
(0.0182716 2.16649 5.16226e-19)
(0.0514251 1.8451 -4.13637e-19)
(0.115922 1.19831 -3.30965e-19)
(0.0441829 1.08127 0)
(0.137421 1.06553 0)
(0.0222234 0.906277 0)
(0.0230391 0.721467 0)
(-0.0128558 2.18612 -8.17844e-23)
(0.0353336 1.99538 0)
(-0.0169377 2.15276 4.24519e-21)
(0.0321034 2.00314 -1.74762e-20)
(0.0192169 0.863456 0)
(-0.00141308 0.831316 0)
(0.0101362 0.691321 0)
(-0.0121323 0.77981 0)
(-0.0260257 0.639714 0)
(0.933378 0.00817662 0)
(0.842471 -0.0153682 0)
(0.924243 -0.000435027 0)
(0.838432 -0.0115609 0)
(0.813395 0.00326093 0)
(0.903296 0.0188167 0)
(0.881185 0.0226592 0)
(0.790169 0.00208226 0)
(0.00565229 3.06475 -7.93003e-21)
(0.0165262 3.05784 0)
(0.0146051 2.96908 0)
(0.00856277 2.87631 0)
(0.926187 3.97194 0)
(1.24103 3.30411 9.55844e-19)
(0.0701354 3.07535 0)
(-0.0283216 2.90632 0)
(-0.360288 1.5822 0)
(-0.371821 2.1289 0)
(-0.355173 1.87031 0)
(-0.212103 2.43506 -8.39898e-20)
(-0.280323 2.37488 0)
(-0.230408 2.34101 0)
(-0.0130543 1.96276 -1.9182e-21)
(-0.0547808 2.03547 -9.49342e-21)
(-0.113206 1.93885 4.62589e-21)
(-0.0627585 1.91242 0)
(0.538724 0.123149 4.75272e-19)
(0.444196 0.00802924 -4.6631e-19)
(0.261098 1.55859 0)
(0.26418 0.700895 -2.82133e-19)
(0.1777 1.64475 -9.50839e-19)
(0.225064 1.17248 9.53284e-19)
(0.902458 0.00665645 0)
(0.967597 0.0109497 0)
(0.974667 0.0107282 0)
(0.923573 0.00653628 0)
(0.00766103 0.761395 0)
(-0.0111622 0.76046 0)
(-0.0145802 0.617086 0)
(0.298081 0.243006 5.808e-19)
(0.243046 0.221072 -6.88309e-19)
(0.257073 0.177891 0)
(1.07609 0.0854314 1.95533e-20)
(1.05793 0.0397739 0)
(0.992365 0.0389829 0)
(0.88887 -0.00570553 0)
(0.562162 0.0955595 0)
(0.59178 0.0723727 -2.10208e-18)
(0.460349 -0.00270206 7.92435e-19)
(0.0091657 2.98106 6.45654e-19)
(-0.0330021 2.86587 4.57911e-20)
(0.00369104 3.05025 -1.68566e-20)
(0.0201056 3.04338 6.00813e-19)
(-0.0149752 2.99656 2.79808e-20)
(-0.0129857 2.94946 -1.12677e-22)
(-0.0172853 3.01195 -5.20077e-19)
(0.0148976 3.02376 3.76685e-19)
(0.00739895 3.0369 -5.95442e-19)
(0.931898 -0.00247848 0)
(0.937974 -0.00380751 0)
(0.843281 -0.00868204 0)
(0.956891 0.0115733 0)
(0.943327 0.0127638 0)
(0.882006 0.00633586 0)
(0.919009 0.0154822 0)
(0.927025 0.014192 0)
(0.839436 0.00485837 0)
(0.720705 1.41196 1.23545e-19)
(0.754303 1.52115 0)
(0.196492 0.344132 5.97712e-20)
(0.210614 0.648372 4.81312e-19)
(0.256563 0.717868 -2.77764e-19)
(0.270318 0.548878 5.47594e-19)
(0.320168 0.761972 1.34307e-18)
(0.125335 0.212025 3.2286e-19)
(0.470772 0.198898 6.75734e-19)
(0.447663 0.214245 1.7382e-19)
(0.40491 0.102301 3.36646e-19)
(1.16127 0.458869 1.04019e-19)
(1.17254 0.253308 1.02974e-19)
(0.0059309 2.20714 1.86827e-19)
(0.0510091 1.91478 0)
(0.956614 0.0272778 0)
(0.93466 0.0116789 0)
(0.855375 -0.0178189 0)
(0.0113483 3.07463 0)
(0.0198974 2.94413 1.08639e-18)
(0.0164448 2.95648 0)
(0.00617919 2.85063 -1.07787e-18)
(0.00619453 3.0913 2.62615e-19)
(0.00708723 3.08223 0)
(0.787394 1.82406 -1.83421e-19)
(1.24877 2.50273 4.82094e-19)
(0.769555 1.96394 -1.31332e-18)
(0.0203832 2.98258 -5.41118e-19)
(0.0358624 3.00284 0)
(-0.0335132 2.87951 0)
(-0.0118427 2.12914 -6.82987e-22)
(-0.029625 2.09147 2.64323e-20)
(0.0122667 1.9918 -6.5615e-22)
(0.275209 1.36562 9.19842e-19)
(0.217529 0.48313 -6.31591e-19)
(0.0622631 1.97322 6.84959e-19)
(0.137685 1.86371 -8.2024e-19)
(0.177924 1.4666 8.79331e-20)
(0.00317916 3.11906 -1.61594e-18)
(0.0121277 3.11925 1.767e-18)
(-0.00889515 2.9811 7.23363e-19)
(-0.00415338 2.97761 -6.73436e-19)
(-0.0212622 2.88109 -7.36734e-19)
(0.00853475 3.10022 -1.94868e-18)
(0.00217354 3.10479 1.94066e-18)
(0.264624 0.671138 0)
(0.222843 0.659809 -9.88683e-19)
(0.101572 0.221344 4.38735e-19)
(0.339241 0.884919 9.65073e-19)
(0.180022 0.25328 -1.48615e-18)
(1.16248 0.173232 3.6571e-20)
(1.17332 0.307704 0)
(1.15009 0.1209 1.82801e-20)
(-0.0066322 2.20602 -6.41285e-22)
(-0.00187987 2.20965 0)
(0.0371128 1.96066 0)
(0.336939 1.26816 -3.32642e-19)
(0.360569 1.09359 -7.14297e-19)
(0.192574 0.34702 1.26144e-18)
(1.00587 -0.0108771 0)
(1.00766 -0.00767004 4.21872e-19)
(-0.273794 1.30557 0)
(-0.218261 1.1044 0)
(1.00221 0.00346874 1.77317e-21)
(1.00367 0.00943075 8.61961e-19)
(-0.221684 2.46099 1.05561e-19)
(-0.22816 2.47513 0)
(0.0361849 3.17958 3.34264e-19)
(0.396241 3.49311 0)
(1.13231 0.65277 -3.33837e-20)
(1.013 0.0129864 -2.15439e-21)
(1.02117 -0.0105159 0)
(1.0017 0.000129212 6.82373e-23)
(0.097879 1.35385 0)
(0.144234 2.58198 0)
(0.0359822 1.29141 0)
(0.00246083 2.6223 -1.53978e-20)
(-0.0280536 2.57577 -2.16151e-20)
(1.00446 0.0277671 2.5925e-21)
(1.06157 0.00238715 0)
(1.09048 0.015531 0)
(-0.339168 2.11856 0)
(-0.176728 2.55043 0)
(-0.0300344 1.07834 0)
(0.279838 1.46327 -2.38376e-19)
(1.01124 -0.00969422 0)
(1.00938 -0.0149508 0)
(1.00237 0.000711816 5.38337e-19)
(1.00547 -0.00485106 -6.33564e-19)
(1.00117 -0.00103401 0)
(-0.332773 1.8336 0)
(-0.291793 1.34599 0)
(-0.33572 1.61492 0)
(-0.0338028 1.03896 0)
(-0.0949816 1.00906 0)
(-0.0435974 0.933253 0)
(1.03416 -0.00681196 0)
(1.02092 0.0156819 -9.57443e-22)
(0.793581 1.25715 3.2338e-19)
(1.00232 0.000294183 -5.38041e-19)
(1.00406 0.00521665 6.29128e-19)
(1.00117 0.00204679 0)
(1.01284 0.0102659 5.32831e-19)
(1.00808 0.00828391 -6.47665e-19)
(1.00861 0.0146966 0)
(-0.218136 2.57637 0)
(-0.237209 2.53933 -1.47507e-19)
(-0.250162 2.50857 1.04234e-19)
(1.20766 0.261068 4.28896e-19)
(1.14551 0.0796369 0)
(0.0455551 3.07755 -8.20272e-19)
(0.0658953 2.85318 -6.08447e-20)
(0.142511 3.19406 1.26045e-18)
(0.137151 3.22293 -1.48529e-19)
(0.135806 3.23575 0)
(0.0202394 3.13792 2.05681e-19)
(0.0771288 3.16064 8.0747e-19)
(0.0696495 3.18709 -3.89126e-19)
(0.0235191 3.12908 0)
(0.660343 0.301975 0)
(0.575872 0.364732 0)
(1.10412 0.683275 5.58633e-20)
(1.10111 0.814829 -1.49927e-20)
(1.16148 0.570301 0)
(1.19123 0.512337 0)
(1.01621 0.0132133 -9.92248e-19)
(1.01499 0.0142147 1.24445e-18)
(1.02507 -0.0100058 0)
(1.02312 -0.0119762 0)
(1.00643 0.00262121 0)
(1.01037 0.00367496 0)
(1.00449 0.00189758 0)
(1.00985 0.00601209 0)
(1.00793 0.00598549 0)
(1.00447 0.00463861 0)
(0.0897117 1.34917 0)
(0.081935 1.31832 0)
(0.113176 1.38273 0)
(0.127321 1.40265 0)
(0.144981 2.60526 0)
(0.186233 2.66696 -3.70429e-19)
(0.0994104 2.66189 0)
(0.0865769 2.66364 1.42638e-19)
(0.0413438 2.67774 -7.58273e-20)
(0.0475741 1.279 0)
(0.0590872 1.19611 0)
(0.0181272 1.31875 0)
(0.0311792 1.26657 0)
(-0.0160467 1.98393 5.42769e-20)
(-0.0347864 2.60336 -6.22172e-20)
(-0.0125063 2.66543 -5.61801e-20)
(-0.0256869 2.67389 0)
(-0.0431107 2.60773 7.23697e-20)
(-0.0375372 2.60216 5.01882e-20)
(-0.0143214 1.98423 -4.19116e-20)
(-0.0313648 2.41162 8.34317e-20)
(-0.0236016 2.42976 6.37364e-20)
(1.01345 0.0346196 1.00424e-18)
(1.00851 0.0172412 -1.24253e-18)
(1.00542 0.0415794 -1.01104e-18)
(0.98478 0.0231723 1.28736e-18)
(1.06236 0.00620509 0)
(1.04767 -0.00919512 0)
(1.08885 0.0268816 0)
(1.07094 0.00906614 0)
(1.06805 -0.00165443 0)
(1.12855 0.0713964 0)
(1.10225 0.0350224 0)
(1.10381 0.0242493 0)
(-0.237552 2.50166 1.90262e-20)
(-0.320355 2.37024 0)
(-0.289698 2.40525 0)
(-0.150183 2.59952 -6.58966e-20)
(-0.0838808 2.56009 1.61195e-22)
(-0.153117 1.97179 -3.35932e-19)
(-0.234405 1.84184 3.40073e-19)
(-0.0296306 1.34331 0)
(-0.155973 1.36439 0)
(-0.232351 1.38884 0)
(0.0263392 1.07528 0)
(-0.0225546 0.961468 0)
(0.373527 1.47692 4.24771e-19)
(0.40888 1.486 1.94062e-19)
(0.594348 2.45194 -2.12906e-19)
(0.405369 2.5451 6.17257e-19)
(0.354984 2.07994 3.54862e-20)
(1.02082 -0.00828327 0)
(1.01539 -0.00985347 0)
(1.01483 -0.0156529 0)
(1.00745 -0.00129311 0)
(1.00496 -0.000996024 0)
(1.00775 -0.004822 0)
(1.00922 -0.00385912 0)
(1.0141 -0.00456351 0)
(1.02162 0.0158316 9.67134e-19)
(1.01828 0.0157767 -1.24191e-18)
(1.02211 0.0176725 -9.72859e-19)
(1.01973 0.0163829 1.21993e-18)
(0.761835 1.30623 0)
(0.695347 1.36097 3.4182e-19)
(0.870302 1.20335 1.58904e-19)
(0.913683 1.15859 -2.115e-19)
(1.15923 2.6097 4.60014e-20)
(0.818863 0.095525 5.17526e-19)
(1.14523 0.098319 0)
(1.18767 0.186274 -3.42688e-19)
(1.17272 0.153403 -1.43641e-20)
(1.00568 0.132657 0)
(0.139084 2.96292 4.27462e-19)
(0.115857 2.86873 -1.04338e-18)
(0.0276166 2.3697 7.13719e-19)
(0.0933503 0.0121165 -3.15372e-19)
(0.340941 3.422 -2.76771e-19)
(0.194996 3.31457 0)
(0.237771 3.35682 3.60447e-19)
(0.247213 3.03588 -1.5082e-18)
(0.342082 3.19474 0)
(0.0077212 3.12066 4.13692e-20)
(0.0176525 3.12966 -4.94112e-19)
(0.0160488 3.12565 7.27265e-19)
(0.0364208 3.13964 0)
(0.0347226 3.15096 0)
(1.21711 2.60948 0)
(0.533958 0.842771 -4.47957e-19)
(1.0328 0.986656 -4.92146e-20)
(0.971451 1.05666 0)
(0.816504 0.958177 -6.75634e-20)
(1.05603 0.874648 2.96612e-20)
(0.368402 0.415004 -8.22297e-19)
(0.701761 0.326306 -2.26103e-20)
(0.685784 0.253946 3.76821e-19)
(0.591737 0.395903 2.80794e-20)
(0.511111 0.371238 -1.13364e-18)
(0.67293 0.340621 0)
(0.699231 0.427614 6.34558e-19)
(0.706526 0.42606 0)
(0.629574 0.378741 0)
(0.608359 0.305729 0)
(0.784046 0.616888 3.46739e-19)
(1.20412 0.280185 -3.69941e-19)
(1.20008 0.415473 0)
(1.21247 0.364436 0)
(0.763291 0.195998 5.61118e-19)
(0.829553 0.538565 -3.4168e-19)
(0.735339 0.5154 5.94208e-19)
(0.929404 0.419733 -6.41482e-19)
(1.01992 0.0145486 6.66442e-19)
(1.01798 0.0140955 -6.71969e-19)
(1.01595 0.0156839 0)
(1.03556 -0.00635659 0)
(1.02939 -0.00890161 -6.252e-19)
(1.02721 -0.012411 6.18943e-19)
(1.02515 0.00953778 0)
(1.02374 0.0130291 0)
(1.01138 0.0039964 0)
(1.01431 0.008837 0)
(1.01507 0.00377606 0)
(1.01418 0.00268899 0)
(0.0681196 1.33341 0)
(0.0685565 1.29471 0)
(0.14658 1.34163 9.06788e-20)
(0.259984 1.46097 1.29937e-19)
(0.150937 1.43283 2.72381e-19)
(0.181721 1.44103 -4.45744e-19)
(0.164636 1.37026 0)
(0.12538 1.59026 2.59551e-20)
(0.108466 1.55847 0)
(0.352316 2.03497 -5.15731e-20)
(0.351585 2.36706 5.09687e-19)
(0.183801 1.44008 -2.26446e-20)
(0.261189 1.36457 7.12176e-20)
(0.19177 1.3523 -5.74678e-20)
(0.268874 1.30508 2.25627e-20)
(0.236621 1.5737 0)
(0.260971 1.61539 1.712e-20)
(0.0251219 2.27552 3.15402e-21)
(0.0383196 2.67114 0)
(0.062713 2.41227 5.1571e-20)
(0.0569095 2.43318 0)
(0.0672806 2.67603 -1.58373e-19)
(0.0502253 2.69982 0)
(0.0302575 1.42543 1.03587e-19)
(0.0177165 1.46523 0)
(0.0227551 1.38992 0)
(0.0349352 1.39565 -1.15144e-19)
(-0.00170203 2.65045 -1.93539e-20)
(0.0260302 2.6973 7.60018e-20)
(0.010976 2.71849 5.11343e-22)
(0.031379 1.8747 -6.76194e-20)
(-0.00463203 1.65366 -2.37377e-20)
(0.0717012 1.19245 0)
(0.0482946 1.07865 0)
(0.0313446 1.57626 -1.28474e-19)
(0.0197329 1.44729 -1.27233e-19)
(0.0331998 1.50918 1.62839e-19)
(0.0305598 1.60083 0)
(-0.153223 2.46415 4.64309e-19)
(-0.163678 2.60137 -2.0046e-19)
(-0.0794851 2.54285 3.37644e-20)
(-0.00475826 1.89094 8.13475e-20)
(-0.0749185 2.51348 2.8953e-20)
(-0.0253601 2.45103 -6.8193e-20)
(1.02053 0.0202726 -6.61332e-19)
(1.01721 0.0253422 6.63708e-19)
(1.015 0.0163919 0)
(1.01782 0.0640141 9.09424e-19)
(0.99612 0.05523 -1.05327e-18)
(0.958123 0.0420251 1.18291e-18)
(1.01762 0.0972369 -1.24253e-19)
(1.04178 -0.00641416 0)
(1.0497 -0.00226242 5.92212e-19)
(1.03804 -0.0105087 -5.9396e-19)
(1.06865 0.0359774 -3.49539e-20)
(1.06302 0.0192637 3.02789e-19)
(1.06105 0.046858 0)
(1.05524 0.0408555 -1.08938e-19)
(1.03258 0.037934 0)
(1.02653 0.0346125 0)
(1.02763 0.0123251 0)
(1.02437 0.0152354 0)
(1.03864 0.0286648 2.25003e-19)
(1.03824 0.0245516 -4.98756e-19)
(1.0507 0.0298645 -2.3804e-19)
(1.04747 0.0296873 -2.62187e-19)
(1.07008 0.052671 5.09163e-19)
(1.08946 0.0415767 0)
(1.09616 0.0871774 0)
(-0.163749 2.47524 2.36885e-19)
(-0.251358 2.35534 2.61718e-20)
(-0.23968 2.37326 0)
(-0.234661 2.53145 -2.20503e-19)
(-0.249674 2.51254 -4.31373e-20)
(-0.230877 2.53312 3.91989e-20)
(-0.0529245 2.60839 -3.99524e-20)
(-0.094806 2.56567 3.68047e-21)
(-0.062788 2.53942 -1.72736e-20)
(-0.0814757 2.59182 2.25032e-20)
(-0.0462955 2.59099 -2.83714e-20)
(0.0277315 1.61495 6.6569e-21)
(-0.0268245 1.97461 -3.36817e-19)
(0.363872 1.41509 -1.95788e-19)
(0.361716 1.35535 -9.50643e-20)
(0.64282 1.40655 -3.30536e-19)
(0.509616 1.47202 -1.87829e-19)
(0.561075 1.44554 0)
(0.590271 2.42672 1.85658e-19)
(0.657429 2.41735 3.04082e-19)
(0.410938 2.52143 8.12013e-20)
(0.405269 2.55639 -4.86794e-19)
(0.515477 2.50718 5.02878e-19)
(0.548854 2.46536 0)
(0.488184 2.51726 -5.00409e-19)
(0.247237 2.59376 1.00378e-18)
(0.353076 2.5703 -8.16107e-20)
(0.284341 2.65434 -1.39961e-18)
(0.937093 2.38405 5.84741e-19)
(0.831514 2.38791 0)
(1.01106 0.000279484 2.17775e-20)
(1.01534 -0.00556221 -1.77291e-20)
(1.01749 -0.00368179 -3.22232e-19)
(1.01488 -0.00115654 3.24519e-19)
(1.01235 0.0008042 0)
(0.630228 1.27322 0)
(0.651966 1.1684 0)
(0.752185 1.07568 0)
(0.643307 1.13589 0)
(1.18714 2.625 5.86691e-20)
(1.07759 2.36954 0)
(0.843754 2.19273 2.20207e-21)
(0.82814 2.46103 0)
(0.923131 2.54864 -2.8854e-19)
(0.959906 2.50287 1.92198e-19)
(0.830474 0.146172 0)
(0.801218 0.131668 1.43192e-19)
(0.924914 0.122956 8.09213e-19)
(0.849152 0.119658 -3.08443e-19)
(0.829541 0.0611864 -9.37039e-19)
(1.06401 0.222394 -7.38357e-19)
(0.983638 0.276833 -1.56348e-20)
(0.911676 0.272829 7.53339e-19)
(0.997707 0.204998 6.16955e-19)
(0.94779 0.163634 -1.06756e-18)
(0.917621 0.169907 1.34322e-19)
(0.945409 0.233071 -2.84073e-19)
(0.924279 0.19362 0)
(0.993828 0.165312 5.24486e-19)
(1.04073 0.171082 0)
(1.03679 0.197587 0)
(1.09435 0.108861 2.3596e-19)
(1.06778 0.162065 -1.35674e-20)
(1.05809 0.226206 -1.28846e-19)
(1.09002 0.194819 0)
(1.02327 0.0422633 5.11784e-19)
(1.04299 0.0514732 6.32831e-19)
(1.03354 0.0394903 -5.08012e-19)
(1.04436 0.0566089 -4.24258e-19)
(1.01876 0.0653156 -6.43666e-19)
(0.991418 0.137347 0)
(1.00296 0.0921461 0)
(0.973634 0.0579866 -4.22026e-19)
(0.925711 0.0744676 1.67786e-19)
(1.04173 0.0924054 5.8869e-19)
(1.06879 0.109734 -6.84436e-19)
(1.07322 0.141069 6.13582e-19)
(1.03438 0.130117 0)
(1.07448 0.0955301 0)
(1.06027 0.077607 -2.79032e-19)
(1.04957 0.0859687 -4.80919e-19)
(0.586407 1.08649 7.28049e-20)
(0.616544 1.41376 2.62033e-20)
(1.15847 2.74144 -1.33317e-19)
(1.22453 3.08263 -1.9537e-20)
(1.25045 2.72382 6.96278e-20)
(1.28053 2.70762 -1.20824e-19)
(1.20897 2.34815 -9.89141e-21)
(1.21185 2.98654 -9.80985e-21)
(1.23135 2.95163 1.04681e-19)
(1.2155 3.23646 -1.80433e-19)
(1.37665 2.96835 2.49564e-19)
(1.36737 2.88673 0)
(0.540443 0.849598 -3.92512e-20)
(0.139973 1.26227 5.15547e-19)
(0.526815 0.470838 5.34393e-19)
(0.361198 0.22287 5.86368e-19)
(0.530582 0.401274 6.38529e-19)
(0.538632 0.489567 -1.04225e-18)
(0.541458 0.495413 8.52582e-19)
(0.49569 0.420924 -3.22381e-19)
(0.424923 0.359789 7.35676e-19)
(0.766282 0.25287 -3.19791e-19)
(0.725906 0.290802 0)
(0.722175 0.225419 9.94476e-21)
(0.714793 0.514263 3.32551e-19)
(0.686649 0.487392 -1.21469e-18)
(0.607255 0.488309 1.6504e-20)
(0.623029 0.471535 0)
(0.666963 0.739243 3.30727e-19)
(0.812936 0.769191 3.0825e-19)
(0.742334 0.853123 -3.62933e-19)
(0.855134 0.80086 -1.22682e-19)
(0.888372 0.841421 -2.55059e-20)
(0.896688 0.842944 2.61066e-20)
(0.823407 0.643399 -5.77734e-19)
(0.900237 0.695912 1.13977e-19)
(0.958467 0.709716 0)
(0.947446 0.686004 -1.56421e-19)
(1.00922 0.317986 1.79457e-19)
(1.11742 0.289638 2.24765e-19)
(1.04844 0.260387 3.01662e-19)
(0.990042 0.351222 -3.65753e-19)
(1.03124 0.417825 0)
(1.08523 0.40523 0)
(0.899647 0.349054 4.61992e-21)
(0.838292 0.283073 0)
(0.86081 0.274858 3.59603e-19)
(0.896182 0.279135 -6.27883e-21)
(0.920653 0.422978 1.78349e-18)
(0.877134 0.484632 4.58878e-19)
(0.882714 0.449403 -5.00395e-19)
(0.813313 0.43727 5.36127e-19)
(0.795213 0.43139 3.28113e-19)
(0.767464 0.417288 -3.22455e-19)
(1.02704 -0.000730328 5.35532e-19)
(1.02005 -0.000366852 0)
(1.01858 0.000542023 3.49548e-19)
(1.02127 -0.00208113 -7.9112e-19)
(1.02246 0.00401685 3.84554e-19)
(1.02051 0.01081 -8.05385e-19)
(1.02153 0.0102306 0)
(1.02084 0.0105194 -1.68091e-19)
(1.0161 0.00738371 4.21677e-19)
(1.01679 0.0101781 -2.10368e-19)
(1.01748 0.00955186 1.54973e-19)
(0.0407867 1.31955 0)
(0.0334672 1.3616 0)
(0.0522017 1.31661 0)
(0.0352373 1.27772 0)
(0.0761844 1.36979 -2.14325e-19)
(0.0816637 1.34111 7.28464e-20)
(0.10327 1.4916 3.30803e-20)
(0.0881773 1.3369 -4.60865e-20)
(0.0294872 1.45236 1.12836e-19)
(0.0350159 1.44335 -8.67347e-20)
(0.0670737 1.35115 -6.13468e-21)
(0.0590676 1.35361 1.38789e-19)
(0.0504021 1.33159 1.97792e-20)
(0.0360263 1.35883 1.54278e-20)
(0.105168 2.38741 -5.57443e-20)
(0.0932802 2.42943 0)
(0.163909 2.06465 6.87535e-20)
(0.110855 1.7093 1.224e-21)
(0.227163 2.05962 -5.4527e-20)
(0.211017 2.45594 0)
(0.268197 2.40859 -4.5006e-19)
(0.304422 2.40733 3.20463e-19)
(0.22866 2.0181 -1.51185e-19)
(0.149909 2.18463 1.13929e-19)
(0.145624 2.30659 0)
(0.0216931 1.88638 1.19545e-19)
(-0.0105511 2.40406 6.20588e-20)
(-0.00433903 2.1577 0)
(0.00520223 2.46416 -1.27764e-20)
(0.019982 2.31393 -4.65581e-20)
(0.0620913 1.42694 -2.18006e-20)
(0.111648 1.37819 3.87591e-19)
(0.0997807 1.42667 -1.31558e-19)
(0.0512454 1.4313 -1.04812e-19)
(0.0476658 1.44121 0)
(0.0956544 1.40384 0)
(0.00969752 1.0997 -2.14186e-19)
(0.107665 1.35285 6.44637e-20)
(0.122138 1.3607 0)
(0.0545994 1.11262 -1.32174e-19)
(0.0379434 0.947978 2.89572e-19)
(1.04035 0.0106696 0)
(1.04548 0.00713161 -5.56094e-20)
(1.03837 0.0205266 -4.01258e-19)
(1.04757 0.0190851 0)
(1.05206 0.0187122 0)
(1.03592 0.0104659 -6.4152e-21)
(1.03141 0.0103274 6.45085e-19)
(1.0316 0.0152471 7.847e-19)
(1.02606 0.0191011 0)
(1.02351 0.0198165 0)
(1.03481 0.0234054 4.00785e-19)
(1.02609 0.0247697 0)
(1.02534 0.02437 0)
(0.0114559 2.15081 0)
(0.00348761 1.95837 2.10394e-20)
(-0.00703028 2.05467 -1.1556e-19)
(0.081271 1.35491 0)
(0.112103 1.68837 -1.19837e-19)
(0.11015 1.49227 1.16371e-19)
(0.0717567 1.34553 0)
(0.395265 1.69015 0)
(0.362184 1.28219 1.45677e-19)
(0.305703 1.33711 0)
(0.417635 1.28181 -2.42229e-19)
(0.461596 1.44495 0)
(0.442975 1.38934 1.30087e-19)
(1.033 2.69435 -1.22886e-20)
(0.959932 2.41512 -7.35668e-19)
(0.907172 2.18626 8.52346e-19)
(0.844276 2.38015 2.06285e-19)
(0.84557 2.5084 0)
(0.915953 2.50229 0)
(0.920403 2.37795 0)
(0.897976 2.36319 -7.9846e-19)
(0.692995 2.48061 -2.78396e-19)
(0.802002 2.4722 -7.16782e-20)
(0.81379 2.44325 5.48183e-20)
(0.691909 2.39397 0)
(0.795813 2.39135 0)
(0.754793 2.40284 -3.25149e-19)
(0.769872 2.4994 0)
(0.614139 1.09041 0)
(0.486923 0.931825 -3.60334e-19)
(0.55575 0.965149 -2.32437e-20)
(0.527748 1.06291 0)
(0.526582 1.0118 5.41719e-19)
(0.766239 0.87768 -9.17335e-20)
(0.777706 1.01 0)
(0.750511 0.965254 1.21503e-19)
(0.64096 1.03151 0)
(0.644844 0.942962 0)
(1.16582 2.7629 -1.49813e-19)
(1.14385 2.82649 -3.49565e-20)
(0.935246 2.34834 -8.17935e-21)
(0.902385 2.32762 -4.94561e-20)
(1.13064 2.7372 0)
(1.08351 2.7079 5.96259e-20)
(1.09003 2.49038 -2.50927e-19)
(0.985643 2.2359 -3.07954e-20)
(0.505369 1.36807 0)
(0.518959 1.08187 -6.42779e-20)
(0.558926 1.15676 0)
(0.860065 0.213224 0)
(0.807243 0.169254 0)
(0.764667 0.148336 0)
(0.854495 0.222625 -5.65905e-19)
(0.784165 0.21359 3.35696e-19)
(0.935804 0.060817 -3.46008e-19)
(0.950287 0.10607 0)
(0.926671 0.111331 1.50303e-19)
(0.872945 0.0884234 6.04372e-19)
(0.854563 0.0493848 -3.76947e-19)
(1.16263 3.36209 -7.98522e-19)
(1.21032 3.28127 0)
(1.16111 3.39029 -1.62157e-18)
(0.648335 3.55116 1.38217e-18)
(0.872973 3.11853 1.63182e-19)
(0.514099 0.855854 4.93973e-19)
(0.433292 0.851208 0)
(0.339586 0.503908 -1.32539e-19)
(0.441538 0.687916 7.26355e-19)
(0.529281 0.476708 -1.82149e-19)
(0.504504 0.526917 2.07348e-19)
(0.650391 0.542577 4.50224e-19)
(0.678599 0.560891 0)
(0.631862 0.624716 0)
(0.589602 0.562234 0)
(0.956372 0.595822 5.99915e-20)
(0.880456 0.534557 -4.46116e-19)
(0.903096 0.566297 3.24631e-19)
(0.938465 0.501871 -3.43744e-19)
(1.04255 0.475869 0)
(1.05177 0.565077 -7.81025e-20)
(0.837518 0.387021 -7.45185e-19)
(0.841737 0.371947 -9.08766e-19)
(0.790554 0.385679 5.81847e-19)
(0.784538 0.356443 -6.07356e-19)
(0.837331 0.310585 -4.68446e-19)
(0.792357 0.308945 5.75975e-19)
(1.02668 0.0055533 -4.14752e-19)
(1.0263 0.00586165 8.49466e-19)
(1.02936 -0.00040264 5.17668e-19)
(1.03313 0.000578638 -6.23433e-19)
(1.03295 0.00763185 0)
(1.02998 0.00857915 -1.00843e-18)
(0.0541308 1.64409 -3.76204e-23)
(0.0374407 1.57163 0)
(0.0778634 1.69295 -4.39796e-20)
(0.082398 1.67775 4.57983e-20)
(0.0824987 1.52159 -6.20718e-20)
(0.0892697 1.50504 0)
(0.0820985 1.76959 0)
(0.0716274 1.60536 4.57794e-20)
(0.100719 1.48875 -4.11054e-20)
(0.0924909 1.66484 1.73959e-20)
(0.0360158 2.02081 8.4155e-20)
(0.030361 2.01226 -2.21841e-20)
(0.499829 1.37897 -6.68572e-20)
(0.492868 1.38481 7.6217e-20)
(0.439525 1.27988 1.01137e-19)
(0.435413 1.29509 -2.05017e-21)
(0.624317 1.28751 0)
(0.538658 1.37512 2.22349e-19)
(0.556658 1.38382 -2.1654e-19)
(0.446002 1.26935 -9.7603e-20)
(0.503842 1.2224 0)
(0.56018 1.19328 0)
(0.659452 2.44002 4.0906e-19)
(0.669804 2.47308 1.04355e-18)
(0.717369 2.48811 -7.18147e-19)
(0.619756 2.46901 -1.8099e-19)
(0.563349 2.55899 2.28141e-19)
(0.512802 2.53151 -6.14645e-19)
(0.973745 2.38043 -4.7417e-19)
(1.01239 2.396 0)
(0.919623 2.16595 -5.57856e-19)
(1.0528 2.68811 0)
(1.05506 2.67509 0)
(0.61319 2.27814 -1.38994e-20)
(1.0431 3.16485 2.36709e-19)
(0.914206 3.03522 -1.54006e-19)
(0.283766 0.921608 0)
(0.322655 0.782639 -2.70669e-19)
(0.479632 0.736775 -2.47833e-19)
(0.389989 2.02667 0)
(0.468996 2.78755 -1.13611e-19)
(0.424239 2.5518 0)
(0.677124 0.687738 -6.99076e-19)
(0.757033 0.680242 9.48996e-19)
(0.775869 0.624823 -9.3847e-19)
(0.657348 0.650001 -9.25194e-20)
(0.712866 0.600614 -3.83593e-19)
(1.00555 2.76851 -1.79987e-19)
(1.0426 2.82414 -3.30856e-20)
(0.640125 2.15291 4.9698e-19)
(0.598398 1.7212 -3.63734e-19)
(0.702045 1.91123 -2.58202e-19)
(0.991716 2.45165 -1.01712e-19)
(0.99632 2.44403 1.65098e-19)
(0.661317 1.85003 1.85839e-20)
(0.454772 1.34116 8.13371e-20)
)
;

boundaryField
{
    wall-4
    {
        type            noSlip;
    }
    velocity-inlet-5
    {
        type            fixedValue;
        value           uniform (1 0 0);
    }
    velocity-inlet-6
    {
        type            fixedValue;
        value           uniform (0 3 0);
    }
    pressure-outlet-7
    {
        type            zeroGradient;
    }
    wall-8
    {
        type            noSlip;
    }
    frontAndBackPlanes
    {
        type            empty;
    }
}


// ************************************************************************* //
