/*--------------------------------*- C++ -*----------------------------------*\
  =========                 |
  \\      /  F ield         | OpenFOAM: The Open Source CFD Toolbox
   \\    /   O peration     | Website:  https://openfoam.org
    \\  /    A nd           | Version:  9
     \\/     M anipulation  |
\*---------------------------------------------------------------------------*/
FoamFile
{
    format      ascii;
    class       volScalarField;
    location    "0.1";
    object      p;
}
// * * * * * * * * * * * * * * * * * * * * * * * * * * * * * * * * * * * * * //

dimensions      [0 2 -2 0 0 0 0];

internalField   nonuniform List<scalar> 
400
(
6.22832e-08
-0.00573351
-0.0127416
-0.0180723
-0.0200051
-0.0177772
-0.0113327
-0.00111273
0.0120973
0.0272711
0.0432183
0.0586575
0.0723009
0.0829621
0.0896925
0.091951
0.0898057
0.0841524
0.0769178
0.0711919
0.00567999
-0.000222241
-0.00570583
-0.00935433
-0.0103445
-0.00814477
-0.00268437
0.00572343
0.0164877
0.0288128
0.0417593
0.0543089
0.0654412
0.0742261
0.0799355
0.0821699
0.0810051
0.0770785
0.071399
0.0655302
0.0131019
0.0049288
-0.000996812
-0.00434412
-0.00513296
-0.00308667
0.00179136
0.00920409
0.0186453
0.0294442
0.0408048
0.0518557
0.0617135
0.0695615
0.0747404
0.0768503
0.0758802
0.0722105
0.066032
0.0578768
0.0197838
0.00850511
0.00115055
-0.00266214
-0.00365273
-0.00177217
0.00286827
0.00992656
0.0189106
0.0292003
0.0400645
0.0506935
0.0602471
0.067921
0.0730219
0.0750605
0.0738907
0.0696681
0.0619291
0.0505769
0.0240677
0.00952808
0.000469102
-0.00402387
-0.00527301
-0.00342753
0.00128949
0.00846928
0.0176024
0.0280827
0.0392028
0.0501686
0.0601323
0.0682449
0.0737217
0.0759327
0.0745686
0.0695774
0.059937
0.0451212
0.0247286
0.00689627
-0.00393083
-0.00910293
-0.0104897
-0.00842118
-0.00323347
0.00458529
0.014489
0.0258616
0.0379925
0.0500716
0.061206
0.0704583
0.0769027
0.0797199
0.0784015
0.0726809
0.0610124
0.0425454
0.0207014
-0.000473186
-0.01303
-0.0187267
-0.0199797
-0.0173036
-0.0111559
-0.00211472
0.00922602
0.0222289
0.0361662
0.0501949
0.0633525
0.074579
0.0827612
0.0868342
0.0860347
0.0798363
0.0661273
0.0437542
0.0108776
-0.0137363
-0.027898
-0.033809
-0.0344947
-0.0306873
-0.0229854
-0.0120675
0.0014215
0.0168249
0.0334022
0.0502783
0.0664145
0.0806068
0.0915117
0.0977519
0.0982253
0.0920495
0.0764087
0.0497818
-0.00604819
-0.0342513
-0.0497889
-0.055414
-0.0548995
-0.0492644
-0.0392832
-0.0257472
-0.00934571
0.00926408
0.0293534
0.0500398
0.0702247
0.0885572
0.10343
0.113076
0.115937
0.110613
0.0933261
0.0620193
-0.0317172
-0.0637026
-0.0802133
-0.0847689
-0.0821369
-0.0737402
-0.0605822
-0.0435783
-0.0234428
-0.000794245
0.0237013
0.0492083
0.074617
0.0984575
0.118844
0.133546
0.140396
0.137232
0.118889
0.0824501
-0.0682972
-0.104267
-0.121018
-0.12325
-0.117145
-0.104709
-0.087241
-0.0657859
-0.0410424
-0.0135229
0.0162528
0.0475897
0.0794593
0.110349
0.138127
0.16004
0.173143
0.17417
0.155906
0.113969
-0.118824
-0.158878
-0.174484
-0.172338
-0.160714
-0.142457
-0.11923
-0.0921832
-0.0619232
-0.0287503
0.00708739
0.0451752
0.0847175
0.124307
0.161673
0.193555
0.216077
0.224433
0.208359
0.160895
-0.187896
-0.231664
-0.243445
-0.23349
-0.213241
-0.186673
-0.155836
-0.121895
-0.0852234
-0.0457475
-0.00326889
0.0422711
0.0905297
0.140449
0.189859
0.235148
0.271455
0.29197
0.281964
0.229894
-0.283169
-0.328692
-0.331333
-0.307842
-0.274293
-0.236005
-0.195273
-0.153041
-0.109192
-0.0630371
-0.0137027
0.0395864
0.0972283
0.158875
0.222883
0.285705
0.341726
0.381815
0.385042
0.331811
-0.418538
-0.4591
-0.441915
-0.395439
-0.341814
-0.28741
-0.234225
-0.182449
-0.131034
-0.0783365
-0.0225291
0.0381516
0.105179
0.179381
0.260307
0.345317
0.428871
0.499862
0.529711
0.485242
-0.619876
-0.636291
-0.578371
-0.493988
-0.411083
-0.335485
-0.267534
-0.205624
-0.147072
-0.0888277
-0.027821
0.038953
0.114363
0.200943
0.300343
0.412288
0.533197
0.651854
0.732725
0.722152
-0.93547
-0.878237
-0.741614
-0.59793
-0.474424
-0.372666
-0.288789
-0.217558
-0.153618
-0.0920185
-0.0282042
0.0422235
0.123753
0.221127
0.339228
0.482346
0.652088
0.841348
1.01516
1.09721
-1.4762
-1.20655
-0.920563
-0.691558
-0.517521
-0.387727
-0.290145
-0.213282
-0.147918
-0.0868778
-0.0241477
0.0459265
0.12939
0.233457
0.367389
0.542849
0.771355
1.05929
1.40316
1.72986
-2.53962
-1.63063
-1.04466
-0.711299
-0.496143
-0.352454
-0.254786
-0.183683
-0.126093
-0.0733522
-0.0188937
0.0432433
0.119691
0.219226
0.355175
0.548235
0.826524
1.2366
1.91159
2.92399
-4.36673
-2.04481
-0.973888
-0.563688
-0.35844
-0.240727
-0.17059
-0.124071
-0.0875473
-0.0533505
-0.0162967
0.0281646
0.0851916
0.162324
0.272954
0.44254
0.718528
1.22587
2.41106
4.84844
)
;

boundaryField
{
    movingWall
    {
        type            zeroGradient;
    }
    fixedWalls
    {
        type            zeroGradient;
    }
    frontAndBack
    {
        type            empty;
    }
}


// ************************************************************************* //
