/*--------------------------------*- C++ -*----------------------------------*\
  =========                 |
  \\      /  F ield         | OpenFOAM: The Open Source CFD Toolbox
   \\    /   O peration     | Website:  https://openfoam.org
    \\  /    A nd           | Version:  9
     \\/     M anipulation  |
\*---------------------------------------------------------------------------*/
FoamFile
{
    format      ascii;
    class       surfaceScalarField;
    location    "0.1";
    object      phi;
}
// * * * * * * * * * * * * * * * * * * * * * * * * * * * * * * * * * * * * * //

dimensions      [0 3 -1 0 0 0 0];

internalField   nonuniform List<scalar> 
760
(
1.39811e-08
-1.39816e-08
-2.19534e-08
3.59347e-08
-1.12597e-07
9.06428e-08
-2.41727e-07
1.29131e-07
-3.89873e-07
1.48145e-07
-5.38631e-07
1.48758e-07
-6.72181e-07
1.3355e-07
-7.77855e-07
1.05674e-07
-8.46264e-07
6.84077e-08
-8.71343e-07
2.50792e-08
-8.50493e-07
-2.085e-08
-7.8482e-07
-6.5673e-08
-6.79436e-07
-1.05384e-07
-5.43699e-07
-1.35738e-07
-3.91226e-07
-1.52473e-07
-2.39455e-07
-1.51772e-07
-1.08407e-07
-1.31048e-07
-1.83316e-08
-9.00755e-08
1.5399e-08
-3.37299e-08
1.53994e-08
-3.36833e-08
1.97014e-08
-1.77504e-07
1.79756e-07
-4.26985e-07
3.40123e-07
-7.51943e-07
4.54088e-07
-1.11352e-06
5.09719e-07
-1.47232e-06
5.07561e-07
-1.79282e-06
4.54049e-07
-2.04563e-06
3.58483e-07
-2.20863e-06
2.31405e-07
-2.26758e-06
8.40288e-08
-2.21664e-06
-7.17866e-08
-2.0589e-06
-2.23413e-07
-1.80682e-06
-3.5746e-07
-1.48243e-06
-4.60135e-07
-1.11677e-06
-5.18128e-07
-7.48297e-07
-5.20246e-07
-4.19356e-07
-4.59989e-07
-1.70366e-07
-3.39067e-07
-3.04396e-08
-1.73657e-07
-1.50399e-08
-9.07393e-08
1.10441e-07
-3.51255e-07
4.40272e-07
-7.52216e-07
7.41084e-07
-1.24788e-06
9.49749e-07
-1.78501e-06
1.04685e-06
-2.31039e-06
1.03294e-06
-2.7758e-06
9.19463e-07
-3.14111e-06
7.23784e-07
-3.37593e-06
4.66229e-07
-3.46072e-06
1.68825e-07
-3.38753e-06
-1.44983e-07
-3.16065e-06
-4.50294e-07
-2.79719e-06
-7.20914e-07
-2.32719e-06
-9.30139e-07
-1.79276e-06
-1.05256e-06
-1.24583e-06
-1.06718e-06
-7.4368e-07
-9.62134e-07
-3.42114e-07
-7.40632e-07
-8.61466e-08
-4.29626e-07
-1.01186e-07
-1.42937e-07
2.53378e-07
-5.17362e-07
8.14698e-07
-1.065e-06
1.28872e-06
-1.72056e-06
1.60531e-06
-2.41631e-06
1.7426e-06
-3.08757e-06
1.7042e-06
-3.67699e-06
1.50888e-06
-4.13726e-06
1.18406e-06
-4.43275e-06
7.61719e-07
-4.54048e-06
2.76552e-07
-4.45089e-06
-2.34572e-07
-4.16862e-06
-7.32561e-07
-3.7132e-06
-1.17634e-06
-3.11936e-06
-1.52398e-06
-2.43649e-06
-1.73542e-06
-1.72654e-06
-1.77713e-06
-1.05976e-06
-1.62891e-06
-5.0818e-07
-1.29221e-06
-1.37443e-07
-8.00362e-07
-2.38628e-07
-1.90841e-07
4.44219e-07
-6.75424e-07
1.29928e-06
-1.36636e-06
1.97966e-06
-2.17654e-06
2.41548e-06
-3.02266e-06
2.58872e-06
-3.8293e-06
2.51085e-06
-4.53183e-06
2.2114e-06
-5.07805e-06
1.73028e-06
-5.42908e-06
1.11275e-06
-5.55978e-06
4.07248e-07
-5.4592e-06
-3.35147e-07
-5.1314e-06
-1.06037e-06
-4.59638e-06
-1.71136e-06
-3.89106e-06
-2.22929e-06
-3.06961e-06
-2.55688e-06
-2.20231e-06
-2.64443e-06
-1.37238e-06
-2.45884e-06
-6.70166e-07
-1.99443e-06
-1.85452e-07
-1.28508e-06
-4.2408e-07
-2.37013e-07
6.81231e-07
-8.30355e-07
1.89263e-06
-1.6634e-06
2.8127e-06
-2.62562e-06
3.3777e-06
-3.6173e-06
3.5804e-06
-4.55264e-06
3.44619e-06
-5.36113e-06
3.01989e-06
-5.98757e-06
2.35672e-06
-6.39155e-06
1.51674e-06
-6.54682e-06
5.62516e-07
-6.44116e-06
-4.40811e-07
-6.07703e-06
-1.42449e-06
-5.47304e-06
-2.31535e-06
-4.66588e-06
-3.03646e-06
-3.71215e-06
-3.51061e-06
-2.68916e-06
-3.66741e-06
-1.69339e-06
-3.45461e-06
-8.35796e-07
-2.85203e-06
-2.33684e-07
-1.88719e-06
-6.57764e-07
-2.84002e-07
9.65233e-07
-9.87782e-07
2.59641e-06
-1.96366e-06
3.78858e-06
-3.07594e-06
4.48998e-06
-4.2079e-06
4.71237e-06
-5.2642e-06
4.50249e-06
-6.17028e-06
3.92597e-06
-6.87021e-06
3.05665e-06
-7.32405e-06
1.97059e-06
-7.50574e-06
7.44207e-07
-7.40198e-06
-5.44571e-07
-7.01265e-06
-1.81382e-06
-6.35279e-06
-2.97521e-06
-5.45592e-06
-3.93333e-06
-4.37811e-06
-4.58842e-06
-3.20151e-06
-4.84401e-06
-2.03557e-06
-4.62055e-06
-1.01398e-06
-3.87362e-06
-2.85856e-07
-2.61531e-06
-9.4362e-07
-3.34096e-07
1.29933e-06
-1.15281e-06
3.41512e-06
-2.27305e-06
4.90882e-06
-3.53142e-06
5.74835e-06
-4.79404e-06
5.97498e-06
-5.95782e-06
5.66627e-06
-6.94717e-06
4.91531e-06
-7.70868e-06
3.81816e-06
-8.20579e-06
2.4677e-06
-8.41449e-06
9.52908e-07
-8.32096e-06
-6.38103e-07
-7.92149e-06
-2.21329e-06
-7.22498e-06
-3.67172e-06
-6.25794e-06
-4.90037e-06
-5.07145e-06
-5.77491e-06
-3.74855e-06
-6.1669e-06
-2.4098e-06
-5.95931e-06
-1.21326e-06
-5.07016e-06
-3.45571e-07
-3.48299e-06
-1.28919e-06
-3.89507e-07
1.68884e-06
-1.32996e-06
4.35557e-06
-2.59516e-06
6.17402e-06
-3.99036e-06
7.14355e-06
-5.36509e-06
7.34971e-06
-6.61201e-06
6.9132e-06
-7.65929e-06
5.96259e-06
-8.46095e-06
4.61983e-06
-8.98792e-06
2.99466e-06
-9.22106e-06
1.18606e-06
-9.14717e-06
-7.11997e-07
-8.75811e-06
-2.60235e-06
-8.0537e-06
-4.37613e-06
-7.04841e-06
-5.90565e-06
-5.78177e-06
-7.04155e-06
-4.33108e-06
-7.6176e-06
-2.82334e-06
-7.46704e-06
-1.44133e-06
-6.45218e-06
-4.16434e-07
-4.50789e-06
-1.70562e-06
-4.52988e-07
2.14182e-06
-1.52403e-06
5.42661e-06
-2.93143e-06
7.58142e-06
-4.44435e-06
8.65647e-06
-5.89789e-06
8.80326e-06
-7.18657e-06
8.20187e-06
-8.24969e-06
7.02571e-06
-9.05569e-06
5.42583e-06
-9.58861e-06
3.52758e-06
-9.83813e-06
1.43557e-06
-9.79353e-06
-7.56601e-07
-9.44187e-06
-2.954e-06
-8.77083e-06
-5.04718e-06
-7.77674e-06
-6.89974e-06
-6.47868e-06
-8.33962e-06
-4.93769e-06
-9.15858e-06
-3.27832e-06
-9.12642e-06
-1.70515e-06
-8.02535e-06
-5.02534e-07
-5.7105e-06
-2.20816e-06
-5.28952e-07
2.67078e-06
-1.74158e-06
6.63924e-06
-3.28144e-06
9.12128e-06
-4.87652e-06
1.02516e-05
-6.35301e-06
1.02797e-05
-7.6175e-06
9.46636e-06
-8.63125e-06
8.03947e-06
-9.38637e-06
6.18095e-06
-9.88708e-06
4.02829e-06
-1.01367e-05
1.68518e-06
-1.01297e-05
-7.63548e-07
-9.84893e-06
-3.23482e-06
-9.26718e-06
-5.62892e-06
-8.35626e-06
-7.81065e-06
-7.10369e-06
-9.59219e-06
-5.53923e-06
-1.0723e-05
-3.7693e-06
-1.08964e-05
-2.01122e-06
-9.78342e-06
-6.09344e-07
-7.11238e-06
-2.8175e-06
-6.25336e-07
3.29611e-06
-1.99278e-06
8.00668e-06
-3.64209e-06
1.07706e-05
-5.2572e-06
1.18667e-05
-6.66767e-06
1.16902e-05
-7.80873e-06
1.06074e-05
-8.67849e-06
8.90923e-06
-9.30387e-06
6.80633e-06
-9.71693e-06
4.44135e-06
-9.93972e-06
1.90797e-06
-9.97535e-06
-7.27925e-07
-9.80372e-06
-3.40644e-06
-9.38211e-06
-6.05053e-06
-8.65235e-06
-8.54042e-06
-7.55849e-06
-1.0686e-05
-6.07941e-06
-1.22021e-05
-4.27858e-06
-1.26972e-05
-2.36547e-06
-1.16965e-05
-7.45193e-07
-8.73266e-06
-3.56269e-06
-7.56629e-07
4.05274e-06
-2.29266e-06
9.54271e-06
-4.00288e-06
1.24808e-05
-5.53323e-06
1.3397e-05
-6.74186e-06
1.28989e-05
-7.61815e-06
1.14837e-05
-8.21569e-06
9.50676e-06
-8.6076e-06
7.19824e-06
-8.86002e-06
4.69378e-06
-9.01748e-06
2.06542e-06
-9.09468e-06
-6.50723e-07
-9.07183e-06
-3.4293e-06
-8.89263e-06
-6.22973e-06
-8.46751e-06
-8.96554e-06
-7.68761e-06
-1.14659e-05
-6.45887e-06
-1.34309e-05
-4.7662e-06
-1.43899e-05
-2.77132e-06
-1.36914e-05
-9.23614e-07
-1.05804e-05
-4.48631e-06
-9.4833e-07
5.00107e-06
-2.65873e-06
1.12531e-05
-4.33072e-06
1.41528e-05
-5.60362e-06
1.46699e-05
-6.41168e-06
1.37069e-05
-6.83418e-06
1.19062e-05
-6.99983e-06
9.67241e-06
-7.03541e-06
7.23381e-06
-7.04224e-06
4.70061e-06
-7.08685e-06
2.11004e-06
-7.19685e-06
-5.40728e-07
-7.35699e-06
-3.26915e-06
-7.50431e-06
-6.08241e-06
-7.52405e-06
-8.9458e-06
-7.25347e-06
-1.17365e-05
-6.50752e-06
-1.41768e-05
-5.14838e-06
-1.5749e-05
-3.22204e-06
-1.56178e-05
-1.16627e-06
-1.26361e-05
-5.65258e-06
-1.24058e-06
6.24165e-06
-3.09412e-06
1.31067e-05
-4.52887e-06
1.55875e-05
-5.26746e-06
1.54085e-05
-5.40043e-06
1.38399e-05
-5.13871e-06
1.16445e-05
-4.69797e-06
9.23167e-06
-4.25428e-06
6.79012e-06
-3.93443e-06
4.38076e-06
-3.81883e-06
1.99443e-06
-3.94513e-06
-4.14422e-07
-4.3074e-06
-2.90689e-06
-4.84851e-06
-5.5413e-06
-5.44672e-06
-8.34759e-06
-5.90185e-06
-1.12814e-05
-5.93723e-06
-1.41414e-05
-5.25161e-06
-1.64346e-05
-3.67531e-06
-1.71941e-05
-1.50256e-06
-1.48089e-05
-7.15514e-06
-1.67671e-06
7.91836e-06
-3.52331e-06
1.49533e-05
-4.33522e-06
1.63995e-05
-4.12063e-06
1.51939e-05
-3.23747e-06
1.29567e-05
-2.05558e-06
1.04626e-05
-8.63138e-07
8.03923e-06
1.42395e-07
5.78459e-06
8.35334e-07
3.68782e-06
1.14026e-06
1.6895e-06
1.01804e-06
-2.92194e-07
4.6204e-07
-2.35089e-06
-4.93618e-07
-4.58565e-06
-1.75225e-06
-7.08895e-06
-3.11933e-06
-9.91432e-06
-4.26436e-06
-1.29964e-05
-4.71648e-06
-1.59825e-05
-3.97735e-06
-1.79332e-05
-1.94777e-06
-1.68385e-05
-9.10291e-06
-2.23278e-06
1.01511e-05
-3.598e-06
1.63185e-05
-3.09403e-06
1.58955e-05
-1.37083e-06
1.34707e-05
8.58152e-07
1.07277e-05
3.104e-06
8.21675e-06
5.07604e-06
6.06719e-06
6.61752e-06
4.24312e-06
7.64841e-06
2.65693e-06
8.1263e-06
1.21161e-06
8.02447e-06
-1.90366e-07
7.32404e-06
-1.65046e-06
6.01951e-06
-3.28111e-06
4.14205e-06
-5.2115e-06
1.80896e-06
-7.58123e-06
-6.94266e-07
-1.04932e-05
-2.81259e-06
-1.38642e-05
-3.67218e-06
-1.70736e-05
-2.41442e-06
-1.80962e-05
-1.15173e-05
-2.57481e-06
1.2726e-05
-2.18807e-06
1.59317e-05
7.07143e-07
1.30003e-05
4.45003e-06
9.72782e-06
8.10366e-06
7.07411e-06
1.12614e-05
5.05902e-06
1.3779e-05
3.54955e-06
1.56298e-05
2.3923e-06
1.68277e-05
1.45905e-06
1.73883e-05
6.51085e-07
1.73103e-05
-1.12383e-07
1.6568e-05
-9.08238e-07
1.51111e-05
-1.82416e-06
1.28759e-05
-2.97634e-06
9.8241e-06
-4.52939e-06
6.03479e-06
-6.70387e-06
1.89524e-06
-9.72461e-06
-1.56811e-06
-1.36102e-05
-2.46078e-06
-1.72036e-05
-1.39781e-05
-7.84949e-07
1.35109e-05
4.07931e-06
1.10675e-05
1.02923e-05
6.78724e-06
1.57827e-05
4.2375e-06
2.01399e-05
2.71688e-06
2.34322e-05
1.76666e-06
2.58277e-05
1.15407e-06
2.74824e-05
7.37588e-07
2.85108e-05
4.30687e-07
2.89813e-05
1.80602e-07
2.89175e-05
-4.86117e-08
2.82967e-05
-2.87442e-07
2.70443e-05
-5.71778e-07
2.50235e-05
-9.55514e-07
2.20269e-05
-1.53284e-06
1.77978e-05
-2.47473e-06
1.21614e-05
-4.08822e-06
5.47245e-06
-6.92126e-06
-1.30569e-07
-1.16005e-05
-1.41087e-05
1.35109e-05
2.45784e-05
3.13656e-05
3.56031e-05
3.832e-05
4.00867e-05
4.12407e-05
4.19783e-05
4.2409e-05
4.25896e-05
4.2541e-05
4.22536e-05
4.16818e-05
4.07263e-05
3.91934e-05
3.67187e-05
3.26305e-05
2.57092e-05
1.41087e-05
)
;

boundaryField
{
    movingWall
    {
        type            calculated;
        value           uniform 0;
    }
    fixedWalls
    {
        type            calculated;
        value           uniform 0;
    }
    frontAndBack
    {
        type            empty;
        value           nonuniform List<scalar> 0();
    }
}


// ************************************************************************* //
