/*--------------------------------*- C++ -*----------------------------------*\
  =========                 |
  \\      /  F ield         | OpenFOAM: The Open Source CFD Toolbox
   \\    /   O peration     | Website:  https://openfoam.org
    \\  /    A nd           | Version:  9
     \\/     M anipulation  |
\*---------------------------------------------------------------------------*/
FoamFile
{
    format      ascii;
    class       volScalarField;
    location    "13";
    object      p;
}
// * * * * * * * * * * * * * * * * * * * * * * * * * * * * * * * * * * * * * //

dimensions      [0 2 -2 0 0 0 0];

internalField   nonuniform List<scalar> 
8800
(
0.428449
0.380427
0.342099
0.313523
0.292983
0.278337
0.267849
0.260439
0.255638
0.253495
0.254539
0.258433
0.264789
0.273836
0.28635
0.303756
0.328069
0.361586
0.403962
0.461063
0.260856
0.268087
0.276586
0.280093
0.278284
0.272891
0.266315
0.260263
0.255579
0.2527
0.252265
0.254479
0.258666
0.264353
0.270982
0.277354
0.281291
0.280636
0.274451
0.2654
0.237388
0.243628
0.247952
0.251467
0.254128
0.255093
0.254164
0.25218
0.25019
0.249145
0.249883
0.251946
0.254388
0.25622
0.256431
0.254629
0.251541
0.247702
0.243032
0.239225
0.23199
0.234759
0.237738
0.240338
0.242243
0.24378
0.244855
0.245159
0.244918
0.244766
0.245238
0.246022
0.246432
0.245992
0.244825
0.243263
0.241134
0.238272
0.235615
0.234087
0.226711
0.228175
0.230292
0.23273
0.234818
0.236363
0.237539
0.238529
0.239289
0.239833
0.240108
0.240049
0.239607
0.238848
0.237747
0.236092
0.233897
0.231551
0.229966
0.229177
0.221794
0.22271
0.224506
0.226782
0.229085
0.231222
0.232922
0.234116
0.234971
0.235584
0.235958
0.235945
0.235465
0.234404
0.232714
0.230651
0.228472
0.226404
0.2252
0.224756
0.218192
0.218698
0.220131
0.222025
0.223859
0.225575
0.227252
0.228811
0.230075
0.230984
0.231365
0.231146
0.23037
0.229216
0.227858
0.226311
0.224554
0.222876
0.222008
0.221814
0.216315
0.216594
0.2175
0.21881
0.220205
0.221627
0.22302
0.224341
0.22558
0.226598
0.227117
0.227049
0.226571
0.225774
0.224767
0.223634
0.222456
0.221404
0.220897
0.2208
0.21461
0.214771
0.215258
0.216009
0.216987
0.218181
0.219443
0.220803
0.222111
0.223259
0.223947
0.224055
0.223721
0.223148
0.222338
0.2216
0.221015
0.220514
0.220263
0.220202
0.212157
0.212258
0.212571
0.213092
0.213696
0.214489
0.215512
0.216689
0.217976
0.219242
0.220153
0.220547
0.220568
0.22038
0.22016
0.219893
0.219592
0.219337
0.219204
0.219162
0.209037
0.209099
0.209358
0.209841
0.210472
0.21115
0.212173
0.213374
0.214746
0.216206
0.217403
0.218103
0.218397
0.218429
0.21841
0.218268
0.218073
0.217898
0.217827
0.217805
0.205555
0.205587
0.205795
0.206222
0.206764
0.207606
0.208523
0.209736
0.21123
0.212937
0.214488
0.215553
0.216201
0.216571
0.216657
0.216732
0.216662
0.216581
0.216563
0.216552
0.20179
0.201814
0.201994
0.202393
0.202973
0.203751
0.204779
0.206129
0.20784
0.209898
0.211888
0.213374
0.214368
0.214998
0.215353
0.215528
0.215573
0.215584
0.215602
0.215593
0.197617
0.197649
0.197816
0.198196
0.198783
0.199618
0.200774
0.202338
0.204376
0.206909
0.209446
0.211408
0.212778
0.213699
0.214282
0.214629
0.214818
0.214922
0.214969
0.214959
0.192901
0.192926
0.193123
0.19352
0.194162
0.19511
0.196462
0.19833
0.200817
0.203962
0.207173
0.209714
0.211522
0.212775
0.213603
0.21413
0.214451
0.214634
0.214706
0.214694
0.187522
0.187553
0.187785
0.188246
0.188986
0.190115
0.191749
0.194036
0.197115
0.201046
0.205093
0.208328
0.210684
0.212307
0.213401
0.214116
0.214565
0.21482
0.214918
0.214904
0.1813
0.181335
0.181613
0.182181
0.183104
0.184492
0.186513
0.189359
0.19321
0.198142
0.203244
0.207343
0.210308
0.212381
0.213784
0.214707
0.215291
0.215624
0.215749
0.215732
0.174026
0.17407
0.174421
0.175141
0.176311
0.17806
0.180602
0.184191
0.189041
0.195244
0.201651
0.20679
0.210516
0.213122
0.214892
0.216058
0.216796
0.217214
0.217371
0.21735
0.165418
0.165474
0.165933
0.166858
0.168358
0.17059
0.17384
0.178404
0.184539
0.192348
0.200374
0.20679
0.211435
0.214686
0.216896
0.218353
0.219275
0.219794
0.219988
0.219961
0.155083
0.155161
0.155758
0.156962
0.158909
0.161814
0.166004
0.171836
0.179629
0.189465
0.199491
0.207462
0.213222
0.217253
0.219998
0.221812
0.22296
0.22361
0.223847
0.223808
0.142481
0.142591
0.143379
0.144978
0.14755
0.151351
0.156791
0.164317
0.174255
0.18663
0.199103
0.208958
0.216063
0.221036
0.22443
0.226682
0.228104
0.228895
0.22919
0.229141
0.126825
0.12698
0.128045
0.130219
0.13368
0.13874
0.145922
0.15571
0.168395
0.18392
0.199349
0.211451
0.220164
0.226275
0.230462
0.233256
0.235033
0.236016
0.236372
0.236309
0.106926
0.107144
0.108651
0.11172
0.116519
0.123435
0.133063
0.14587
0.162073
0.181454
0.20039
0.215127
0.225742
0.233221
0.238381
0.241854
0.244086
0.245324
0.245758
0.245676
0.0809355
0.0812748
0.0835428
0.0880967
0.0950181
0.104739
0.117855
0.134727
0.155384
0.179395
0.202393
0.220153
0.232975
0.242092
0.248463
0.252813
0.255648
0.257236
0.257789
0.257678
0.0457215
0.0463499
0.0501496
0.0574745
0.067994
0.0820918
0.100205
0.122441
0.148574
0.177971
0.205529
0.226648
0.241965
0.25301
0.260891
0.266417
0.270111
0.272201
0.272912
0.272759
-0.00492653
-0.00303021
0.00476729
0.0178151
0.0346548
0.055516
0.0805172
0.109509
0.142079
0.177481
0.209946
0.234649
0.25268
0.26591
0.275626
0.282709
0.287674
0.290649
0.291673
0.291459
-0.0808088
-0.0707947
-0.0530304
-0.0298081
-0.00346108
0.0263647
0.0597512
0.0965139
0.13623
0.178199
0.216039
0.244771
0.265991
0.281945
0.294119
0.303549
0.310716
0.315476
0.317422
0.317558
-0.16127
-0.139676
-0.111346
-0.0777773
-0.0417464
-0.00287857
0.0389416
0.0836285
0.130872
0.180119
0.22435
0.258176
0.28358
0.303166
0.318637
0.331103
0.341139
0.34935
0.353107
0.35342
-0.224957
-0.200708
-0.164029
-0.122249
-0.0777145
-0.030499
0.0193052
0.0715735
0.126012
0.182103
0.232133
0.27034
0.299118
0.321433
0.339158
0.353489
0.365009
0.374019
0.377553
0.378108
-0.276023
-0.249576
-0.208354
-0.160706
-0.109683
-0.0556995
0.000994457
0.0600693
0.12107
0.183386
0.238523
0.280284
0.311456
0.335364
0.354097
0.369051
0.380993
0.389979
0.393878
0.394435
-0.317355
-0.290209
-0.245558
-0.193552
-0.137544
-0.0781463
-0.0157391
0.0491773
0.11599
0.183855
0.243388
0.288011
0.320921
0.345841
0.365122
0.380312
0.392285
0.40109
0.405209
0.405782
-0.352362
-0.32487
-0.277825
-0.222335
-0.162285
-0.0983906
-0.0311193
0.0389
0.110873
0.183762
0.247343
0.294538
0.328923
0.354615
0.374205
0.389401
0.401247
0.409863
0.414026
0.414598
-0.383042
-0.355444
-0.306584
-0.248245
-0.184781
-0.117008
-0.0455017
0.0290556
0.105754
0.183333
0.250663
0.300204
0.335912
0.362266
0.38212
0.397347
0.409115
0.417536
0.421696
0.422278
-0.410813
-0.383129
-0.332802
-0.272108
-0.205771
-0.134658
-0.0593791
0.019293
0.10032
0.182267
0.253244
0.305178
0.342275
0.369372
0.389564
0.404884
0.416593
0.424904
0.428994
0.42958
-0.436579
-0.40879
-0.357216
-0.294514
-0.225701
-0.151674
-0.0730757
0.00928096
0.0943459
0.180573
0.255268
0.309725
0.348349
0.376306
0.396927
0.412413
0.424131
0.432334
0.436319
0.43697
-0.461018
-0.433033
-0.380367
-0.315889
-0.24492
-0.168336
-0.0867795
-0.00103007
0.0878431
0.178236
0.256711
0.313885
0.354257
0.383255
0.404443
0.420189
0.431973
0.440109
0.443973
0.444636
-0.484326
-0.456107
-0.402458
-0.336566
-0.263666
-0.184804
-0.100583
-0.0117492
0.0806657
0.175103
0.257491
0.317646
0.360052
0.390329
0.41226
0.42839
0.440313
0.448415
0.452141
0.452767
-0.506886
-0.478327
-0.423849
-0.356673
-0.282064
-0.201205
-0.114619
-0.023002
0.0727161
0.171088
0.257499
0.320928
0.365705
0.39756
0.420451
0.43711
0.449269
0.45739
0.460965
0.461508
-0.528733
-0.499857
-0.444776
-0.376302
-0.30021
-0.217612
-0.128933
-0.0347954
0.0639715
0.166117
0.256607
0.323595
0.371107
0.404892
0.429017
0.446394
0.458904
0.467093
0.470554
0.470937
-0.549935
-0.520683
-0.465088
-0.395484
-0.318116
-0.233997
-0.143487
-0.047126
0.0544075
0.16011
0.25467
0.325457
0.376074
0.412187
0.43789
0.456231
0.469239
0.477547
0.480903
0.4811
-0.570562
-0.541009
-0.484781
-0.414225
-0.335773
-0.250334
-0.15825
-0.0599531
0.0440428
0.153028
0.251554
0.326292
0.380395
0.419294
0.44698
0.466558
0.48022
0.488675
0.491916
0.491928
-0.590666
-0.560713
-0.503893
-0.432521
-0.353133
-0.266584
-0.173159
-0.073211
0.0329272
0.14486
0.247147
0.325876
0.383801
0.426
0.456168
0.477322
0.491776
0.500375
0.503388
0.503237
-0.610077
-0.579742
-0.522387
-0.450328
-0.370145
-0.282663
-0.188136
-0.0868067
0.0211405
0.135643
0.241371
0.323992
0.385912
0.43191
0.465227
0.48848
0.503878
0.51251
0.515185
0.51484
-0.628765
-0.598098
-0.540246
-0.46759
-0.386744
-0.298506
-0.203083
-0.100649
0.00878269
0.12544
0.234185
0.320459
0.386351
0.436529
0.473816
0.500058
0.516709
0.524963
0.526922
0.52637
-0.646793
-0.615703
-0.55745
-0.484274
-0.402872
-0.314035
-0.217913
-0.114623
-0.00403291
0.114352
0.225606
0.31515
0.384791
0.439238
0.481304
0.511968
0.530944
0.538257
0.538239
0.537363
-0.664009
-0.632597
-0.573945
-0.500319
-0.418477
-0.32917
-0.232532
-0.128615
-0.0171707
0.102515
0.215714
0.307997
0.380966
0.439313
0.486585
0.523467
0.547493
0.555009
0.550382
0.547622
-0.68051
-0.64877
-0.589755
-0.515752
-0.43359
-0.343961
-0.246992
-0.142685
-0.030695
0.0898682
0.204409
0.298785
0.374585
0.435968
0.487926
0.532369
0.565361
0.580026
0.573165
0.555424
-0.696247
-0.664207
-0.605001
-0.530738
-0.448479
-0.358713
-0.261681
-0.157294
-0.0451367
0.075759
0.190991
0.286618
0.364778
0.427947
0.482084
0.532884
0.573782
0.590511
0.577115
0.556148
-0.711093
-0.679016
-0.619533
-0.545052
-0.462909
-0.373121
-0.276382
-0.172114
-0.060163
0.0605268
0.175707
0.271424
0.351218
0.415096
0.465147
0.514728
0.550422
0.553098
0.486663
0.44454
-0.724665
-0.694121
-0.63292
-0.558119
-0.476245
-0.38673
-0.290832
-0.186916
-0.0755304
0.0443813
0.158664
0.253223
0.333299
0.398424
0.43818
0.467585
0.487132
0.446416
0.37069
0.322046
-0.771153
-0.707025
-0.644951
-0.571209
-0.489586
-0.400674
-0.305033
-0.201892
-0.09149
0.0270365
0.139511
0.231894
0.309097
0.379028
0.394146
0.395469
0.368907
0.303459
0.216465
0.169079
-0.734278
-0.719189
-0.661923
-0.59036
-0.508873
-0.420755
-0.326396
-0.224606
-0.116088
-0.000369582
0.107798
0.195175
0.263273
0.321764
0.327353
0.204878
0.0881798
0.00684553
-0.0778912
-0.0276225
-0.761757
-0.733788
-0.676403
-0.604566
-0.52379
-0.436306
-0.342212
-0.241516
-0.134564
-0.0213031
0.0830404
0.165141
0.225521
0.253583
0.197453
0.0267088
-0.127138
-0.235935
-0.357132
-0.278803
-0.781768
-0.750916
-0.692775
-0.620625
-0.540204
-0.453147
-0.359611
-0.260178
-0.155111
-0.0448686
0.0549452
0.130368
0.18011
0.17831
0.0528739
-0.172556
-0.364415
-0.511303
-0.680689
-0.611155
-0.8006
-0.768526
-0.709566
-0.636861
-0.556573
-0.469946
-0.377298
-0.279239
-0.176244
-0.0693186
0.025376
0.0934643
0.129394
0.08778
-0.114291
-0.378877
-0.626468
-0.84884
-1.09694
-1.06383
-0.81811
-0.786057
-0.726695
-0.653542
-0.573399
-0.487276
-0.395617
-0.299044
-0.198288
-0.0948887
-0.00571552
0.0549944
0.0740269
-0.0148594
-0.277131
-0.575124
-0.875981
-1.14006
-1.49056
-1.80892
-0.835342
-0.803699
-0.744228
-0.670989
-0.590996
-0.505372
-0.414662
-0.319599
-0.221084
-0.121295
-0.0377536
0.0151914
0.0153165
-0.124657
-0.424724
-0.735629
-1.05196
-1.30616
-1.44153
-1.6826
-0.852883
-0.821636
-0.762464
-0.689371
-0.609655
-0.524645
-0.435009
-0.341616
-0.24563
-0.149866
-0.0724236
-0.0279478
-0.0489559
-0.253363
-0.559116
-0.85904
-1.1305
-1.3001
-1.33666
-1.36802
-0.871016
-0.840172
-0.781434
-0.708606
-0.629357
-0.545125
-0.456797
-0.365365
-0.272314
-0.181128
-0.110134
-0.074674
-0.126476
-0.375375
-0.682822
-0.962733
-1.17279
-1.26642
-1.29084
-1.29323
-0.88984
-0.85937
-0.800919
-0.728571
-0.6499
-0.566659
-0.479882
-0.390735
-0.30095
-0.214781
-0.150372
-0.125401
-0.208836
-0.488103
-0.797295
-1.07846
-1.22503
-1.25237
-1.2636
-1.26663
-0.909153
-0.879043
-0.820888
-0.749066
-0.671114
-0.58904
-0.504071
-0.417508
-0.331337
-0.250684
-0.193067
-0.180641
-0.29508
-0.593291
-0.894856
-1.2104
-1.30108
-1.28234
-1.27601
-1.27317
-0.928656
-0.898945
-0.841156
-0.769823
-0.692677
-0.611991
-0.52906
-0.445379
-0.363244
-0.288395
-0.238452
-0.236977
-0.388746
-0.684953
-0.953512
-1.31116
-1.43666
-1.32526
-1.27366
-1.25884
-0.947629
-0.918214
-0.861296
-0.7904
-0.714218
-0.635052
-0.554441
-0.474007
-0.396316
-0.327395
-0.286021
-0.290761
-0.491002
-0.771584
-0.910355
-1.12733
-1.25891
-1.22702
-1.21085
-1.20036
-0.965541
-0.936662
-0.880333
-0.810193
-0.735069
-0.657666
-0.579648
-0.502758
-0.429963
-0.366872
-0.334695
-0.343472
-0.611667
-0.88379
-0.830313
-0.64341
-0.91483
-1.15308
-1.26465
-1.27288
-0.981689
-0.953412
-0.897765
-0.828303
-0.754356
-0.678906
-0.603777
-0.530988
-0.463148
-0.406083
-0.383126
-0.399808
-0.762758
-1.16627
-1.21406
-0.990293
-1.16354
-1.45326
-1.61327
-1.63655
-0.994782
-0.967337
-0.912467
-0.843633
-0.770987
-0.69775
-0.625925
-0.557604
-0.494763
-0.443934
-0.426952
-0.462856
-0.968271
-1.73414
-2.57941
-2.84895
-2.92146
-2.62236
-2.37084
-2.30901
-1.00353
-0.977104
-0.92305
-0.854958
-0.783752
-0.712986
-0.644934
-0.581474
-0.52377
-0.477511
-0.463214
-0.524325
-1.12986
-2.20049
-3.72129
-4.5643
-4.57483
-4.17505
-3.61725
-3.32471
-1.00627
-0.981038
-0.928001
-0.860688
-0.791134
-0.723209
-0.659466
-0.602068
-0.55094
-0.506041
-0.488704
-0.56174
-1.05787
-1.99605
-3.1559
-3.97761
-3.99572
-3.67142
-3.26843
-3.04954
-1.00102
-0.97713
-0.9253
-0.859043
-0.791484
-0.726847
-0.668313
-0.618328
-0.576494
-0.533496
-0.49956
-0.527924
-0.704889
-1.01882
-1.19452
-1.28409
-1.15019
-0.955243
-0.791109
-0.681789
-0.985782
-0.963261
-0.912918
-0.848329
-0.783235
-0.722549
-0.670583
-0.631527
-0.606223
-0.57414
-0.514975
-0.451541
-0.340962
-0.0659738
0.324221
0.786876
1.18206
1.41629
1.52287
1.56147
-0.958559
-0.93754
-0.889227
-0.827076
-0.765155
-0.709298
-0.66563
-0.64253
-0.648072
-0.663319
-0.61144
-0.414049
-0.127109
0.377145
1.04281
1.62609
2.07631
2.34237
2.44485
2.47451
-0.91807
-0.89869
-0.853002
-0.794356
-0.73647
-0.686253
-0.652885
-0.65302
-0.715729
-0.865387
-0.931798
-0.612334
-0.145379
0.439495
1.11605
1.67059
2.07439
2.30486
2.39659
2.42192
-0.86287
-0.844852
-0.803461
-0.749593
-0.696572
-0.652316
-0.629753
-0.658684
-0.815591
-1.22693
-1.53573
-1.05485
-0.376826
0.265862
0.905
1.39226
1.72255
1.89568
1.96816
1.98718
-0.792949
-0.777015
-0.740501
-0.692239
-0.64444
-0.605059
-0.589493
-0.638484
-0.870483
-1.50875
-2.06369
-1.38539
-0.650809
0.0627211
0.644776
1.04581
1.28873
1.41235
1.46982
1.47509
-0.708055
-0.693895
-0.663165
-0.621582
-0.578635
-0.541598
-0.524259
-0.564258
-0.763475
-1.28815
-1.63184
-1.14164
-0.501401
0.0910375
0.509915
0.769979
0.92111
1.00614
1.05024
1.05806
-0.611799
-0.601649
-0.574345
-0.538159
-0.499132
-0.46186
-0.435179
-0.440484
-0.527355
-0.735968
-0.779866
-0.455247
-0.0540788
0.265505
0.468966
0.595079
0.676122
0.72807
0.755769
0.76312
-0.494289
-0.4888
-0.46962
-0.441192
-0.408271
-0.37325
-0.340062
-0.317892
-0.323457
-0.353958
-0.301927
-0.0711214
0.149058
0.314417
0.423434
0.492723
0.538822
0.570197
0.587881
0.591273
-0.380567
-0.377824
-0.364208
-0.343089
-0.317149
-0.286918
-0.253515
-0.219557
-0.188011
-0.14908
-0.0643436
0.0854344
0.211805
0.302441
0.364745
0.404971
0.431314
0.44757
0.45509
0.45649
-0.278803
-0.277156
-0.268424
-0.253104
-0.233375
-0.208987
-0.179334
-0.144095
-0.101362
-0.0431836
0.0381643
0.138484
0.21798
0.2729
0.310215
0.333953
0.348412
0.356498
0.35986
0.359852
-0.188434
-0.187949
-0.182847
-0.17301
-0.15944
-0.141349
-0.117519
-0.0864513
-0.0453549
0.0111546
0.0799931
0.149419
0.203171
0.239953
0.26403
0.278538
0.28642
0.290027
0.291092
0.290664
-0.110892
-0.111209
-0.109553
-0.105019
-0.0972035
-0.0851664
-0.0676117
-0.0427625
-0.00804799
0.0398769
0.0949962
0.145006
0.182854
0.208363
0.224393
0.233383
0.237608
0.239097
0.239295
0.238811
-0.050254
-0.0509739
-0.0517846
-0.0513627
-0.0482714
-0.0412759
-0.0291882
-0.0104048
0.0170694
0.0552196
0.0979164
0.134405
0.161565
0.179498
0.190306
0.196034
0.198399
0.198895
0.19875
0.198318
-0.00780259
-0.00860226
-0.0104263
-0.0119997
-0.0117271
-0.008438
-0.000778905
0.0126941
0.0334553
0.0627377
0.0951766
0.122038
0.141597
0.154301
0.161802
0.165537
0.166796
0.166806
0.166538
0.166172
0.0194092
0.0187226
0.0168215
0.0147374
0.0139167
0.0152697
0.0198945
0.0291411
0.0443233
0.0662771
0.0905843
0.110339
0.124511
0.133534
0.138568
0.140849
0.141395
0.141089
0.140742
0.140443
0.0356424
0.0351296
0.0335754
0.0316551
0.0305334
0.0310366
0.0340141
0.0404081
0.0512748
0.0673703
0.0853441
0.0998466
0.10992
0.116135
0.119497
0.120872
0.120965
0.120489
0.120121
0.119884
0.0447211
0.0443596
0.0432288
0.0417349
0.0406959
0.0407171
0.0425513
0.0470185
0.0548713
0.0665901
0.0796631
0.0901177
0.0972997
0.101684
0.10392
0.104667
0.104505
0.103977
0.10363
0.103446
0.0494293
0.0491758
0.0483884
0.0473023
0.0465008
0.0464086
0.0475311
0.050507
0.0560231
0.0644927
0.0740065
0.0816038
0.0867059
0.0896787
0.0910906
0.0914533
0.0911719
0.0906649
0.0903633
0.0902217
0.0514259
0.0512409
0.0506697
0.0498571
0.0492194
0.049077
0.0498152
0.0518843
0.0557556
0.0617724
0.0685781
0.0739686
0.0775164
0.0795347
0.0804258
0.0805543
0.0802316
0.0797805
0.079529
0.0794194
0.0515592
0.0514198
0.0509797
0.0503377
0.0498045
0.0496071
0.0500225
0.0513992
0.0541117
0.0583759
0.063209
0.0670283
0.0694988
0.0708499
0.0713814
0.071377
0.0710626
0.0706809
0.0704767
0.0703916
0.0503062
0.0502007
0.0498565
0.0493414
0.0488946
0.0486835
0.0489053
0.0498047
0.0516506
0.0546302
0.0580347
0.0607002
0.0623871
0.0632664
0.0635659
0.0634875
0.0631975
0.0628786
0.0627134
0.0626472
0.0480155
0.0479352
0.0476652
0.0472486
0.0468702
0.0466532
0.0467413
0.0473149
0.0485659
0.0506236
0.052981
0.0548144
0.0559495
0.0565082
0.0566559
0.0565401
0.0562818
0.0560179
0.0558852
0.0558338
0.0449642
0.0449029
0.0446941
0.0443626
0.0440492
0.0438442
0.0438498
0.0441936
0.0450182
0.0464182
0.0480341
0.0492789
0.0500268
0.050365
0.0504156
0.0502849
0.0500599
0.0498433
0.0497371
0.049697
0.0413762
0.0413289
0.0411693
0.0409101
0.0406561
0.0404727
0.0404323
0.0406268
0.0411584
0.0420913
0.0431785
0.0440052
0.044482
0.0446726
0.0446641
0.0445327
0.0443415
0.0441662
0.0440817
0.0440504
0.0374201
0.0373831
0.0372614
0.0370611
0.0368582
0.0366993
0.0366355
0.0367324
0.0370621
0.0376718
0.0383906
0.0389257
0.0392171
0.0393116
0.0392701
0.0391467
0.0389862
0.0388451
0.0387778
0.0387535
0.0332169
0.0331879
0.0330948
0.0329408
0.0327803
0.0326463
0.0325742
0.0326097
0.0328044
0.0331907
0.0336513
0.0339871
0.0341559
0.0341895
0.0341315
0.0340203
0.0338875
0.0337746
0.0337212
0.0337022
0.0288489
0.028826
0.0287544
0.028636
0.0285093
0.0283978
0.0283256
0.0283245
0.0284306
0.0286662
0.0289526
0.0291544
0.0292424
0.0292392
0.0291755
0.0290782
0.0289694
0.028879
0.0288365
0.0288217
0.0243707
0.0243528
0.0242974
0.024206
0.0241063
0.0240147
0.0239475
0.0239265
0.0239769
0.0241135
0.0242831
0.024396
0.0244327
0.0244092
0.0243468
0.0242641
0.0241762
0.0241046
0.0240711
0.0240596
0.0198188
0.0198049
0.0197622
0.0196914
0.0196133
0.0195389
0.0194797
0.0194503
0.0194668
0.0195392
0.0196335
0.0196909
0.0196986
0.0196666
0.0196099
0.0195406
0.01947
0.0194138
0.0193878
0.0193791
0.0152143
0.0152039
0.0151712
0.015117
0.0150569
0.0149986
0.0149495
0.0149191
0.014918
0.0149529
0.0150018
0.0150272
0.0150204
0.014988
0.0149391
0.0148827
0.0148263
0.014782
0.0147621
0.0147558
0.0105709
0.0105635
0.0105393
0.0104994
0.0104555
0.0104133
0.0103766
0.0103512
0.0103434
0.0103576
0.0103796
0.0103873
0.0103754
0.010348
0.0103111
0.0102696
0.0102277
0.0101943
0.0101795
0.0101751
0.00589664
0.0058918
0.00587627
0.00585119
0.00582429
0.00579868
0.0057766
0.00576075
0.00575438
0.005758
0.00576576
0.0057653
0.0057548
0.00573696
0.00571425
0.00568852
0.00566233
0.00564108
0.00563144
0.00562845
0.001197
0.0011971
0.00119774
0.00119188
0.00118341
0.00117571
0.00116886
0.00116283
0.00115779
0.00115389
0.00115093
0.00114815
0.00114434
0.0011393
0.00113325
0.00112618
0.00111823
0.00111049
0.00110781
0.00110873
-0.818815
-0.555075
-0.277054
-0.0595056
0.118128
0.262198
0.38514
0.488703
0.534232
0.518666
-0.363998
-0.19629
-0.0262348
0.119318
0.242836
0.346948
0.431836
0.492499
0.52508
0.536844
-0.0683042
0.041189
0.153604
0.254068
0.340775
0.413623
0.471537
0.514172
0.54407
0.560909
0.134651
0.209494
0.288265
0.359739
0.421851
0.474378
0.51723
0.551148
0.577295
0.594892
0.286914
0.340238
0.396966
0.449724
0.496432
0.536832
0.570995
0.599159
0.621263
0.638766
0.408232
0.447007
0.492073
0.533382
0.571046
0.604513
0.633459
0.657592
0.676136
0.693512
0.510773
0.543158
0.581596
0.617469
0.650584
0.680455
0.706417
0.727815
0.743444
0.760822
0.605734
0.63732
0.673954
0.708414
0.740014
0.768294
0.792565
0.812004
0.825356
0.842837
0.704956
0.739872
0.777882
0.813004
0.844274
0.87147
0.894231
0.911971
0.923899
0.941757
0.822225
0.861593
0.900743
0.9358
0.965818
0.99115
1.01198
1.02811
1.03976
1.05817
0.968386
1.00834
1.04443
1.07535
1.10138
1.12384
1.14318
1.15898
1.17184
1.19003
1.14393
1.17631
1.20243
1.22508
1.24541
1.26438
1.28221
1.29892
1.31479
1.33304
1.33206
1.34978
1.36552
1.38231
1.39863
1.41331
1.42645
1.44051
1.45768
1.4774
1.51398
1.52502
1.53726
1.54811
1.55741
1.56709
1.57812
1.58979
1.59979
1.61499
1.72523
1.72728
1.71212
1.6969
1.69065
1.69639
1.71502
1.74548
1.77766
1.80843
2.03111
1.89407
1.8179
1.77596
1.75851
1.76256
1.78997
1.8461
1.94957
2.16486
0.32469
0.321333
0.315452
0.305711
0.292857
0.28054
0.270346
0.262527
0.256963
0.253685
0.25317
0.255603
0.260392
0.267325
0.276492
0.287966
0.300928
0.312792
0.320166
0.324835
0.242518
0.248422
0.255432
0.260792
0.263777
0.263614
0.260907
0.257141
0.253651
0.251317
0.250978
0.252909
0.256273
0.260286
0.26389
0.265589
0.264244
0.259961
0.253904
0.246773
0.234679
0.237037
0.240519
0.243622
0.246039
0.248039
0.249175
0.249071
0.248144
0.247224
0.247192
0.248305
0.249728
0.250621
0.250314
0.248811
0.246697
0.244072
0.240696
0.237633
0.229292
0.230356
0.232431
0.235152
0.237436
0.239071
0.240337
0.241339
0.241922
0.242204
0.242502
0.242842
0.242918
0.242456
0.241556
0.240311
0.238487
0.235988
0.233505
0.231985
0.224194
0.224797
0.226174
0.228404
0.230738
0.23282
0.23443
0.235619
0.236552
0.237272
0.237741
0.237866
0.237597
0.236956
0.23586
0.234207
0.232098
0.229862
0.228033
0.22714
0.219732
0.220031
0.221127
0.223147
0.225301
0.227402
0.229404
0.231078
0.232323
0.2332
0.233769
0.233931
0.233558
0.232595
0.231081
0.229256
0.227301
0.225274
0.223678
0.223117
0.217129
0.217258
0.217977
0.219444
0.221074
0.222609
0.224031
0.225456
0.226829
0.227995
0.228738
0.228837
0.2284
0.227608
0.226642
0.225464
0.224072
0.222607
0.221516
0.221206
0.215527
0.215598
0.216014
0.216906
0.218032
0.219281
0.220716
0.222129
0.223443
0.224621
0.225489
0.225816
0.225608
0.22499
0.224068
0.223083
0.222173
0.221315
0.220726
0.220555
0.213489
0.213533
0.213766
0.214253
0.214893
0.215778
0.216757
0.217945
0.219249
0.220534
0.221569
0.222063
0.222063
0.221773
0.221389
0.220962
0.220534
0.220139
0.219867
0.219772
0.210659
0.210682
0.210849
0.211245
0.211816
0.212474
0.213359
0.214453
0.215704
0.217052
0.218292
0.219105
0.219446
0.219476
0.219339
0.219168
0.21895
0.218714
0.218555
0.218506
0.207331
0.207336
0.207459
0.207809
0.208331
0.208977
0.209865
0.210934
0.212254
0.213777
0.215293
0.216425
0.217066
0.217355
0.217487
0.217522
0.217423
0.217264
0.217176
0.217159
0.203714
0.203711
0.203809
0.204119
0.204623
0.205293
0.206152
0.207271
0.208697
0.210434
0.212308
0.213857
0.214887
0.215536
0.215896
0.216056
0.216092
0.216053
0.216038
0.21604
0.199761
0.199757
0.199849
0.200132
0.200615
0.201298
0.202233
0.203492
0.205142
0.207219
0.20956
0.211581
0.213014
0.213966
0.214572
0.214927
0.215104
0.215184
0.215232
0.215244
0.195334
0.195324
0.195429
0.195713
0.196207
0.196942
0.197993
0.199453
0.201419
0.203957
0.206884
0.2095
0.211389
0.212704
0.213577
0.214135
0.214472
0.214666
0.214767
0.214788
0.190306
0.190295
0.190409
0.190727
0.191278
0.192124
0.193361
0.195116
0.197518
0.200661
0.204335
0.207661
0.210091
0.211832
0.213008
0.213782
0.214275
0.214572
0.214721
0.214751
0.184531
0.184517
0.184659
0.185043
0.185703
0.186709
0.188212
0.190372
0.193353
0.197279
0.201898
0.206102
0.209233
0.211436
0.212953
0.213966
0.214622
0.215025
0.215222
0.21526
0.177816
0.177798
0.177979
0.178455
0.179268
0.180522
0.182398
0.185106
0.188846
0.193778
0.199586
0.204878
0.208809
0.211601
0.213524
0.214815
0.215659
0.216178
0.216431
0.216478
0.169921
0.169898
0.170132
0.170733
0.171764
0.173364
0.175755
0.179179
0.183905
0.190123
0.197421
0.204052
0.208968
0.212463
0.214871
0.216492
0.217557
0.218216
0.218535
0.218593
0.160516
0.160487
0.160797
0.161583
0.162914
0.164978
0.168042
0.172415
0.178432
0.186289
0.195446
0.203721
0.209836
0.214179
0.217173
0.219189
0.220518
0.221345
0.221743
0.221816
0.149118
0.149082
0.1495
0.150546
0.152296
0.154988
0.15897
0.164633
0.172324
0.182262
0.193725
0.204004
0.211571
0.21694
0.220642
0.223135
0.224779
0.225804
0.226292
0.226386
0.135061
0.135016
0.135602
0.137023
0.139371
0.142954
0.148214
0.155581
0.165456
0.178037
0.19234
0.205038
0.214348
0.220955
0.225518
0.228596
0.230629
0.231904
0.232524
0.232635
0.117386
0.117341
0.118194
0.120164
0.12338
0.128248
0.135282
0.144976
0.157735
0.173649
0.191402
0.20698
0.218359
0.226447
0.23206
0.235867
0.238391
0.239978
0.240756
0.240893
0.094638
0.0946193
0.0959125
0.0987397
0.103297
0.110094
0.119713
0.132641
0.149165
0.169211
0.191073
0.210004
0.223792
0.233636
0.240528
0.245252
0.248414
0.250414
0.251394
0.251567
0.0643623
0.0644253
0.0665265
0.0708931
0.0777363
0.087649
0.101138
0.118526
0.139893
0.164945
0.19156
0.214283
0.230804
0.242692
0.251133
0.257023
0.261037
0.263614
0.264871
0.265089
0.0221837
0.0225264
0.0264666
0.0340208
0.0451104
0.0601862
0.0794176
0.102828
0.130241
0.161155
0.193079
0.219939
0.239459
0.253658
0.263951
0.271335
0.276529
0.279972
0.281657
0.281925
-0.0399691
-0.038078
-0.0287918
-0.0143802
0.0046051
0.0278847
0.0551344
0.0862001
0.120752
0.1582
0.19579
0.226971
0.249638
0.266334
0.278734
0.28797
0.294763
0.29945
0.30189
0.302223
-0.114583
-0.11115
-0.0937561
-0.0682644
-0.0387364
-0.00599325
0.0299937
0.0692037
0.111398
0.156087
0.200329
0.236997
0.263997
0.284368
0.300028
0.312227
0.321858
0.328698
0.331488
0.332598
-0.19076
-0.181207
-0.15546
-0.119879
-0.0807933
-0.038899
0.00570065
0.0529784
0.102773
0.154688
0.205613
0.247764
0.278992
0.302865
0.32159
0.336554
0.348589
0.357596
0.362516
0.364406
-0.248566
-0.237873
-0.207154
-0.165041
-0.118618
-0.0691582
-0.0170186
0.0376311
0.0945086
0.153155
0.21016
0.257057
0.291664
0.318028
0.338601
0.354906
0.367885
0.37771
0.383451
0.385508
-0.295075
-0.283926
-0.249857
-0.20314
-0.151314
-0.0959917
-0.0376632
0.0233071
0.0864433
0.151146
0.21356
0.264413
0.301527
0.32945
0.350955
0.367811
0.38111
0.39116
0.396967
0.39907
-0.333341
-0.32223
-0.286152
-0.235802
-0.179741
-0.119747
-0.0563359
0.0100049
0.0786328
0.148722
0.215932
0.27024
0.309444
0.338574
0.360722
0.377841
0.391163
0.401155
0.406971
0.409009
-0.36639
-0.355386
-0.317838
-0.264706
-0.205165
-0.141214
-0.0734381
-0.00243097
0.0710715
0.146091
0.217798
0.275291
0.316338
0.346455
0.369046
0.386289
0.399557
0.409486
0.415309
0.417239
-0.395763
-0.384873
-0.346295
-0.290892
-0.228445
-0.161126
-0.0895463
-0.0143686
0.063584
0.14316
0.21904
0.279545
0.32238
0.353478
0.376545
0.393967
0.407259
0.417109
0.422939
0.424764
-0.422658
-0.411828
-0.372416
-0.315115
-0.250241
-0.180031
-0.105113
-0.026203
0.0557793
0.139608
0.2196
0.283212
0.327951
0.360136
0.383765
0.401428
0.414791
0.424621
0.430446
0.432164
-0.447884
-0.437086
-0.396934
-0.337951
-0.270969
-0.198239
-0.120402
-0.038171
0.0475487
0.135475
0.219565
0.286403
0.333218
0.366655
0.390979
0.408981
0.42247
0.432291
0.438126
0.439734
-0.471846
-0.461033
-0.420211
-0.35981
-0.290995
-0.216037
-0.135593
-0.0503303
0.0388475
0.130663
0.218823
0.289082
0.338229
0.373158
0.398361
0.416832
0.430534
0.440409
0.446203
0.447742
-0.494861
-0.483996
-0.442536
-0.380942
-0.310499
-0.233561
-0.150798
-0.0628236
0.02952
0.125036
0.217283
0.291185
0.34297
0.379675
0.405988
0.425095
0.439112
0.449085
0.454826
0.456336
-0.517172
-0.506162
-0.464055
-0.401514
-0.329579
-0.250933
-0.166131
-0.07573
0.0195157
0.118537
0.214842
0.29258
0.347348
0.386173
0.413879
0.433831
0.448311
0.458468
0.464145
0.465628
-0.538788
-0.527625
-0.485018
-0.421562
-0.348309
-0.26818
-0.18159
-0.0890331
0.00883047
0.111106
0.211373
0.293113
0.35121
0.392561
0.422001
0.443042
0.458145
0.468577
0.474223
0.475633
-0.559834
-0.54846
-0.505448
-0.441051
-0.366703
-0.285285
-0.19714
-0.102709
-0.00252142
0.102732
0.206787
0.292611
0.35434
0.398664
0.430246
0.452673
0.468583
0.479385
0.485019
0.486306
-0.580248
-0.568685
-0.525241
-0.460025
-0.384741
-0.302215
-0.212744
-0.116705
-0.0144955
0.0934195
0.201013
0.290894
0.356472
0.404182
0.438407
0.462624
0.47958
0.49083
0.496459
0.497555
-0.600069
-0.588287
-0.544374
-0.478472
-0.402383
-0.318921
-0.228335
-0.13094
-0.0270158
0.0832101
0.19401
0.28779
0.357325
0.408787
0.446251
0.472793
0.491073
0.502788
0.508301
0.509172
-0.619132
-0.607209
-0.562837
-0.496341
-0.419567
-0.335317
-0.243834
-0.145328
-0.0399875
0.0721881
0.185787
0.283173
0.356636
0.412137
0.453455
0.483082
0.50314
0.515256
0.520367
0.520894
-0.637551
-0.625417
-0.580612
-0.513607
-0.436255
-0.351361
-0.259145
-0.159776
-0.0533036
0.0604611
0.176387
0.276975
0.354143
0.41374
0.459451
0.49322
0.516039
0.528523
0.532446
0.532273
-0.655201
-0.642847
-0.597687
-0.530223
-0.452373
-0.366975
-0.27419
-0.17416
-0.0668424
0.0481282
0.165908
0.269165
0.349651
0.413067
0.463394
0.502513
0.53004
0.543954
0.545288
0.542789
-0.67212
-0.6596
-0.614017
-0.546143
-0.467887
-0.382097
-0.288891
-0.188399
-0.0804821
0.0353524
0.154492
0.259762
0.343072
0.409707
0.464195
0.509422
0.544301
0.563669
0.563877
0.552091
-0.688252
-0.675611
-0.629694
-0.561503
-0.482986
-0.396992
-0.303566
-0.202885
-0.0946771
0.0216072
0.141545
0.248106
0.33368
0.402906
0.460188
0.51108
0.555134
0.584231
0.588088
0.581784
-0.703581
-0.690808
-0.644749
-0.576252
-0.497655
-0.411656
-0.318183
-0.217621