/*--------------------------------*- C++ -*----------------------------------*\
  =========                 |
  \\      /  F ield         | OpenFOAM: The Open Source CFD Toolbox
   \\    /   O peration     | Website:  https://openfoam.org
    \\  /    A nd           | Version:  9
     \\/     M anipulation  |
\*---------------------------------------------------------------------------*/
FoamFile
{
    format      ascii;
    class       volVectorField;
    location    "13";
    object      U;
}
// * * * * * * * * * * * * * * * * * * * * * * * * * * * * * * * * * * * * * //

dimensions      [0 1 -1 0 0 0 0];

internalField   nonuniform List<vector> 
8800
(
(0.984929 -0.0884337 0)
(1.00207 -0.0567919 0)
(0.999635 -0.0305145 0)
(0.999982 -0.0158388 0)
(1.00001 -0.0086986 0)
(1.00002 -0.00505331 0)
(1.00001 -0.00296356 0)
(1.00001 -0.00165041 0)
(1.00002 -0.000779025 0)
(1.00005 -0.000127206 0)
(1.00003 0.00052203 0)
(1 0.00125745 0)
(0.999997 0.00230817 0)
(1.00001 0.00393751 0)
(1.00001 0.00665735 0)
(1.00003 0.0117016 0)
(0.999878 0.0220069 0)
(0.99915 0.0411232 0)
(1.0074 0.0768788 0)
(0.77365 0.0450639 0)
(0.361256 -0.0151432 0)
(1.04578 -0.0740593 0)
(1.08726 -0.0677078 0)
(1.04799 -0.0520231 0)
(1.02458 -0.0380066 0)
(1.01226 -0.0257086 0)
(1.00641 -0.0164051 0)
(1.0036 -0.0100116 0)
(1.00221 -0.00555662 0)
(1.00157 -0.00208242 0)
(1.00145 0.000958803 0)
(1.0018 0.00418248 0)
(1.00275 0.00797298 0)
(1.00473 0.0132148 0)
(1.00878 0.0209234 0)
(1.0173 0.0317358 0)
(1.03471 0.0451966 0)
(1.06583 0.0594631 0)
(1.09423 0.0727467 0)
(0.842645 0.0556128 0)
(0.217855 -0.00160854 0)
(1.07634 -0.0497536 0)
(1.09986 -0.0480263 0)
(1.06468 -0.039606 0)
(1.04005 -0.0325598 0)
(1.02376 -0.0251958 0)
(1.01384 -0.0178001 0)
(1.00824 -0.0112095 0)
(1.00537 -0.00568185 0)
(1.00426 -0.000758182 0)
(1.00456 0.00396803 0)
(1.00643 0.00904105 0)
(1.01045 0.01498 0)
(1.01794 0.0219256 0)
(1.03077 0.0293277 0)
(1.0509 0.0363773 0)
(1.08058 0.043612 0)
(1.1066 0.0508505 0)
(0.944269 0.0408332 0)
(0.217551 0.00161758 0)
(0.177443 -0.000608467 0)
(1.02058 -0.0343924 0)
(1.10603 -0.0399266 0)
(1.07799 -0.0344593 0)
(1.05264 -0.0283469 0)
(1.03521 -0.0227797 0)
(1.02308 -0.0175183 0)
(1.01514 -0.0121133 0)
(1.01056 -0.00659225 0)
(1.00865 -0.000814349 0)
(1.00916 0.00498051 0)
(1.01225 0.0104492 0)
(1.0183 0.015782 0)
(1.02818 0.0209318 0)
(1.04275 0.0261143 0)
(1.06355 0.0318485 0)
(1.09429 0.0380999 0)
(1.09573 0.040244 0)
(0.832805 0.0219712 0)
(0.176938 0.000619362 0)
(0.157272 -0.000427402 0)
(0.962479 -0.0235626 0)
(1.10531 -0.0323015 0)
(1.08814 -0.0299607 0)
(1.06103 -0.0256831 0)
(1.04287 -0.0211788 0)
(1.0305 -0.0164335 0)
(1.02187 -0.01146 0)
(1.01624 -0.00619806 0)
(1.01355 -0.000551923 0)
(1.01432 0.00506462 0)
(1.01834 0.0103505 0)
(1.0253 0.0152684 0)
(1.0355 0.0199161 0)
(1.05031 0.0243049 0)
(1.07256 0.0285886 0)
(1.10208 0.0323417 0)
(1.07295 0.0308894 0)
(0.750494 0.0129393 0)
(0.156524 0.000439727 0)
(0.144713 -0.000307773 0)
(0.911578 -0.0158379 0)
(1.09828 -0.0251549 0)
(1.09464 -0.0244952 0)
(1.06697 -0.0218349 0)
(1.04773 -0.018669 0)
(1.03465 -0.0147805 0)
(1.02584 -0.0103507 0)
(1.02016 -0.00551685 0)
(1.01744 -0.000211682 0)
(1.01811 0.00512798 0)
(1.02202 0.00997172 0)
(1.02896 0.0143133 0)
(1.03958 0.0182105 0)
(1.05539 0.021506 0)
(1.07858 0.0240473 0)
(1.10389 0.0261308 0)
(1.0452 0.0229823 0)
(0.692348 0.00795242 0)
(0.143671 0.000324102 0)
(0.137483 -0.000144106 0)
(0.87358 -0.00877078 0)
(1.08785 -0.0169755 0)
(1.09836 -0.0177662 0)
(1.0722 -0.0159362 0)
(1.0532 -0.0136901 0)
(1.03997 -0.0112692 0)
(1.03067 -0.00828352 0)
(1.02456 -0.0044975 0)
(1.02161 0.000209413 0)
(1.02225 0.00508362 0)
(1.02636 0.00902805 0)
(1.03369 0.01206 0)
(1.04455 0.0143193 0)
(1.06022 0.0162747 0)
(1.08309 0.0181202 0)
(1.10275 0.0188681 0)
(1.01847 0.0145756 0)
(0.655836 0.00406732 0)
(0.136082 0.000163741 0)
(0.134618 -1.67708e-05 0)
(0.849398 -0.00415224 0)
(1.07613 -0.0104437 0)
(1.09866 -0.0121223 0)
(1.07446 -0.0117345 0)
(1.05553 -0.0108427 0)
(1.04271 -0.00914156 0)
(1.03399 -0.00669355 0)
(1.02837 -0.00345128 0)
(1.02561 0.000720755 0)
(1.026 0.00495506 0)
(1.02958 0.00836543 0)
(1.03621 0.0107768 0)
(1.0465 0.0124383 0)
(1.06192 0.0132957 0)
(1.0845 0.0134321 0)
(1.09853 0.0129689 0)
(0.99637 0.00840345 0)
(0.636186 0.00180052 0)
(0.132786 4.19685e-05 0)
(0.133962 2.23125e-05 0)
(0.834424 -0.00213707 0)
(1.06458 -0.00728424 0)
(1.09659 -0.010141 0)
(1.07478 -0.0107281 0)
(1.05691 -0.0101429 0)
(1.04466 -0.00883303 0)
(1.03636 -0.00648213 0)
(1.03098 -0.00301167 0)
(1.0282 0.00123163 0)
(1.02844 0.00550113 0)
(1.03167 0.0089463 0)
(1.03784 0.0112749 0)
(1.04757 0.0125029 0)
(1.06197 0.0129352 0)
(1.0835 0.0124309 0)
(1.09196 0.0105781 0)
(0.978771 0.00553892 0)
(0.625418 0.000949246 0)
(0.131589 5.75122e-06 0)
(0.133898 1.75933e-05 0)
(0.823723 -0.00133434 0)
(1.0517 -0.00598507 0)
(1.09153 -0.0103422 0)
(1.0744 -0.0119528 0)
(1.05848 -0.0118617 0)
(1.04771 -0.0101669 0)
(1.04037 -0.00719563 0)
(1.0353 -0.00314609 0)
(1.03248 0.00176121 0)
(1.0325 0.00664694 0)
(1.03534 0.0105771 0)
(1.0406 0.0133831 0)
(1.04893 0.0149707 0)
(1.06146 0.0150063 0)
(1.08055 0.0138681 0)
(1.08183 0.0102527 0)
(0.962917 0.00443662 0)
(0.618057 0.000747191 0)
(0.13086 1.65564e-05 0)
(0.133976 1.70763e-05 0)
(0.815945 -0.000658035 0)
(1.038 -0.00437374 0)
(1.08304 -0.00944056 0)
(1.07281 -0.0123298 0)
(1.05962 -0.0123316 0)
(1.05056 -0.0106281 0)
(1.04396 -0.00745772 0)
(1.03916 -0.00312361 0)
(1.03625 0.00243634 0)
(1.036 0.00792005 0)
(1.03831 0.0122527 0)
(1.0429 0.0150978 0)
(1.0499 0.0165581 0)
(1.06026 0.0165115 0)
(1.07418 0.014192 0)
(1.0681 0.00918474 0)
(0.948544 0.00341993 0)
(0.612444 0.000603915 0)
(0.130103 2.52297e-05 0)
(0.134284 2.71734e-05 0)
(0.811487 -3.1291e-05 0)
(1.02666 -0.00229562 0)
(1.07368 -0.00642169 0)
(1.06956 -0.00934883 0)
(1.06077 -0.00993274 0)
(1.05368 -0.00866193 0)
(1.04798 -0.00586207 0)
(1.04373 -0.00180641 0)
(1.04083 0.00350452 0)
(1.0402 0.00867694 0)
(1.04178 0.0125898 0)
(1.04533 0.0150382 0)
(1.05052 0.0159238 0)
(1.05804 0.0151465 0)
(1.06564 0.0119924 0)
(1.05423 0.00699958 0)
(0.937328 0.00242785 0)
(0.608391 0.000491859 0)
(0.129385 2.75092e-05 0)
(0.134886 3.62755e-05 0)
(0.810033 0.000489606 0)
(1.01972 -0.000461321 0)
(1.06649 -0.00292928 0)
(1.06636 -0.00502752 0)
(1.06107 -0.00569955 0)
(1.0559 -0.00486691 0)
(1.05124 -0.00267326 0)
(1.04754 0.000721197 0)
(1.04462 0.00503787 0)
(1.04348 0.00913258 0)
(1.0444 0.0119841 0)
(1.04655 0.0134228 0)
(1.04998 0.0132726 0)
(1.05421 0.0117278 0)
(1.05766 0.00878752 0)
(1.04339 0.00491177 0)
(0.929689 0.0018004 0)
(0.605382 0.000460833 0)
(0.128692 2.96803e-05 0)
(0.135754 4.58409e-05 0)
(0.810525 0.000818075 0)
(1.01675 0.000833335 0)
(1.06245 -0.000170757 0)
(1.0643 -0.00118392 0)
(1.06121 -0.00144977 0)
(1.05761 -0.000699613 0)
(1.0539 0.00107327 0)
(1.05056 0.00376146 0)
(1.04751 0.00694496 0)
(1.04573 0.00973622 0)
(1.046 0.0112606 0)
(1.04665 0.0116012 0)
(1.04837 0.0107752 0)
(1.05041 0.00898849 0)
(1.05138 0.0064888 0)
(1.03595 0.00372458 0)
(0.924512 0.00161772 0)
(0.60272 0.000520157 0)
(0.127923 3.64585e-05 0)
(0.136876 5.75888e-05 0)
(0.812612 0.00117143 0)
(1.01657 0.00180589 0)
(1.06111 0.00181429 0)
(1.06371 0.0017589 0)
(1.06179 0.00208955 0)
(1.05915 0.00304563 0)
(1.05606 0.00467534 0)
(1.05282 0.00687187 0)
(1.04948 0.0091839 0)
(1.04702 0.0109015 0)
(1.04626 0.0114343 0)
(1.04583 0.0107954 0)
(1.04623 0.00944679 0)
(1.04688 0.0075953 0)
(1.04655 0.0054748 0)
(1.03074 0.00338784 0)
(0.920433 0.00174808 0)
(0.599855 0.000641974 0)
(0.126971 4.71465e-05 0)
(0.138302 7.26408e-05 0)
(0.815859 0.00152582 0)
(1.01809 0.00263078 0)
(1.06181 0.0033893 0)
(1.06451 0.00405289 0)
(1.06307 0.00499158 0)
(1.06085 0.0063304 0)
(1.05798 0.00807517 0)
(1.05459 0.0100639 0)
(1.05076 0.0118401 0)
(1.04745 0.0127208 0)
(1.0457 0.0122857 0)
(1.04431 0.011062 0)
(1.04375 0.00937812 0)
(1.04354 0.00743793 0)
(1.04255 0.00546613 0)
(1.02651 0.00363214 0)
(0.916489 0.00207902 0)
(0.596431 0.000810101 0)
(0.125757 6.09798e-05 0)
(0.140112 9.21107e-05 0)
(0.820281 0.00195892 0)
(1.02109 0.00350659 0)
(1.06391 0.00481268 0)
(1.0666 0.00609344 0)
(1.0652 0.00761501 0)
(1.06298 0.00946369 0)
(1.05994 0.0115314 0)
(1.05613 0.0135755 0)
(1.05156 0.0150839 0)
(1.04725 0.0153612 0)
(1.04435 0.0143108 0)
(1.0422 0.0124705 0)
(1.04091 0.0103866 0)
(1.0401 0.00823307 0)
(1.0387 0.00617142 0)
(1.02241 0.00427926 0)
(0.91207 0.00256865 0)
(0.592174 0.00102594 0)
(0.124214 7.8595e-05 0)
(0.142422 0.000117911 0)
(0.826088 0.00250792 0)
(1.02545 0.00453406 0)
(1.06738 0.00631956 0)
(1.06988 0.00816239 0)
(1.06832 0.0103705 0)
(1.06577 0.012878 0)
(1.06222 0.0154108 0)
(1.05767 0.017705 0)
(1.05205 0.0191245 0)
(1.04653 0.0189219 0)
(1.04243 0.0172649 0)
(1.03948 0.0148644 0)
(1.03753 0.0122951 0)
(1.03624 0.00978464 0)
(1.03453 0.00744172 0)
(1.01785 0.00527234 0)
(0.906742 0.00322382 0)
(0.586814 0.00130034 0)
(0.122265 0.000101306 0)
(0.145399 0.000152179 0)
(0.833633 0.00321855 0)
(1.03139 0.00581799 0)
(1.07239 0.00812016 0)
(1.07451 0.0105653 0)
(1.07252 0.0135611 0)
(1.06937 0.0168477 0)
(1.06507 0.0200674 0)
(1.05942 0.0227738 0)
(1.05238 0.0242135 0)
(1.04535 0.0235712 0)
(1.03993 0.0212608 0)
(1.03606 0.0182051 0)
(1.03343 0.0150287 0)
(1.03167 0.0120187 0)
(1.02964 0.00924504 0)
(1.01243 0.0066352 0)
(0.900138 0.00408198 0)
(0.580043 0.00164704 0)
(0.119817 0.000129945 0)
(0.149292 0.000199215 0)
(0.843438 0.00415547 0)
(1.03918 0.00750468 0)
(1.07902 0.0104554 0)
(1.08062 0.0136419 0)
(1.07798 0.0175668 0)
(1.07405 0.0218061 0)
(1.06866 0.0258769 0)
(1.06152 0.0291269 0)
(1.05263 0.030634 0)
(1.04371 0.0295111 0)
(1.03676 0.0264308 0)
(1.03181 0.0225537 0)
(1.0284 0.0186015 0)
(1.02611 0.0149309 0)
(1.02369 0.0115924 0)
(1.00582 0.00841522 0)
(0.891981 0.00519183 0)
(0.571566 0.00206746 0)
(0.116771 0.000161794 0)
(0.15446 0.000271018 0)
(0.856209 0.00547917 0)
(1.04915 0.00984297 0)
(1.08752 0.0135961 0)
(1.08849 0.0177935 0)
(1.08503 0.0228481 0)
(1.08 0.0282462 0)
(1.07308 0.0332638 0)
(1.06398 0.0371194 0)
(1.05273 0.0386892 0)
(1.0415 0.0369755 0)
(1.03275 0.0329471 0)
(1.02651 0.0280378 0)
(1.0222 0.0230939 0)
(1.01927 0.0185566 0)
(1.01638 0.0144847 0)
(0.997691 0.0105899 0)
(0.881983 0.00653017 0)
(0.561091 0.00260431 0)
(0.11299 0.00019964 0)
(0.161433 0.000384228 0)
(0.872944 0.00744353 0)
(1.06201 0.013161 0)
(1.09847 0.0179374 0)
(1.0985 0.0234036 0)
(1.09388 0.0298901 0)
(1.08726 0.0365908 0)
(1.07826 0.0426838 0)
(1.06664 0.0472 0)
(1.05248 0.0487452 0)
(1.0385 0.0462507 0)
(1.02763 0.0410455 0)
(1.01989 0.0348654 0)
(1.01451 0.0286872 0)
(1.01084 0.023041 0)
(1.00739 0.0180263 0)
(0.987728 0.0132461 0)
(0.869471 0.00819408 0)
(0.5481 0.00325449 0)
(0.10833 0.000248658 0)
(0.170989 0.000559718 0)
(0.894932 0.0104094 0)
(1.07869 0.0179141 0)
(1.11267 0.0240575 0)
(1.11129 0.031234 0)
(1.10493 0.039451 0)
(1.09602 0.0476754 0)
(1.08423 0.0549419 0)
(1.06938 0.0600092 0)
(1.05167 0.061273 0)
(1.03445 0.0576898 0)
(1.02112 0.0510242 0)
(1.01161 0.0433145 0)
(1.00497 0.0356562 0)
(1.00042 0.0286563 0)
(0.996293 0.022471 0)
(0.97541 0.0166129 0)
(0.854049 0.0103423 0)
(0.531953 0.00407352 0)
(0.102619 0.000306605 0)
(0.184404 0.000843751 0)
(0.924055 0.0149335 0)
(1.1005 0.0247265 0)
(1.13127 0.0327484 0)
(1.12767 0.042154 0)
(1.11875 0.0525283 0)
(1.10665 0.0625088 0)
(1.0911 0.0708793 0)
(1.07212 0.0762071 0)
(1.05012 0.0767677 0)
(1.02913 0.0716652 0)
(1.01299 0.0631975 0)
(1.00141 0.0536852 0)
(0.993249 0.0443055 0)
(0.987572 0.0357208 0)
(0.982562 0.0281296 0)
(0.960109 0.0209556 0)
(0.834963 0.0131477 0)
(0.512193 0.00515098 0)
(0.0956793 0.000372799 0)
(0.203997 0.00136881 0)
(0.96375 0.0223838 0)
(1.12941 0.0353584 0)
(1.15554 0.0460335 0)
(1.14829 0.0582056 0)
(1.13548 0.0709397 0)
(1.1189 0.0824698 0)
(1.09848 0.0914592 0)
(1.07448 0.0964389 0)
(1.04752 0.0956536 0)
(1.02229 0.0884977 0)
(1.00301 0.0778638 0)
(0.989074 0.0662978 0)
(0.979074 0.05499 0)
(0.971943 0.0446211 0)
(0.965668 0.0354079 0)
(0.941113 0.0266811 0)
(0.811189 0.016888 0)
(0.487885 0.00659458 0)
(0.0872353 0.000457204 0)
(0.233256 0.00257284 0)
(1.01986 0.0361413 0)
(1.16801 0.0537468 0)
(1.18641 0.0676126 0)
(1.17311 0.0826012 0)
(1.1544 0.097125 0)
(1.13181 0.109264 0)
(1.10543 0.117796 0)
(1.07569 0.121349 0)
(1.04329 0.118281 0)
(1.01356 0.108428 0)
(0.990926 0.0952846 0)
(0.974402 0.0815 0)
(0.962276 0.0681797 0)
(0.953312 0.0559404 0)
(0.945237 0.0449847 0)
(0.91776 0.0345647 0)
(0.781433 0.0222112 0)
(0.45825 0.00861743 0)
(0.0774897 0.0005159 0)
(0.27409 0.00956704 -2.28219e-20)
(1.09439 0.0642608 -1.75626e-20)
(1.21496 0.0855925 4.71928e-21)
(1.2215 0.103009 0)
(1.19981 0.119206 -1.02967e-35)
(1.17355 0.133468 4.67389e-22)
(1.14387 0.144496 -2.75264e-21)
(1.11086 0.151199 0)
(1.07487 0.152277 9.90369e-35)
(1.03656 0.146211 -7.42496e-21)
(1.00183 0.133325 0)
(0.975327 0.117618 -1.0581e-20)
(0.955633 0.101718 -3.23316e-20)
(0.94071 0.0866128 -1.56313e-20)
(0.929111 0.0729197 -4.91621e-21)
(0.918178 0.0607471 -2.97415e-21)
(0.886866 0.0490871 0)
(0.742742 0.0334828 2.12791e-21)
(0.421561 0.0157082 2.51178e-21)
(0.0681693 0.00217813 4.40504e-20)
(0.299155 0.0265233 -4.48482e-20)
(1.15361 0.110788 9.95532e-22)
(1.25734 0.134658 -2.47541e-21)
(1.25335 0.152003 0)
(1.22384 0.166468 3.36649e-21)
(1.19023 0.178929 1.3881e-21)
(1.15353 0.188043 -1.85599e-21)
(1.11379 0.192642 -1.29874e-20)
(1.07123 0.191368 0)
(1.02629 0.18263 3.15044e-20)
(0.985404 0.167196 3.47388e-20)
(0.953683 0.149531 1.11436e-20)
(0.929462 0.132213 4.39695e-20)
(0.910423 0.116038 6.47881e-20)
(0.894894 0.101502 0)
(0.879704 0.0888345 9.62938e-20)
(0.843096 0.0767211 1.40883e-19)
(0.700924 0.0577925 1.55972e-19)
(0.397097 0.0325599 -1.81053e-19)
(0.0650971 0.00559483 -3.27334e-21)
(0.293503 0.0430853 0)
(1.18751 0.170089 -1.38836e-20)
(1.28903 0.196576 0)
(1.27831 0.210866 2.17683e-20)
(1.24247 0.221793 0)
(1.20253 0.230716 9.86855e-21)
(1.15961 0.236524 2.22437e-21)
(1.11375 0.237969 -1.9577e-20)
(1.06517 0.233637 -3.06655e-21)
(1.01418 0.221901 1.52542e-20)
(0.967784 0.203972 8.07443e-20)
(0.931539 0.184739 -5.29717e-22)
(0.903509 0.166697 -3.29829e-20)
(0.881096 0.150465 -6.39568e-20)
(0.862536 0.136378 7.76409e-20)
(0.844845 0.124467 -1.39379e-19)
(0.80907 0.112837 -1.91001e-20)
(0.683187 0.0908186 0)
(0.404235 0.0551159 4.32161e-22)
(0.0730315 0.010498 0)
(0.282729 0.0571454 -3.45486e-19)
(1.20252 0.232492 1.4377e-19)
(1.30913 0.263052 7.71147e-20)
(1.2946 0.274462 -1.44798e-20)
(1.25443 0.281386 2.20837e-20)
(1.20981 0.286193 -2.45118e-20)
(1.16191 0.288105 2.83964e-21)
(1.11091 0.285849 0)
(1.05711 0.277991 -6.01486e-20)
(1.00089 0.26296 0)
(0.949797 0.242461 -4.10732e-20)
(0.909951 0.221719 -5.77149e-20)
(0.879244 0.2031 -3.68526e-20)
(0.854861 0.186957 -4.75237e-20)
(0.834943 0.173337 0)
(0.816675 0.162132 0)
(0.783747 0.150926 -1.27874e-19)
(0.671298 0.126905 2.54673e-20)
(0.408945 0.0790027 -1.47461e-20)
(0.0778381 0.0154223 -1.70878e-20)
(0.27239 0.0696016 2.55198e-19)
(1.2056 0.294147 0)
(1.31977 0.330089 -2.16262e-19)
(1.30307 0.339079 -5.48716e-20)
(1.25995 0.342168 -4.10343e-20)
(1.21194 0.342984 0)
(1.16028 0.340969 -4.18245e-21)
(1.10524 0.334882 1.74581e-20)
(1.04715 0.323343 2.63623e-20)
(0.986543 0.304818 7.6405e-20)
(0.93174 0.281517 0)
(0.889293 0.259042 -1.25238e-19)
(0.856884 0.239557 -8.00141e-20)
(0.83143 0.223137 -4.81555e-20)
(0.810903 0.209628 3.15406e-19)
(0.792698 0.198706 3.86404e-20)
(0.762605 0.187404 1.8466e-19)
(0.659145 0.160416 -8.89857e-19)
(0.407238 0.100466 5.25657e-19)
(0.0791026 0.0197533 -6.28317e-19)
(0.263541 0.0807894 2.69321e-19)
(1.20112 0.353112 -5.05144e-20)
(1.32331 0.395885 3.81466e-20)
(1.30551 0.402815 1.0317e-19)
(1.26032 0.402357 6.27227e-20)
(1.20981 0.399488 3.25186e-21)
(1.15522 0.393769 3.4874e-21)
(1.09689 0.383966 1.31345e-20)
(1.03531 0.368745 -5.75283e-20)
(0.971044 0.346596 0)
(0.913049 0.32029 -5.37574e-20)
(0.868477 0.295768 -2.92906e-21)
(0.834848 0.275 -8.93607e-20)
(0.808807 0.257837 0)
(0.788177 0.243901 -6.8675e-20)
(0.770452 0.232688 -1.66715e-19)
(0.742607 0.220726 4.60697e-19)
(0.644775 0.190179 -4.57758e-19)
(0.400832 0.119072 6.47363e-19)
(0.0783623 0.0234179 -6.66156e-19)
(0.256462 0.0911256 -8.76185e-22)
(1.19207 0.408866 6.18527e-20)
(1.32171 0.459284 1.82949e-19)
(1.30334 0.464701 -6.34448e-20)
(1.25662 0.461037 3.59149e-20)
(1.20417 0.454777 0)
(1.14729 0.445595 1.5453e-20)
(1.08628 0.432305 -1.02653e-20)
(1.02167 0.413539 -2.629e-20)
(0.95421 0.387789 0)
(0.893554 0.35826 -5.23397e-20)
(0.847356 0.331337 -7.33874e-20)
(0.812919 0.308828 9.7547e-20)
(0.786653 0.290435 -6.24073e-20)
(0.76618 0.275615 -3.01706e-19)
(0.748996 0.263657 1.85236e-19)
(0.722665 0.250662 5.85785e-20)
(0.628536 0.21632 0)
(0.391287 0.134932 -6.2745e-19)
(0.0764145 0.0264246 -2.27518e-20)
(0.25098 0.100974 4.40745e-20)
(1.18049 0.461286 -7.11167e-20)
(1.31617 0.519824 -9.98625e-20)
(1.29765 0.5241 -1.94774e-19)
(1.24985 0.517617 1.75073e-19)
(1.19593 0.508312 -9.2031e-20)
(1.1372 0.495962 -3.26484e-20)
(1.07393 0.479445 -1.46859e-20)
(1.00674 0.457349 2.56708e-20)
(0.936563 0.428077 -1.85292e-19)
(0.873561 0.395185 -6.42216e-20)
(0.825879 0.365533 0)
(0.790752 0.340892 1.06514e-19)
(0.764348 0.320863 1.3155e-19)
(0.744109 0.304796 1.61819e-19)
(0.727467 0.291772 -2.01855e-19)
(0.702229 0.277324 -6.06815e-20)
(0.61071 0.23923 7.17481e-20)
(0.379638 0.148348 0)
(0.0737556 0.0288335 -4.95496e-20)
(0.246768 0.110444 -5.10923e-19)
(1.16776 0.510509 3.26275e-19)
(1.30787 0.577151 1.09595e-19)
(1.28937 0.580619 -1.4881e-19)
(1.24077 0.571694 1.05019e-19)
(1.18572 0.5597 -7.58226e-21)
(1.12552 0.544528 3.18357e-20)
(1.06043 0.525078 -6.28276e-21)
(0.990965 0.499905 -4.68208e-20)
(0.918167 0.467265 2.83094e-22)
(0.852906 0.430959 -1.91141e-19)
(0.8038 0.398316 1.86319e-19)
(0.768028 0.371218 -1.19208e-19)
(0.741531 0.349202 1.48166e-19)
(0.721567 0.331561 0)
(0.705426 0.317219 -1.09529e-19)
(0.680968 0.301116 -2.65076e-21)
(0.591585 0.259123 -3.13436e-19)
(0.366349 0.159608 -4.60734e-20)
(0.0704458 0.0306039 0)
(0.243566 0.119599 0)
(1.15451 0.556795 3.52621e-19)
(1.29766 0.631376 2.55873e-19)
(1.27921 0.634158 1.68003e-19)
(1.23002 0.623092 1.00842e-19)
(1.17412 0.608733 0)
(1.11274 0.591054 3.1917e-20)
(1.04605 0.568988 -2.43223e-21)
(0.974529 0.541022 9.87926e-20)
(0.899216 0.505233 -2.26162e-20)
(0.831722 0.465561 -1.39995e-19)
(0.781161 0.429777 9.32404e-20)
(0.744652 0.399953 -3.83015e-21)
(0.718013 0.375637 1.56057e-19)
(0.698303 0.356096 1.01842e-19)
(0.682642 0.340168 -2.3851e-19)
(0.658807 0.322126 2.88344e-19)
(0.571245 0.276057 8.59714e-20)
(0.351497 0.168548 3.52973e-19)
(0.0665403 0.0317056 -9.32336e-19)
(0.241231 0.128627 -1.30771e-19)
(1.14132 0.600379 2.03585e-19)
(1.28606 0.68233 -1.59696e-19)
(1.26777 0.684659 -1.95063e-19)
(1.21813 0.671737 0)
(1.16157 0.655308 8.13426e-20)
(1.09921 0.635437 -9.16901e-20)
(1.03115 0.611064 3.58559e-21)
(0.95779 0.580628 0)
(0.88009 0.541958 -3.49392e-19)
(0.810179 0.499043 3.80998e-19)
(0.757978 0.460057 0)
(0.720526 0.427279 1.41053e-19)
(0.693609 0.400372 -3.87772e-21)
(0.674088 0.378607 -3.22513e-19)
(0.658932 0.36084 1.26631e-19)
(0.635622 0.340621 0)
(0.549454 0.290172 4.659e-19)
(0.335043 0.175172 0)
(0.0620856 0.0321227 -4.44489e-19)
(0.239586 0.137495 1.45518e-19)
(1.12847 0.641437 2.32682e-19)
(1.27367 0.730108 -1.66966e-19)
(1.25547 0.732157 0)
(1.2055 0.717638 1.39174e-19)
(1.14845 0.699407 0)
(1.08532 0.677631 1.21844e-19)
(1.01608 0.651268 1.2452e-20)
(0.941017 0.618708 1.0314e-20)
(0.860972 0.577504 -1.72288e-19)
(0.788439 0.531554 3.69405e-20)
(0.734302 0.489313 0)
(0.695658 0.453354 -3.00103e-19)
(0.668225 0.423584 4.02946e-21)
(0.648859 0.399269 0)
(0.634246 0.379337 4.80485e-21)
(0.611339 0.356572 4.24564e-19)
(0.526084 0.301363 -4.08595e-19)
(0.316948 0.179353 1.19686e-19)
(0.0570408 0.0318585 0)
(0.238228 0.146089 0)
(1.11597 0.680158 2.59853e-19)
(1.26095 0.774799 1.95694e-19)
(1.24266 0.776771 -4.24655e-21)
(1.19249 0.760834 8.7272e-20)
(1.13511 0.741044 1.91786e-19)
(1.07135 0.717634 -3.90969e-20)
(1.00108 0.689589 3.62929e-21)
(0.924426 0.655241 6.00487e-20)
(0.842021 0.611901 -2.67595e-19)
(0.766706 0.5632 -6.01019e-21)
(0.710236 0.51774 -1.22666e-19)
(0.670162 0.478403 4.91956e-19)
(0.641988 0.445439 -4.84734e-21)
(0.622658 0.418325 -2.54748e-19)
(0.608355 0.395805 -4.64859e-19)
(0.585606 0.370125 0)
(0.500973 0.309714 0)
(0.297101 0.181 1.321e-19)
(0.0514767 0.0308036 -7.59916e-20)
(0.237399 0.154489 1.80328e-19)
(1.10395 0.716539 -5.67034e-19)
(1.248 0.81659 -2.09027e-19)
(1.2296 0.818597 0)
(1.17935 0.801388 -2.8923e-21)
(1.12174 0.780245 2.30592e-19)
(1.0575 0.755452 -1.32071e-19)
(0.98637 0.726029 -5.43119e-20)
(0.90825 0.690245 6.20508e-20)
(0.82349 0.645173 -2.0552e-19)
(0.745193 0.594076 -3.20812e-19)
(0.68593 0.545603 3.26779e-19)
(0.644047 0.502829 0)
(0.614894 0.466357 -1.14832e-19)
(0.595189 0.436014 -2.79942e-19)
(0.580923 0.410515 -3.37359e-19)
(0.558078 0.38133 -4.09396e-19)
(0.473639 0.315076 1.22412e-19)
(0.2753 0.179736 -7.14818e-20)
(0.045388 0.0289352 8.97321e-22)
(0.236613 0.162583 0)
(1.09283 0.750433 0)
(1.23496 0.85571 4.62039e-21)
(1.2165 0.85772 0)
(1.16627 0.839395 -3.27147e-19)
(1.10853 0.817079 -2.03731e-19)
(1.04396 0.791117 0)
(0.972119 0.760595 -1.39515e-20)
(0.892668 0.723729 7.79534e-20)
(0.805566 0.677366 -4.70917e-19)
(0.724058 0.624365 0)
(0.661511 0.573199 -2.08973e-19)
(0.617024 0.52701 -5.97582e-21)
(0.586381 0.486713 -4.95522e-21)
(0.566101 0.452589 2.99217e-19)
(0.551817 0.423642 -7.69021e-22)
(0.528721 0.390298 -8.90744e-19)
(0.443899 0.317243 2.67584e-19)
(0.251363 0.175419 7.91507e-20)
(0.0387776 0.0261966 0)
(0.235778 0.170402 -6.60633e-19)
(1.08213 0.782389 -3.48165e-19)
(1.22201 0.892279 -5.2118e-19)
(1.20353 0.894253 7.28093e-19)
(1.15339 0.874937 -6.12387e-19)
(1.09563 0.851616 0)
(1.03086 0.824687 -1.1281e-19)
(0.958445 0.793313 2.59909e-20)
(0.877795 0.755694 7.20504e-21)
(0.788411 0.708488 3.70816e-20)
(0.703486 0.654113 4.00284e-19)
(0.637215 0.600648 -7.13359e-20)
(0.589191 0.551061 -3.03142e-19)
(0.556274 0.506587 -1.36478e-19)
(0.535239 0.468331 1.66818e-19)
(0.520742 0.435162 -6.69199e-22)
(0.497199 0.397011 2.45159e-19)
(0.411408 0.316128 -5.80995e-19)
(0.224747 0.167543 6.90844e-19)
(0.0316403 0.0226362 9.83068e-20)
(0.234809 0.177801 2.41879e-19)
(1.07186 0.812459 -1.89875e-19)
(1.20928 0.926396 1.12132e-20)
(1.19081 0.928325 4.10299e-19)
(1.14083 0.908128 1.42877e-19)
(1.08314 0.883933 4.05676e-19)
(1.01828 0.856216 -5.00264e-20)
(0.945439 0.824207 1.25213e-19)
(0.863735 0.786133 -4.19647e-20)
(0.772183 0.738517 -2.55412e-19)
(0.683735 0.683296 0)
(0.613395 0.628017 -3.20284e-19)
(0.561208 0.575335 4.39509e-19)
(0.524988 0.52669 0)
(0.502386 0.483637 -3.56966e-19)
(0.48739 0.445445 2.2171e-19)
(0.463109 0.400997 -2.65178e-19)
(0.376022 0.311057 -3.19744e-19)
(0.195835 0.156076 -5.63829e-19)
(0.0241764 0.0182855 -4.33166e-19)
(0.233976 0.18489 -2.64928e-19)
(1.06187 0.84065 2.02725e-19)
(1.19686 0.958172 4.83429e-19)
(1.1784 0.960039 5.6282e-19)
(1.12865 0.939067 -2.98426e-19)
(1.07113 0.914126 2.79341e-19)
(1.0063 0.885765 -1.5539e-19)
(0.933168 0.853326 1.55708e-19)
(0.850558 0.815066 -1.25731e-20)
(0.756978 0.767451 2.42628e-19)
(0.665023 0.71197 8.45693e-19)
(0.590285 0.655443 0)
(0.533492 0.600311 0)
(0.492832 0.547759 -1.57598e-19)
(0.467382 0.499292 0)
(0.451046 0.454405 4.83373e-19)
(0.425795 0.401805 5.81164e-19)
(0.337753 0.301132 0)
(0.165608 0.140886 0)
(0.016908 0.0134999 4.73755e-19)
(0.232867 0.19141 2.91271e-19)
(1.05216 0.866998 2.42118e-19)
(1.1848 0.987745 3.46321e-19)
(1.16639 0.989538 -5.00718e-19)
(1.11692 0.967867 -3.31817e-19)
(1.05964 0.942279 -3.6962e-19)
(0.994968 0.913404 2.30049e-19)
(0.921669 0.880703 8.75762e-22)
(0.838318 0.842494 -9.1883e-21)
(0.742868 0.795254 -1.19111e-20)
(0.647496 0.740089 4.27208e-19)
(0.568163 0.682996 0)
(0.506319 0.626064 4.41375e-19)
(0.460092 0.570318 3.30994e-19)
(0.429841 0.516388 8.47864e-19)
(0.410486 0.462781 2.60152e-19)
(0.38358 0.397784 -3.22759e-19)
(0.296843 0.283528 -1.90121e-19)
(0.13724 0.121281 0)
(0.0112945 0.00893006 5.16938e-19)
(0.231943 0.197773 -6.37855e-19)
(1.04274 0.89166 0)
(1.17312 1.01522 3.85312e-19)
(1.15478 1.01692 -4.08788e-19)
(1.10567 0.994632 3.74294e-19)
(1.04871 0.968488 5.38388e-19)
(0.984293 0.939199 -5.32163e-19)
(0.910958 0.906379 5.15358e-21)
(0.82703 0.868424 0)
(0.729915 0.821882 -2.24012e-19)
(0.631266 0.767566 -8.81286e-19)
(0.547317 0.710613 4.31837e-20)
(0.480008 0.652744 5.9632e-19)
(0.427214 0.594746 0)
(0.389901 0.536132 5.69314e-19)
(0.364158 0.472164 0)
(0.332151 0.388018 0)
(0.251323 0.250872 -2.12808e-19)
(0.12154 0.0880401 0)
(0.0260408 0.0124539 1.39797e-19)
(0.230702 0.203471 -6.9465e-19)
(1.03358 0.914936 0)
(1.16179 1.0408 6.21539e-19)
(1.14356 1.04242 0)
(1.09486 1.01961 -2.02235e-19)
(1.03826 0.993026 0)
(0.9742 0.963444 -3.96416e-20)
(0.900931 0.930671 -2.71052e-20)
(0.816577 0.893192 -7.01096e-22)
(0.717982 0.847695 -2.1807e-19)
(0.61625 0.7948 2.2947e-20)
(0.527673 0.738804 3.55503e-19)
(0.454641 0.680735 5.7502e-19)
(0.394162 0.622025 8.22567e-20)
(0.347187 0.561152 4.42264e-19)
(0.309943 0.486701 0)
(0.260855 0.375887 7.03721e-19)
(0.181327 0.190628 -4.19796e-19)
(0.0697756 0.0810428 4.78652e-19)
(-0.0544189 0.379463 -5.67622e-19)
(0.229449 0.208883 5.64823e-19)
(1.02445 0.936666 9.09753e-19)
(1.15074 1.0648 0)
(1.1326 1.06643 8.67888e-21)
(1.08433 1.04334 5.48144e-19)
(1.02808 1.01652 -1.03598e-18)
(0.964437 0.986864 -2.3363e-19)
(0.891276 0.954446 0)
(0.806568 0.917828 -4.79314e-20)
(0.706581 0.873963 -6.41289e-21)
(0.601755 0.823268 0)
(0.508315 0.769363 0)
(0.429132 0.712077 5.0186e-19)
(0.360331 0.653987 -2.55612e-19)
(0.300594 0.595321 -4.37326e-19)
(0.245636 0.515392 0)
(0.149219 0.371283 3.50386e-19)
(0.0420477 0.459844 -4.15951e-19)
(0.0478741 1.7211 -2.20323e-19)
(0.0867227 2.72384 -2.90973e-19)
(0.228022 0.213488 -4.09398e-19)
(1.01556 0.957027 -1.14228e-18)
(1.13995 1.08724 3.55441e-19)
(1.12191 1.08882 3.43354e-19)
(1.07413 1.06563 0)
(1.0182 1.03871 -7.39792e-19)
(0.955157 1.00917 -3.90553e-19)
(0.882129 0.977299 1.80817e-20)
(0.797206 0.94183 -6.35757e-21)
(0.696015 0.900062 1.63281e-19)
(0.588312 0.852248 3.86782e-19)
(0.490182 0.801593 3.60582e-19)
(0.404675 0.746109 4.88816e-19)
(0.328187 0.688842 -5.77827e-19)
(0.25622 0.639596 -6.40357e-19)
(0.179103 0.563545 0)
(0.0864732 0.81663 0)
(0.140539 2.42229 1.81784e-19)
(0.149168 3.14884 0)
(0.149557 3.36684 3.92216e-19)
(0.229423 0.218061 0)
(1.0074 0.976147 0)
(1.12917 1.10798 0)
(1.11126 1.10937 9.52315e-20)
(1.06399 1.08628 4.86445e-19)
(1.00841 1.05947 -5.62773e-19)
(0.946261 1.03028 -2.79113e-19)
(0.873431 0.999122 2.05425e-20)
(0.788447 0.965052 -1.21437e-19)
(0.686287 0.925826 -1.96297e-20)
(0.576015 0.881573 6.91113e-19)
(0.473577 0.835217 -4.1999e-20)
(0.381678 0.783278 5.42777e-20)
(0.299042 0.724061 8.13877e-20)
(0.22287 0.688645 3.93272e-21)
(0.148727 0.92302 3.23572e-21)
(0.190572 2.53691 -8.73874e-19)
(0.216855 3.26099 -3.3065e-19)
(0.197983 3.42398 1.48141e-19)
(0.177575 3.45227 -1.49488e-19)
(0.147329 0.170147 2.24406e-19)
(0.99268 0.997122 0)
(1.11829 1.12718 -6.95478e-19)
(1.10136 1.1287 -8.89229e-19)
(1.05448 1.10594 1.01322e-18)
(0.999458 1.07934 5.97904e-19)
(0.937613 1.05024 3.22667e-19)
(0.865245 1.02 -3.49176e-19)
(0.780411 0.987615 1.30366e-19)
(0.677735 0.951173 0)
(0.56552 0.910913 2.92603e-19)
(0.459408 0.869269 -2.63991e-19)
(0.361529 0.824284 0)
(0.273311 0.764367 6.89566e-20)
(0.21165 0.86361 1.65331e-19)
(0.191954 2.14848 -2.07843e-19)
(0.289357 3.29463 2.2558e-19)
(0.266937 3.44696 1.06357e-19)
(0.223231 3.47611 1.20057e-19)
(0.19405 3.48897 1.388e-19)
(0.266098 0.25099 -4.03533e-19)
(0.972438 1.0002 0)
(1.0979 1.14708 6.98325e-19)
(1.08756 1.15745 9.04373e-19)
(1.03942 1.13448 -1.03042e-18)
(0.984825 1.10849 -6.295e-19)
(0.923221 1.08084 -4.99224e-19)
(0.851355 1.05214 -2.60579e-20)
(0.766435 1.02262 -1.91328e-19)
(0.662417 0.991213 7.55639e-21)
(0.546592 0.958799 1.10572e-20)
(0.434629 0.926559 1.99088e-19)
(0.327019 0.896358 4.30397e-20)
(0.251576 0.988777 -6.13108e-20)
(0.293842 2.08016 -1.4073e-19)
(0.370672 3.29015 8.57979e-20)
(0.362057 3.48849 -6.8291e-20)
(0.317044 3.51819 -3.7834e-20)
(0.271939 3.55169 3.73268e-20)
(0.20689 3.54185 1.27763e-21)
(0.253232 0.246584 0)
(0.967527 1.01863 1.83174e-19)
(1.08908 1.16693 -1.38937e-19)
(1.07743 1.17708 -1.01144e-19)
(1.02992 1.15424 -6.78097e-19)
(0.97593 1.12846 6.15865e-19)
(0.914684 1.10109 3.36449e-19)
(0.843525 1.07341 -2.73998e-20)
(0.759178 1.0458 2.37984e-19)
(0.655221 1.01795 -2.6909e-20)
(0.538227 0.991097 -3.61453e-19)
(0.424004 0.966067 2.79013e-20)
(0.318125 0.956476 -3.64966e-20)
(0.300507 1.36009 -4.88265e-20)
(0.410109 2.92776 3.80181e-20)
(0.457477 3.47334 1.92265e-21)
(0.403986 3.56289 -1.42351e-19)
(0.360826 3.59112 -1.51132e-19)
(0.296428 3.62066 1.88313e-19)
(0.223552 3.61315 6.84972e-20)
(0.235729 0.242475 4.46476e-19)
(0.960527 1.03925 1.23798e-18)
(1.07948 1.18819 -3.97371e-19)
(1.06685 1.19789 -3.84823e-19)
(1.01997 1.17491 0)
(0.966654 1.14914 9.01881e-19)
(0.906106 1.12209 5.1372e-19)
(0.83599 1.09541 -2.88767e-20)
(0.752622 1.06984 2.4681e-20)
(0.649347 1.04584 1.21151e-19)
(0.532025 1.02489 -1.02479e-19)
(0.41727 1.008 -1.85185e-19)
(0.326086 1.04958 -2.29469e-19)
(0.385342 1.90163 2.43071e-19)
(0.515937 3.32215 7.46289e-20)
(0.523505 3.55533 0)
(0.457957 3.61504 0)
(0.411194 3.67314 1.81249e-19)
(0.327253 3.742 0)
(0.237721 3.71098 3.68925e-19)
(0.223131 0.241649 -6.53066e-19)
(0.951336 1.06027 -1.03375e-18)
(1.06839 1.21019 0)
(1.05503 1.2192 9.53649e-21)
(1.00888 1.19581 -6.6198e-19)
(0.956403 1.16991 1.3413e-18)
(0.896933 1.14317 3.45661e-19)
(0.828148 1.11741 -3.59651e-20)
(0.746116 1.09386 2.68054e-19)
(0.644016 1.07374 -1.37213e-20)
(0.527065 1.05887 0)
(0.413755 1.05137 0)
(0.355366 1.20382 -1.57678e-19)
(0.492734 2.51646 3.83712e-20)
(0.614067 3.48192 -6.35178e-20)
(0.582674 3.60478 0)
(0.535252 3.67336 4.22053e-19)
(0.469626 3.76911 -6.34112e-19)
(0.414469 3.79005 -5.13258e-19)
(0.276787 3.77083 4.51308e-20)