/*--------------------------------*- C++ -*----------------------------------*\
  =========                 |
  \\      /  F ield         | OpenFOAM: The Open Source CFD Toolbox
   \\    /   O peration     | Website:  https://openfoam.org
    \\  /    A nd           | Version:  9
     \\/     M anipulation  |
\*---------------------------------------------------------------------------*/
FoamFile
{
    format      ascii;
    class       volScalarField;
    location    "12";
    object      p;
}
// * * * * * * * * * * * * * * * * * * * * * * * * * * * * * * * * * * * * * //

dimensions      [0 2 -2 0 0 0 0];

internalField   nonuniform List<scalar> 
8800
(
0.43757
0.389558
0.35124
0.32268
0.302168
0.287552
0.277101
0.269733
0.264965
0.262842
0.263869
0.267726
0.274037
0.283038
0.295517
0.31289
0.33718
0.370684
0.413049
0.470144
0.269933
0.277174
0.285706
0.289244
0.287475
0.282132
0.275615
0.269599
0.264933
0.262061
0.261617
0.263827
0.267993
0.273645
0.280221
0.286532
0.290423
0.289731
0.283511
0.274434
0.246441
0.252699
0.25705
0.260609
0.263313
0.264318
0.263421
0.261473
0.259518
0.258484
0.259212
0.261241
0.263636
0.265428
0.2656
0.263749
0.260619
0.256734
0.252046
0.24823
0.240954
0.243736
0.246791
0.249461
0.251421
0.252995
0.254121
0.254481
0.254283
0.254163
0.254611
0.255343
0.255693
0.255194
0.253981
0.25237
0.250173
0.247233
0.244515
0.242995
0.2357
0.237183
0.239412
0.241987
0.244181
0.245793
0.246986
0.247962
0.248709
0.24924
0.24951
0.249454
0.249019
0.248249
0.247098
0.245353
0.243029
0.240544
0.238883
0.238102
0.231005
0.231873
0.233817
0.236228
0.23861
0.240836
0.24262
0.243858
0.244714
0.245312
0.24568
0.245665
0.245147
0.244011
0.242221
0.240075
0.237787
0.235554
0.234267
0.233888
0.228436
0.228881
0.2302
0.231923
0.233608
0.235162
0.236693
0.238179
0.239426
0.240334
0.2407
0.240464
0.239727
0.23868
0.237477
0.236065
0.234466
0.232939
0.232135
0.231976
0.226979
0.227226
0.227983
0.22907
0.230294
0.231662
0.23304
0.234337
0.235529
0.236511
0.237027
0.236989
0.236533
0.235745
0.234717
0.233681
0.232725
0.231875
0.231445
0.23136
0.225066
0.225206
0.225622
0.226281
0.227065
0.228015
0.229187
0.230454
0.231711
0.23283
0.233503
0.233614
0.23332
0.232794
0.232253
0.231741
0.231223
0.230807
0.230594
0.23054
0.222341
0.222422
0.222717
0.223227
0.223869
0.224542
0.225514
0.226622
0.227835
0.229055
0.229962
0.230397
0.230466
0.230321
0.23016
0.229879
0.229586
0.229332
0.229217
0.229186
0.219152
0.219195
0.219423
0.219864
0.220394
0.221231
0.222103
0.223207
0.224508
0.225921
0.227108
0.227831
0.22818
0.228289
0.228192
0.228122
0.227947
0.227792
0.22774
0.227725
0.215678
0.215706
0.215889
0.21627
0.216796
0.21749
0.218386
0.219538
0.220963
0.222625
0.224163
0.225249
0.225928
0.226322
0.226505
0.226556
0.226511
0.226459
0.226452
0.226443
0.211858
0.211883
0.212042
0.212382
0.212894
0.213606
0.214577
0.215868
0.217522
0.21954
0.221512
0.222998
0.224002
0.224649
0.225033
0.225241
0.225334
0.225377
0.225402
0.225394
0.207582
0.207609
0.20777
0.208107
0.208635
0.209409
0.210505
0.212009
0.213996
0.216484
0.218997
0.220961
0.222325
0.223256
0.223858
0.22423
0.224448
0.224571
0.224622
0.224612
0.202755
0.202781
0.202968
0.203336
0.203933
0.204828
0.206125
0.207938
0.210373
0.213471
0.216644
0.219151
0.220985
0.222232
0.223063
0.223599
0.223931
0.224121
0.224195
0.224184
0.197266
0.197296
0.197515
0.197956
0.198669
0.199751
0.201335
0.203571
0.206598
0.210479
0.214493
0.217717
0.220035
0.221648
0.222734
0.223445
0.223893
0.224149
0.224247
0.224234
0.190952
0.19099
0.191266
0.19181
0.192695
0.194043
0.196018
0.198816
0.202614
0.207494
0.21255
0.216611
0.219551
0.221601
0.222988
0.223898
0.224473
0.224801
0.224927
0.224911
0.183599
0.183647
0.183996
0.18469
0.185827
0.187542
0.190037
0.193569
0.198363
0.204509
0.210863
0.215958
0.219647
0.222222
0.223966
0.225111
0.225835
0.226247
0.226404
0.226385
0.174918
0.174979
0.175431
0.176334
0.1778
0.179994
0.18319
0.1877
0.193778
0.201526
0.209492
0.215856
0.220457
0.223668
0.225844
0.227273
0.228173
0.228683
0.228878
0.228854
0.164507
0.16459
0.165184
0.166367
0.16828
0.171133
0.175275
0.181058
0.188788
0.198556
0.208516
0.21643
0.222139
0.226123
0.228825
0.230602
0.23172
0.232351
0.232589
0.232557
0.151824
0.15194
0.152727
0.154304
0.156837
0.160599
0.165991
0.173454
0.183324
0.19563
0.208035
0.217829
0.224879
0.229801
0.233148
0.235356
0.236749
0.237532
0.237825
0.237778
0.136083
0.136248
0.137314
0.139461
0.142881
0.14789
0.15501
0.164735
0.17736
0.192819
0.208184
0.220227
0.228885
0.234943
0.239078
0.241823
0.243557
0.244518
0.244877
0.24482
0.116099
0.116335
0.117842
0.120876
0.125619
0.132471
0.142037
0.154786
0.170929
0.19025
0.209129
0.223815
0.234379
0.241807
0.246916
0.250339
0.25253
0.253751
0.254189
0.254112
0.0899813
0.0903427
0.0926235
0.0971541
0.104015
0.113679
0.126736
0.143546
0.164141
0.188096
0.211047
0.228766
0.241548
0.250621
0.256943
0.261243
0.264037
0.265613
0.266177
0.266074
0.0545618
0.0552297
0.0590744
0.0663952
0.0768542
0.0909048
0.108963
0.131144
0.157225
0.186577
0.214101
0.235196
0.250491
0.261509
0.269355
0.274839
0.278502
0.280597
0.281338
0.281196
0.00361457
0.00560326
0.0134988
0.0265458
0.0433352
0.0641482
0.0891078
0.118063
0.150599
0.185974
0.218426
0.243129
0.261162
0.274394
0.284107
0.291188
0.296168
0.299196
0.300293
0.300093
-0.0728114
-0.0624986
-0.0444953
-0.0212589
0.00505298
0.0348486
0.0682008
0.104929
0.144618
0.186574
0.224419
0.253172
0.274423
0.290412
0.302624
0.312092
0.319338
0.324273
0.326435
0.326637
-0.153838
-0.131629
-0.103003
-0.0694073
-0.0333888
0.00545422
0.0472376
0.0918887
0.13911
0.188355
0.232608
0.266469
0.291922
0.311572
0.327122
0.33969
0.349881
0.358459
0.362674
0.363049
-0.217621
-0.192846
-0.155776
-0.114006
-0.0694968
-0.0223291
0.0274319
0.0796685
0.134089
0.190184
0.240241
0.27849
0.307311
0.329672
0.347444
0.361832
0.373437
0.382672
0.386663
0.387275
-0.268687
-0.241717
-0.200211
-0.152547
-0.101562
-0.0476326
0.00900106
0.0680184
0.128991
0.19132
0.246484
0.28826
0.319435
0.343334
0.362049
0.376984
0.388959
0.398115
0.402418
0.403035
-0.310002
-0.282355
-0.237415
-0.185419
-0.129508
-0.0702118
-0.00788889
0.0569724
0.123759
0.191632
0.251204
0.295862
0.328782
0.353688
0.372938
0.388085
0.400064
0.409038
0.413513
0.414142
-0.344925
-0.316988
-0.269698
-0.214239
-0.15431
-0.090536
-0.0233819
0.0465583
0.118516
0.191465
0.255129
0.302373
0.336768
0.362442
0.381997
0.397154
0.409012
0.417766
0.422247
0.422886
-0.375503
-0.347495
-0.29841
-0.240166
-0.176878
-0.10927
-0.0378948
0.036591
0.113297
0.190955
0.258397
0.308026
0.343778
0.370141
0.389981
0.405185
0.416962
0.425536
0.429981
0.430634
-0.403238
-0.375167
-0.324596
-0.264061
-0.197946
-0.127036
-0.0519128
0.0266707
0.107711
0.189802
0.26098
0.313064
0.350247
0.37738
0.397575
0.412885
0.424617
0.433092
0.437449
0.438103
-0.428952
-0.400767
-0.349008
-0.286491
-0.217947
-0.144171
-0.0657699
0.0165006
0.101626
0.188068
0.263044
0.317717
0.356476
0.384501
0.405146
0.420635
0.43238
0.440751
0.444996
0.445709
-0.453291
-0.424911
-0.372123
-0.30789
-0.237251
-0.160965
-0.0796182
0.00604847
0.0950131
0.185686
0.264543
0.322024
0.362588
0.391692
0.412927
0.428687
0.440506
0.448812
0.452925
0.453659
-0.476532
-0.447932
-0.394189
-0.328589
-0.256072
-0.177554
-0.0935811
-0.00483977
0.0877051
0.182525
0.265408
0.325969
0.368632
0.399055
0.421057
0.437209
0.449167
0.457451
0.461432
0.462129
-0.499028
-0.470092
-0.415537
-0.348726
-0.274566
-0.194103
-0.107799
-0.0162677
0.0796324
0.178488
0.265525
0.329463
0.374573
0.406621
0.429611
0.446309
0.458514
0.466823
0.470656
0.471272
-0.520802
-0.491556
-0.436433
-0.368393
-0.292809
-0.210655
-0.122287
-0.0282397
0.070753
0.173489
0.264748
0.332366
0.380308
0.414344
0.4386
0.456033
0.468599
0.476982
0.480702
0.481162
-0.541925
-0.512332
-0.456707
-0.387605
-0.310807
-0.227182
-0.137024
-0.0407571
0.0610489
0.167459
0.26294
0.33449
0.385648
0.42209
0.447957
0.466366
0.479438
0.487959
0.491586
0.491855
-0.562468
-0.532553
-0.47637
-0.406379
-0.328557
-0.243671
-0.151975
-0.0537774
0.0505408
0.160353
0.259966
0.33561
0.390342
0.429643
0.457554
0.477245
0.491009
0.499721
0.503244
0.503312
-0.582484
-0.55219
-0.495454
-0.424701
-0.346005
-0.260067
-0.167072
-0.0672345
0.0392709
0.152154
0.2557
0.335479
0.394108
0.436775
0.467255
0.488587
0.503203
0.512119
0.515442
0.515335
-0.601803
-0.571155
-0.513906
-0.442527
-0.363095
-0.276288
-0.182236
-0.0810343
0.0273209
0.142907
0.250064
0.333887
0.396613
0.443145
0.476836
0.500349
0.516007
0.525045
0.528044
0.527719
-0.620393
-0.589423
-0.531721
-0.4598
-0.379765
-0.292264
-0.197371
-0.095082
0.0147942
0.132664
0.243032
0.330648
0.397448
0.448199
0.485891
0.51249
0.529553
0.538348
0.540645
0.540078
-0.638309
-0.606937
-0.548876
-0.476482
-0.395953
-0.307914
-0.212382
-0.109265
0.00180478
0.121526
0.234602
0.325643
0.396252
0.451286
0.493743
0.524843
0.544472
0.552551
0.552858
0.551899
-0.655402
-0.623742
-0.565307
-0.492514
-0.411604
-0.323162
-0.227173
-0.123466
-0.0115156
0.109631
0.224856
0.3188
0.392784
0.451675
0.499261
0.536568
0.561501
0.570218
0.565958
0.562902
-0.671772
-0.639803
-0.581038
-0.507916
-0.42675
-0.338054
-0.241801
-0.137744
-0.0252308
0.0969167
0.213707
0.309903
0.386783
0.448629
0.500716
0.545383
0.579407
0.595936
0.589798
0.571456
-0.687365
-0.655109
-0.596187
-0.522856
-0.441655
-0.3529
-0.256653
-0.152569
-0.0398815
0.082722
0.200448
0.298105
0.377401
0.440915
0.494894
0.545439
0.587177
0.60601
0.593315
0.571878
-0.702055
-0.669781
-0.610598
-0.53711
-0.456083
-0.367389
-0.271512
-0.16761
-0.055132
0.0673862
0.185329
0.283331
0.364293
0.428487
0.478021
0.526784
0.562534
0.566802
0.501099
0.458605
-0.71546
-0.68466
-0.623828
-0.550099
-0.469411
-0.381072
-0.286114
-0.182638
-0.0707387
0.0511209
0.168433
0.265627
0.346908
0.412373
0.451433
0.479587
0.499322
0.459101
0.383131
0.334176
-0.761938
-0.697135
-0.635702
-0.563059
-0.482738
-0.395073
-0.300469
-0.197852
-0.0869576
0.0336204
0.14942
0.244846
0.323501
0.393536
0.408923
0.408633
0.381712
0.315473
0.227464
0.179579
-0.724361
-0.70935
-0.652374
-0.582073
-0.501949
-0.415194
-0.322011
-0.22086
-0.111898
0.00601723
0.118012
0.209065
0.279457
0.336959
0.342654
0.218328
0.0993075
0.0163091
-0.069828
-0.0191604
-0.751681
-0.723784
-0.666799
-0.596182
-0.516795
-0.430766
-0.337981
-0.238049
-0.130753
-0.0152452
0.0932003
0.179571
0.24274
0.271081
0.213457
0.0394128
-0.118156
-0.229547
-0.353358
-0.272399
-0.771449
-0.740598
-0.683017
-0.612014
-0.533069
-0.447578
-0.355487
-0.256982
-0.151707
-0.0391765
0.0650239
0.14527
0.198623
0.197543
0.0694287
-0.161713
-0.358529
-0.509363
-0.681384
-0.611226
-0.78997
-0.757819
-0.69949
-0.627975
-0.549259
-0.464319
-0.37326
-0.276325
-0.173238
-0.0640164
0.0353261
0.109051
0.149913
0.109643
-0.0988281
-0.371119
-0.625353
-0.853476
-1.10724
-1.07123
-0.807078
-0.774997
-0.716161
-0.644341
-0.565858
-0.481559
-0.391669
-0.296418
-0.195678
-0.0900697
0.00394915
0.0710792
0.0957319
0.0083284
-0.262749
-0.571777
-0.881604
-1.15528
-1.51484
-1.83292
-0.82381
-0.792161
-0.733239
-0.661382
-0.583159
-0.499511
-0.410793
-0.317257
-0.218972
-0.117131
-0.0286913
0.031362
0.0381666
-0.100263
-0.410787
-0.737803
-1.06607
-1.32832
-1.47337
-1.72917
-0.840739
-0.809485
-0.750945
-0.679246
-0.601429
-0.51857
-0.431168
-0.339574
-0.244135
-0.146603
-0.0643506
-0.0124041
-0.0258216
-0.229178
-0.543422
-0.866718
-1.1554
-1.32593
-1.36383
-1.39797
-0.85812
-0.827282
-0.769138
-0.697861
-0.620613
-0.538738
-0.45293
-0.363643
-0.271464
-0.178835
-0.103402
-0.0604926
-0.104687
-0.35535
-0.660791
-0.969794
-1.21597
-1.29677
-1.32044
-1.32612
-0.87605
-0.845569
-0.787732
-0.717012
-0.640474
-0.559824
-0.475915
-0.389317
-0.300884
-0.213784
-0.145766
-0.113707
-0.190109
-0.474981
-0.763442
-1.06021
-1.3001
-1.33597
-1.31271
-1.30548
-0.894291
-0.864146
-0.806644
-0.736469
-0.660778
-0.58158
-0.49987
-0.416359
-0.332202
-0.251199
-0.191736
-0.173316
-0.284391
-0.591633
-0.848463
-1.10587
-1.33379
-1.31841
-1.28791
-1.27567
-0.912518
-0.882689
-0.825539
-0.755911
-0.681228
-0.603628
-0.524597
-0.444609
-0.365257
-0.290835
-0.241171
-0.235405
-0.390303
-0.711752
-0.908584
-1.02902
-1.15463
-1.21822
-1.23326
-1.23311
-0.929972
-0.900479
-0.843931
-0.774824
-0.701284
-0.6256
-0.549438
-0.47354
-0.399692
-0.331966
-0.293023
-0.297553
-0.523223
-0.863939
-1.01367
-0.901284
-1.00686
-1.19067
-1.27673
-1.29309
-0.946095
-0.91694
-0.860981
-0.792568
-0.720199
-0.646676
-0.573664
-0.502602
-0.434608
-0.373815
-0.345787
-0.364315
-0.681704
-1.13115
-1.40735
-1.24753
-1.30085
-1.44773
-1.54853
-1.57485
-0.960067
-0.931327
-0.875844
-0.808038
-0.737027
-0.665892
-0.596638
-0.530949
-0.46925
-0.415741
-0.396521
-0.436141
-0.848595
-1.51621
-2.2097
-2.39272
-2.2469
-2.12363
-2.07901
-2.08488
-0.970517
-0.942315
-0.887359
-0.820171
-0.75066
-0.682203
-0.617282
-0.557727
-0.503473
-0.456048
-0.441502
-0.502792
-0.97606
-1.81311
-2.83878
-3.51018
-3.43506
-3.12419
-2.8198
-2.7291
-0.975972
-0.948449
-0.894082
-0.827623
-0.759767
-0.694274
-0.63428
-0.582399
-0.538388
-0.496926
-0.477298
-0.564111
-0.995672
-1.77798
-2.73033
-3.49182
-3.63186
-3.46819
-3.15599
-2.9719
-0.974821
-0.948049
-0.894412
-0.828863
-0.762832
-0.70061
-0.646344
-0.604373
-0.575627
-0.546931
-0.52189
-0.587876
-0.875237
-1.37749
-1.88293
-2.31683
-2.48619
-2.44814
-2.27435
-2.13472
-0.965472
-0.939421
-0.886713
-0.822349
-0.75835
-0.699734
-0.652287
-0.623382
-0.619979
-0.627201
-0.608173
-0.596945
-0.65785
-0.725155
-0.734463
-0.712027
-0.627772
-0.51447
-0.381888
-0.29665
-0.946106
-0.92088
-0.869439
-0.806672
-0.74491
-0.690129
-0.650481
-0.639417
-0.678386
-0.778617
-0.838261
-0.699889
-0.459199
-0.11695
0.348579
0.789207
1.12288
1.33378
1.44535
1.49292
-0.915294
-0.891028
-0.841365
-0.780658
-0.721319
-0.670261
-0.638821
-0.650358
-0.757842
-1.044
-1.27293
-0.938815
-0.406108
0.250608
0.969888
1.55367
1.99386
2.22235
2.31415
2.34207
-0.872536
-0.84931
-0.800799
-0.743323
-0.686486
-0.638378
-0.61333
-0.646445
-0.837397
-1.38257
-1.89147
-1.29097
-0.50687
0.328868
1.07634
1.6266
1.99455
2.16914
2.23702
2.25425
-0.816244
-0.794244
-0.749281
-0.694219
-0.63962
-0.592713
-0.568554
-0.607139
-0.823594
-1.47997
-2.06073
-1.3667
-0.516597
0.323444
0.959948
1.37505
1.62235
1.74378
1.80395
1.8127
-0.745867
-0.725745
-0.684606
-0.633374
-0.580694
-0.53278
-0.502093
-0.520977
-0.679689
-1.13196
-1.3929
-0.848193
-0.170035
0.439465
0.853052
1.11026
1.2621
1.35058
1.3926
1.39836
-0.662569
-0.644246
-0.608421
-0.561671
-0.511302
-0.461685
-0.420207
-0.404157
-0.452316
-0.594241
-0.569364
-0.200768
0.214756
0.542569
0.762758
0.906578
1.0013
1.0628
1.0975
1.10831
-0.570418
-0.557305
-0.524436
-0.482226
-0.435226
-0.385339
-0.335382
-0.29072
-0.258031
-0.21978
-0.103144
0.132477
0.35964
0.521967
0.638532
0.721587
0.782473
0.82493
0.848011
0.854442
-0.458166
-0.451329
-0.428118
-0.394393
-0.354807
-0.310043
-0.260503
-0.207119
-0.148495
-0.0700438
0.0515632
0.20839
0.351437
0.455746
0.531896
0.586169
0.62478
0.652127
0.66844
0.671362
-0.35171
-0.348445
-0.332361
-0.307331
-0.276618
-0.239924
-0.196576
-0.145577
-0.0837508
-0.00124003
0.10446
0.216797
0.31406
0.386292
0.438066
0.47389
0.497974
0.512928
0.520077
0.521605
-0.254683
-0.252974
-0.243215
-0.225913
-0.203541
-0.175517
-0.140461
-0.0966229
-0.0405629
0.0340037
0.121553
0.204947
0.273496
0.324146
0.35961
0.383178
0.397928
0.406386
0.410141
0.410404
-0.16721
-0.166869
-0.161653
-0.151398
-0.136984
-0.117404
-0.0910886
-0.0559873
-0.00926674
0.0530614
0.123584
0.186782
0.236782
0.272919
0.297492
0.313141
0.322234
0.326858
0.328563
0.328403
-0.0926229
-0.0931291
-0.091999
-0.0880547
-0.0803902
-0.0680124
-0.0494666
-0.0228772
0.0141192
0.0640457
0.119697
0.167713
0.204567
0.23057
0.247661
0.257958
0.263505
0.266
0.266744
0.266482
-0.0366503
-0.0375121
-0.0387687
-0.0388784
-0.0361372
-0.0292018
-0.0167505
0.00278724
0.0311545
0.0699846
0.112984
0.149288
0.176526
0.195215
0.207145
0.214131
0.217643
0.218973
0.219259
0.218988
0.000955572
0.000107026
-0.001873
-0.00360195
-0.00341695
-0.000117186
0.00773314
0.021568
0.0427811
0.072474
0.105325
0.132609
0.152656
0.166266
0.174766
0.179467
0.181601
0.182233
0.182264
0.182016
0.0242001
0.0235295
0.0217059
0.0198011
0.0192093
0.0208641
0.0258078
0.0353629
0.050877
0.0731852
0.0979986
0.118522
0.133343
0.143108
0.148937
0.15202
0.15326
0.153426
0.153295
0.153083
0.0378306
0.03736
0.0359958
0.0344198
0.033664
0.0345408
0.0379253
0.0447502
0.0560334
0.0725673
0.0910998
0.106312
0.117059
0.12403
0.128139
0.130175
0.130827
0.130734
0.130537
0.130365
0.0455858
0.0452673
0.0443334
0.0431979
0.0425699
0.0430085
0.0452278
0.0500796
0.0583767
0.0706233
0.0843304
0.0955567
0.103452
0.108493
0.111328
0.112626
0.112933
0.112728
0.112523
0.112388
0.0497894
0.0495704
0.0489316
0.0481328
0.0476805
0.0479837
0.0495318
0.0529461
0.0589096
0.0679067
0.0780583
0.0863272
0.0920462
0.0956012
0.0975493
0.0983806
0.0984912
0.0982558
0.0980699
0.0979633
0.0516175
0.0514597
0.0509904
0.0503874
0.0500211
0.0501951
0.0512875
0.0537619
0.0581084
0.0646709
0.0720846
0.0781008
0.082224
0.0847604
0.0861012
0.08662
0.0866223
0.0863929
0.0862323
0.0861479
0.0516726
0.0515567
0.0512005
0.0507302
0.0504281
0.0505119
0.0512533
0.0529995
0.056137
0.0609215
0.0663391
0.0707185
0.0736878
0.0754733
0.0763823
0.0766979
0.0766442
0.0764367
0.0763022
0.0762355
0.0503807
0.0502951
0.0500242
0.0496569
0.0494084
0.0494397
0.0499505
0.0511945
0.0534451
0.0569085
0.0608346
0.0639915
0.06611
0.0673598
0.0679715
0.0681515
0.0680678
0.0678839
0.0677722
0.0677199
0.0480861
0.048022
0.0478169
0.0475315
0.0473279
0.0473243
0.0476667
0.0485418
0.0501558
0.0526535
0.0554849
0.057751
0.0592561
0.0601247
0.0605282
0.0606207
0.0605262
0.0603684
0.0602772
0.0602361
0.0450648
0.0450161
0.0448627
0.044645
0.0444829
0.0444631
0.0446915
0.0453035
0.0464518
0.0482406
0.0502725
0.0518895
0.0529496
0.0535465
0.0538072
0.0538447
0.0537502
0.0536167
0.0535422
0.0535099
0.0415274
0.0414897
0.0413743
0.0412091
0.0410815
0.0410543
0.0412041
0.0416298
0.042442
0.0437163
0.0451644
0.0463093
0.0470488
0.047453
0.0476158
0.0476204
0.0475334
0.0474235
0.0473631
0.0473374
0.0376249
0.0375953
0.0375075
0.0373818
0.0372813
0.0372511
0.0373465
0.0376396
0.0382094
0.0391112
0.040137
0.0409399
0.04145
0.0417204
0.0418177
0.0418033
0.0417253
0.0416347
0.0415855
0.0415652
0.0334641
0.0334406
0.033373
0.0332766
0.0331968
0.0331662
0.033224
0.0334215
0.0338166
0.0344486
0.0351671
0.0357267
0.0360754
0.0362511
0.0363042
0.0362788
0.0362104
0.0361366
0.0360971
0.0360812
0.0291187
0.0291002
0.0290474
0.028972
0.0289072
0.0288764
0.0289078
0.0290383
0.0293094
0.0297478
0.0302472
0.0306313
0.0308649
0.0309756
0.0309998
0.0309695
0.0309099
0.030849
0.030817
0.0308047
0.0246399
0.0246253
0.0245838
0.0245243
0.0244711
0.0244413
0.0244552
0.0245384
0.0247203
0.0250199
0.0253599
0.0256189
0.0257715
0.0258381
0.0258448
0.025814
0.0257635
0.0257139
0.0256882
0.0256786
0.0200644
0.020053
0.0200203
0.0199731
0.0199297
0.0199022
0.0199045
0.0199552
0.0200737
0.0202731
0.0205007
0.0206717
0.0207685
0.0208054
0.0208008
0.0207706
0.0207282
0.0206885
0.0206681
0.0206606
0.0154184
0.0154097
0.0153844
0.0153472
0.0153121
0.0152875
0.015283
0.015311
0.0153849
0.0155136
0.0156612
0.0157702
0.0158293
0.0158471
0.0158362
0.0158084
0.0157728
0.0157409
0.0157249
0.0157193
0.0107199
0.0107136
0.0106942
0.0106656
0.0106384
0.0106185
0.0106118
0.0106256
0.0106685
0.0107457
0.0108342
0.0108984
0.0109305
0.0109368
0.0109256
0.0109032
0.0108752
0.0108502
0.0108383
0.0108345
0.00598103
0.00597685
0.00596369
0.00594481
0.00592728
0.00591435
0.0059088
0.00591451
0.00593598
0.00597429
0.00601856
0.00604903
0.0060626
0.00606359
0.00605526
0.00604028
0.00602149
0.00600403
0.00599562
0.00599316
0.00121048
0.00121029
0.00120952
0.00120386
0.00119761
0.00119254
0.00118903
0.00118764
0.00118848
0.00119187
0.00119765
0.00120302
0.00120623
0.00120678
0.00120479
0.00120049
0.00119491
0.00118871
0.0011853
0.00118545
-0.82277
-0.554843
-0.272666
-0.0517866
0.127957
0.273703
0.398234
0.503211
0.549554
0.533869
-0.36104
-0.190698
-0.0182749
0.129055
0.254006
0.35936
0.445316
0.506805
0.539836
0.551513
-0.0611714
0.049811
0.163554
0.265109
0.352772
0.426451
0.485034
0.528162
0.558346
0.575128
0.144174
0.219798
0.29939
0.371547
0.43428
0.487344
0.53063
0.564857
0.591188
0.60875
0.297724
0.35155
0.408707
0.461959
0.509088
0.549832
0.584273
0.612639
0.634863
0.652344
0.41974
0.458881
0.504251
0.545876
0.583815
0.617506
0.646629
0.670891
0.689519
0.706882
0.522768
0.555365
0.594047
0.630122
0.663406
0.693424
0.719503
0.740984
0.756669
0.774043
0.618055
0.649784
0.686565
0.721158
0.752867
0.781246
0.805591
0.825084
0.838474
0.855951
0.717514
0.752512
0.790615
0.825827
0.857171
0.884417
0.907226
0.924989
0.936939
0.954796
0.834918
0.874373
0.913562
0.948654
0.978709
1.00407
1.02493
1.04108
1.05275
1.07116
0.981122
1.02111
1.05726
1.0882
1.11426
1.13675
1.15612
1.17193
1.1848
1.20299
1.15679
1.18915
1.21529
1.23796
1.2583
1.27729
1.29512
1.31184
1.32773
1.34598
1.34495
1.36266
1.3784
1.39521
1.41153
1.4262
1.43937
1.45344
1.47061
1.49033
1.52684
1.5379
1.55015
1.56101
1.57033
1.58001
1.59104
1.60271
1.61271
1.62791
1.73812
1.74017
1.72503
1.70982
1.70357
1.70932
1.72794
1.75841
1.79058
1.82134
2.04402
1.90698
1.83081
1.78887
1.77141
1.77546
1.80288
1.85901
1.96248
2.17778
0.333789
0.330436
0.32457
0.314856
0.302036
0.289759
0.2796
0.27181
0.266274
0.263016
0.262502
0.264913
0.269669
0.276567
0.285697
0.29713
0.310051
0.321884
0.329235
0.333897
0.251613
0.257523
0.264558
0.269937
0.272949
0.272818
0.270153
0.266447
0.263006
0.260694
0.260353
0.262264
0.26558
0.269529
0.273079
0.274739
0.273364
0.269053
0.262974
0.255824
0.243643
0.245999
0.249543
0.252729
0.255225
0.257299
0.258502
0.258433
0.257514
0.256593
0.256558
0.257664
0.259077
0.259942
0.259572
0.25799
0.255798
0.253091
0.24963
0.246537
0.238304
0.239364
0.241475
0.244252
0.24658
0.248237
0.249508
0.250536
0.251181
0.25153
0.25184
0.252114
0.252111
0.251594
0.250681
0.249421
0.247559
0.245003
0.242469
0.240931
0.233179
0.233746
0.235242
0.237695
0.240216
0.242458
0.24418
0.245391
0.246274
0.246925
0.247369
0.247541
0.247321
0.24669
0.245511
0.243705
0.241421
0.238971
0.236944
0.236024
0.229438
0.229676
0.230765
0.232773
0.234875
0.236883
0.238809
0.240486
0.241779
0.242696
0.243268
0.24338
0.242949
0.241945
0.240469
0.238736
0.236841
0.23484
0.233236
0.232713
0.227705
0.227818
0.228454
0.229712
0.231136
0.232543
0.233897
0.235238
0.236525
0.237636
0.238356
0.238479
0.238096
0.237374
0.236463
0.235379
0.234144
0.232898
0.231959
0.231679
0.226123
0.226185
0.226533
0.227249
0.22813
0.229337
0.230623
0.231967
0.233256
0.234418
0.235268
0.235573
0.23536
0.234784
0.233975
0.233023
0.232325
0.231659
0.231189
0.231041
0.223788
0.223824
0.224032
0.224484
0.225102
0.225797
0.226687
0.22777
0.22898
0.230191
0.2312
0.231719
0.231782
0.231576
0.231268
0.230959
0.230591
0.230243
0.230005
0.229928
0.220784
0.220798
0.220944
0.221326
0.22187
0.222542
0.223376
0.224405
0.225589
0.226884
0.228099
0.228919
0.229287
0.229334
0.229246
0.229131
0.228896
0.228642
0.228491
0.228455
0.217451
0.217452
0.217559
0.217871
0.21836
0.218979
0.219774
0.220775
0.222014
0.223474
0.224958
0.2261
0.226788
0.227167
0.227317
0.227314
0.227256
0.227135
0.227072
0.227063
0.213818
0.21382
0.213906
0.21417
0.214609
0.215209
0.216015
0.217079
0.218448
0.220131
0.221978
0.223523
0.224569
0.225228
0.225619
0.225816
0.225884
0.225886
0.225892
0.225896
0.209783
0.209779
0.209868
0.210113
0.210534
0.211152
0.212024
0.213221
0.214814
0.216843
0.219148
0.22116
0.222599
0.223564
0.224187
0.224569
0.224784
0.224899
0.224961
0.224975
0.205246
0.205239
0.205339
0.205595
0.206044
0.206725
0.207719
0.209122
0.211034
0.213521
0.21641
0.219006
0.22087
0.222204
0.22309
0.223662
0.224018
0.224229
0.224337
0.224359
0.200106
0.200096
0.20021
0.200511
0.201029
0.201829
0.203016
0.204717
0.207065
0.210155
0.213787
0.217078
0.219535
0.221238
0.222407
0.223179
0.223675
0.223976
0.224126
0.224157
0.194227
0.194214
0.194354
0.194717
0.195351
0.19633
0.197791
0.1999
0.202828
0.2067
0.211272
0.215441
0.218535
0.220726
0.222228
0.223229
0.223876
0.224272
0.224468
0.224508
0.187423
0.187406
0.187587
0.18805
0.188843
0.190064
0.191897
0.194556
0.198244
0.20312
0.208874
0.21412
0.218014
0.220776
0.222675
0.223944
0.224769
0.225275
0.225525
0.225574
0.179448
0.179427
0.179662
0.180256
0.181263
0.182823
0.185171
0.188552
0.193222
0.19938
0.206618
0.213196
0.218067
0.221523
0.223899
0.22549
0.226529
0.227169
0.227483
0.227544
0.169966
0.169941
0.170252
0.171025
0.172331
0.174353
0.177379
0.181705
0.187659
0.195454
0.204547
0.212763
0.218827
0.223126
0.22608
0.228062
0.22936
0.230165
0.230559
0.230634
0.158502
0.158471
0.158893
0.159921
0.161639
0.164288
0.168218
0.173817
0.181452
0.19133
0.202728
0.212945
0.220458
0.225777
0.229434
0.231888
0.233499
0.234504
0.234995
0.235089
0.144377
0.14434
0.14493
0.14633
0.148636
0.152164
0.157367
0.164682
0.174498
0.187013
0.201249
0.213885
0.223139
0.229691
0.234203
0.237235
0.239227
0.240472
0.241081
0.241199
0.126614
0.126577
0.127438
0.129391
0.132563
0.13738
0.144364
0.154
0.16669
0.182536
0.200224
0.215742
0.227065
0.235099
0.240658
0.24441
0.246885
0.248442
0.249221
0.249365
0.103745
0.103737
0.105047
0.107862
0.112373
0.119121
0.128683
0.141549
0.158013
0.177999
0.199803
0.218682
0.232423
0.24222
0.24906
0.253729
0.256837
0.258804
0.259788
0.259973
0.0733339
0.0734185
0.0755478
0.0798941
0.0866841
0.0965363
0.109964
0.127298
0.148614
0.173617
0.200189
0.222877
0.239367
0.251221
0.259625
0.265471
0.269439
0.271989
0.273261
0.273496
0.0309046
0.0312799
0.0352916
0.0428566
0.0539098
0.0689406
0.0881209
0.11148
0.138844
0.169717
0.201612
0.228455
0.247964
0.262152
0.272429
0.279792
0.28496
0.288409
0.290148
0.290445
-0.0316547
-0.0296826
-0.0202495
-0.00576288
0.0132266
0.0364844
0.0636966
0.0947179
0.129231
0.16665
0.204228
0.235413
0.258093
0.274806
0.287222
0.296472
0.303294
0.308056
0.31063
0.31098
-0.106736
-0.103141
-0.0854789
-0.0598292
-0.0302997
0.00241092
0.038366
0.0775506
0.119721
0.164393
0.208638
0.245331
0.27237
0.29279
0.30851
0.320777
0.330492
0.337573
0.340567
0.341841
-0.18336
-0.173495
-0.14737
-0.11155
-0.0724831
-0.0306163
0.0139426
0.0611748
0.110938
0.162844
0.213781
0.255963
0.287235
0.311166
0.329962
0.345013
0.357164
0.366498
0.371759
0.373886
-0.241213
-0.230246
-0.199095
-0.156863
-0.110444
-0.0610286
-0.00893755
0.0456726
0.102519
0.161155
0.218183
0.265117
0.299749
0.32613
0.346712
0.363023
0.376033
0.386013
0.391983
0.394268
-0.287714
-0.276313
-0.241837
-0.194977
-0.14319
-0.0879408
-0.029692
0.0312017
0.0942939
0.158992
0.221424
0.272296
0.30942
0.337339
0.358826
0.375653
0.388933
0.399078
0.405125
0.407384
-0.325948
-0.314623
-0.278105
-0.227652
-0.171684
-0.11181
-0.0484989
0.0177597
0.0863356
0.156425
0.223694
0.278066
0.317296
0.346421
0.368539
0.385619
0.398912
0.408996
0.415008
0.417197
-0.358881
-0.347676
-0.309771
-0.256579
-0.197145
-0.133338
-0.0657032
0.00519856
0.0786595
0.153717
0.225514
0.283085
0.324175
0.354299
0.376874
0.394089
0.407345
0.417346
0.423386
0.425457
-0.388185
-0.377103
-0.338152
-0.282744
-0.220484
-0.153362
-0.081949
-0.0068779
0.0710412
0.150664
0.226682
0.287337
0.330266
0.361407
0.38448
0.40189
0.415174
0.425101
0.431155
0.433134
-0.415059
-0.404051
-0.364292
-0.306985
-0.242327
-0.172354
-0.0976429
-0.0188782
0.0630729
0.147017
0.227233
0.291067
0.33595
0.368211
0.391871
0.409538
0.422904
0.432816
0.438867
0.440745
-0.4402
-0.429231
-0.388728
-0.329811
-0.263108
-0.190673
-0.113085
-0.030997
0.0547169
0.142812
0.227206
0.294347
0.341371
0.374929
0.39931
0.417332
0.430834
0.440738
0.446814
0.448575
-0.464071
-0.45309
-0.411946
-0.351661
-0.283186
-0.208572
-0.128408
-0.043312
0.0458697
0.137905
0.226484
0.297149
0.346581
0.381682
0.406971
0.425479
0.4392
0.449171
0.455186
0.456887
-0.487028
-0.475991
-0.434232
-0.372781
-0.302744
-0.226208
-0.143769
-0.055985
0.0363838
0.132194
0.224969
0.2994
0.351561
0.388501
0.414935
0.434091
0.448133
0.458207
0.464181
0.465846
-0.509272
-0.498092
-0.455707
-0.393353
-0.321894
-0.243708
-0.159271
-0.0690709
0.026224
0.125615
0.222566
0.300971
0.356212
0.395339
0.423209
0.443229
0.45774
0.468008
0.473929
0.475567
-0.530811
-0.519479
-0.476614
-0.413392
-0.340692
-0.261073
-0.174892
-0.0825602
0.0153709
0.118095
0.219151
0.3017
0.360369
0.402082
0.43174
0.45289
0.468047
0.478603
0.484509
0.486082
-0.551777
-0.540235
-0.496983
-0.432875
-0.359149
-0.278298
-0.190616
-0.0964319
0.00384053
0.109627
0.214617
0.301399
0.363818
0.408581
0.440446
0.463026
0.479018
0.489968
0.495895
0.497346
-0.572106
-0.560374
-0.516729
-0.451849
-0.377247
-0.295351
-0.206392
-0.110628
-0.0083156
0.100213
0.208897
0.299892
0.366299
0.414566
0.449133
0.473542
0.490608
0.502049
0.508005
0.509272
-0.59184
-0.579885
-0.535815
-0.470287
-0.394943
-0.31217
-0.222151
-0.125064
-0.0210232
0.0898991
0.201952
0.29702
0.367506
0.419628
0.457483
0.484276
0.50274
0.514726
0.520624
0.521661
-0.610808
-0.598726
-0.554208
-0.488144
-0.41217
-0.328674
-0.237811
-0.139653
-0.0341893
0.0787637
0.193776
0.292638
0.367155
0.423356
0.465131
0.495092
0.515451
0.52796
0.533518
0.534203
-0.629124
-0.616842
-0.571911
-0.505392
-0.42889
-0.344817
-0.253281
-0.1543
-0.0477058
0.0669144
0.184427
0.286665
0.365004
0.425322
0.471515
0.505682
0.528951
0.542047
0.546506
0.546439
-0.646656
-0.634163
-0.58891
-0.521977
-0.44503
-0.360516
-0.268477
-0.168881
-0.0614476
0.054451
0.174
0.279092
0.360861
0.425017
0.475789
0.515294
0.543405
0.558281
0.56029
0.557763
-0.663448
-0.650802
-0.605148
-0.53785
-0.460551
-0.375711
-0.28332
-0.183312
-0.0752931
0.0415373
0.162625
0.269937
0.354639
0.422017
0.476837
0.522298
0.557803
0.578548
0.579913
0.568028
-0.679444
-0.666685
-0.620717
-0.553147
-0.475642
-0.390666
-0.29813
-0.197995
-0.089705
0.0276392
0.149711
0.258552
0.34562
0.415585
0.473031
0.523836
0.56829
0.599114
0.604391
0.598496
-0.69462
-0.681721
-0.635649
-0.567812
-0.490287
-0.405377
-0.312872
-0.212927
-0.104694
0.0126935