/*--------------------------------*- C++ -*----------------------------------*\
  =========                 |
  \\      /  F ield         | OpenFOAM: The Open Source CFD Toolbox
   \\    /   O peration     | Website:  https://openfoam.org
    \\  /    A nd           | Version:  9
     \\/     M anipulation  |
\*---------------------------------------------------------------------------*/
FoamFile
{
    format      ascii;
    class       surfaceScalarField;
    location    "12";
    object      phi;
}
// * * * * * * * * * * * * * * * * * * * * * * * * * * * * * * * * * * * * * //

dimensions      [0 3 -1 0 0 0 0];

internalField   nonuniform List<scalar> 
17370
(
-0.0910806
0.0935176
0.286574
-0.0749113
0.0568898
0.364797
-0.0408461
0.0298304
0.427184
-0.0210419
0.0154206
0.504873
-0.0111656
0.0084788
0.602089
-0.00637789
0.00496282
0.720473
-0.00378545
0.00294321
0.863749
-0.00219478
0.00163489
1.03601
-0.00112209
0.000722133
1.2429
-0.000330992
-5.2488e-05
1.49157
0.000421417
-0.000816248
1.49159
0.00121465
-0.00172136
1.2432
0.00227375
-0.00301572
1.03638
0.00385313
-0.00502536
0.864079
0.00643595
-0.00853311
0.721155
0.0112143
-0.0154615
0.603462
0.0210774
-0.0298607
0.508223
0.0408718
-0.0569104
0.432207
0.0749272
-0.0935271
0.365375
0.0910882
0.197923
-0.127408
0.0882797
0.0391281
-0.364795
0.353916
-0.0724388
0.0833185
-0.446598
0.454377
-0.0814112
0.0736316
-0.521049
0.529541
-0.0655733
0.0570809
-0.612891
0.62107
-0.0493629
0.0411838
-0.726959
0.733814
-0.0341987
0.0273437
-0.867445
0.872406
-0.0219521
0.0169912
-1.03846
1.04179
-0.013257
0.00992888
-1.24465
1.24696
-0.00743185
0.00512532
-1.49279
1.49467
-0.00326719
0.00138847
-1.49263
1.49428
0.000246668
-0.00190047
-1.24406
1.2459
0.00375727
-0.00559163
-1.03753
1.04
0.00787049
-0.0103394
-0.866095
0.869791
0.0136277
-0.0173244
-0.724441
0.729804
0.0222494
-0.0276126
-0.6089
0.61587
0.0344507
-0.0414205
-0.515071
0.522765
0.0495742
-0.0572686
-0.439835
0.447872
0.0657353
-0.0737727
-0.375198
0.377079
0.0815286
-0.0834097
-0.257007
0.223658
0.0725002
-0.0391516
-0.0688951
0.0592867
0.0096084
-0.0513645
0.0578585
-0.374719
0.368225
-0.0567712
0.0527959
-0.453793
0.457768
-0.0473658
0.0430082
-0.527701
0.532059
-0.0387893
0.0350275
-0.621145
0.624906
-0.0308678
0.0268718
-0.734878
0.738874
-0.0225157
0.0186687
-0.873975
0.877822
-0.0147594
0.0114667
-1.04323
1.04652
-0.0081589
0.00533496
-1.24838
1.2512
-0.00235486
-0.000471152
-1.49654
1.49937
0.00326867
-0.00621139
-1.49706
1.50001
0.00899711
-0.0122552
-1.24988
1.25314
0.0155004
-0.0193529
-1.04564
1.04949
0.0231419
-0.0274318
-0.877346
0.881636
0.031367
-0.0354716
-0.73945
0.743555
0.0391941
-0.0433678
-0.626413
0.630587
0.0476864
-0.0530815
-0.534928
0.540323
0.0570208
-0.0580643
-0.458051
0.459094
0.0515188
-0.0315515
-0.336838
0.316871
0.00963351
-0.0688225
0.059189
-0.0536625
0.0498209
0.00384157
-0.0316945
0.0417008
-0.359056
0.349049
-0.0451689
0.0444745
-0.459816
0.46051
-0.0414043
0.0380577
-0.536135
0.539481
-0.0343239
0.0310954
-0.62842
0.631649
-0.0277141
0.0247735
-0.742032
0.744973
-0.0216739
0.018822
-0.881089
0.883941
-0.0156047
0.0125758
-1.04971
1.05274
-0.00920808
0.00609584
-1.25424
1.25735
-0.00261536
-0.00069388
-1.50255
1.50586
0.0039923
-0.00742619
-1.50329
1.50673
0.0104701
-0.0137535
-1.25645
1.25974
0.0167047
-0.0198381
-1.05298
1.05611
0.022614
-0.0256324
-0.885039
0.888058
0.0284928
-0.0317872
-0.747
0.750294
0.0349439
-0.0386097
-0.634705
0.638371
0.0418999
-0.0449068
-0.544809
0.547816
0.0455381
-0.0419881
-0.457557
0.454007
0.0318915
-0.0153909
-0.298032
0.281532
0.00387203
-0.0535365
0.0496644
-0.0469794
0.0447691
0.00221028
-0.0204964
0.029853
-0.339155
0.329798
-0.0350417
0.0359655
-0.460219
0.459295
-0.0349791
0.0330896
-0.54193
0.54382
-0.0308358
0.0285409
-0.634412
0.636707
-0.0258129
0.0232329
-0.74777
0.75035
-0.0202902
0.0175782
-0.886751
0.889463
-0.0145523
0.0117534
-1.05566
1.05846
-0.00861289
0.00565966
-1.26042
1.26337
-0.00228946
-0.000944273
-1.50915
1.51239
0.00416089
-0.00747747
-1.51015
1.51346
0.0103488
-0.0133787
-1.26293
1.26596
0.0160625
-0.0189456
-1.05913
1.06202
0.0215249
-0.0243274
-0.891036
0.893838
0.0267883
-0.0294348
-0.753274
0.75592
0.0316524
-0.0338112
-0.641242
0.643401
0.0356244
-0.0365262
-0.549553
0.550455
0.0355197
-0.0302169
-0.449292
0.443989
0.0207385
-0.00897044
-0.267525
0.255757
0.00224718
-0.0467896
0.0445424
-0.04304
0.0417744
0.00126567
-0.0122561
0.0195256
-0.321324
0.314054
-0.0248612
0.0266789
-0.457923
0.456105
-0.026519
0.0253533
-0.545346
0.546512
-0.0237972
0.0222776
-0.638504
0.640024
-0.0205896
0.0189363
-0.752553
0.754206
-0.0169469
0.0149382
-0.891929
0.893938
-0.0125663
0.0102463
-1.06107
1.06339
-0.0075498
0.00491915
-1.26617
1.26881
-0.00181691
-0.00128315
-1.51556
1.51866
0.00434818
-0.00735049
-1.51663
1.51963
0.0098665
-0.0124165
-1.26877
1.27132
0.0145879
-0.016797
-1.06465
1.06686
0.0186556
-0.0204525
-0.89627
0.898067
0.0219497
-0.0235081
-0.758006
0.759564
0.0249094
-0.0263439
-0.645066
0.646501
0.0273979
-0.0274256
-0.5509
0.550928
0.0254722
-0.0199679
-0.438453
0.432949
0.0125426
-0.00511316
-0.246151
0.238722
0.0013117
-0.0427721
0.0414604
-0.0409561
0.0404908
0.000465251
-0.005761
0.0103999
-0.308149
0.303511
-0.0148942
0.0171898
-0.453965
0.45167
-0.0178398
0.0175736
-0.547241
0.547507
-0.0168778
0.0161496
-0.64127
0.641999
-0.0151802
0.0141565
-0.755482
0.756506
-0.0128968
0.0116142
-0.895431
0.896713
-0.0100082
0.00832479
-1.06531
1.067
-0.00618318
0.00394554
-1.27123
1.27347
-0.00118079
-0.00159193
-1.52162
1.52439
0.00431986
-0.00696862
-1.52245
1.5251
0.0090583
-0.0110212
-1.27354
1.2755
0.0125304
-0.0139318
-1.06852
1.06992
0.0150318
-0.0161097
-0.899363
0.900441
0.016942
-0.0176962
-0.7608
0.761554
0.0182434
-0.0187677
-0.647613
0.648137
0.0188894
-0.0180725
-0.550507
0.54969
0.0156071
-0.0109143
-0.427767
0.423075
0.00609915
-0.00222937
-0.233289
0.229419
0.000519141
-0.0405936
0.0400744
-0.0402479
0.0401337
0.000114109
-0.00262785
0.00555529
-0.299865
0.296938
-0.00922901
0.0118176
-0.449254
0.446665
-0.0133617
0.0140055
-0.547339
0.546695
-0.0141588
0.0141348
-0.642249
0.642273
-0.0138175
0.0132225
-0.757266
0.757861
-0.0122685
0.0111192
-0.897944
0.899093
-0.00952688
0.00778472
-1.06866
1.07041
-0.0055805
0.00333712
-1.27564
1.27789
-0.000642144
-0.00202193
-1.52705
1.52971
0.00465148
-0.00723447
-1.52767
1.53025
0.00931301
-0.0112735
-1.27741
1.27937
0.012771
-0.0140977
-1.07129
1.07262
0.0150102
-0.0157164
-0.901327
0.902034
0.0160708
-0.0161102
-0.761799
0.761838
0.0159249
-0.0155542
-0.648143
0.647772
0.0146945
-0.0129199
-0.548435
0.546661
0.0101127
-0.00619304
-0.41883
0.414911
0.00304754
-0.000965642
-0.226627
0.224545
0.000181707
-0.0397695
0.0395878
-0.0400926
0.0400801
1.25067e-05
-0.00138634
0.00344657
-0.294514
0.292454
-0.00668932
0.00968294
-0.443867
0.440873
-0.0122398
0.0138329
-0.545571
0.543978
-0.0146119
0.0148485
-0.642213
0.641976
-0.0147254
0.01423
-0.75837
0.758866
-0.0132721
0.0120111
-0.900229
0.90149
-0.0102378
0.0082752
-1.07224
1.0742
-0.00579815
0.0032848
-1.28025
1.28276
-0.000286485
-0.00267407
-1.53249
1.53545
0.00558665
-0.00840033
-1.53292
1.53573
0.0106641
-0.0128079
-1.2814
1.28354
0.0144297
-0.0158146
-1.0739
1.07529
0.0167177
-0.0173109
-0.902601
0.903194
0.0175185
-0.0173043
-0.761795
0.761581
0.0168439
-0.0157664
-0.647097
0.64602
0.0139085
-0.0110637
-0.544365
0.541521
0.00779427
-0.00424269
-0.411205
0.407654
0.00191043
-0.000565652
-0.222919
0.221574
9.58787e-05
-0.0394726
0.0393767
-0.0400739
0.040078
-4.12129e-06
-0.000769321
0.00220777
-0.290701
0.289263
-0.0049096
0.00794934
-0.437764
0.434724
-0.0111714
0.0135292
-0.541933
0.539575
-0.0151878
0.0157496
-0.641565
0.641004
-0.0157331
0.0153012
-0.759394
0.759826
-0.0142542
0.0128569
-0.90287
0.904267
-0.010901
0.00878476
-1.07628
1.0784
-0.00611534
0.00331732
-1.28544
1.28824
8.83671e-05
-0.00345269
-1.53863
1.54199
0.00672667
-0.00989817
-1.53874
1.54191
0.0123865
-0.0146535
-1.28578
1.28805
0.0163806
-0.0178866
-1.0768
1.0783
0.0188507
-0.0194029
-0.903863
0.904415
0.0194308
-0.0191038
-0.761261
0.760934
0.0180878
-0.0160155
-0.644423
0.642351
0.0132987
-0.00968892
-0.538186
0.534576
0.00629614
-0.00321099
-0.404281
0.401196
0.00143371
-0.000464026
-0.220425
0.219456
0.000101404
-0.0392764
0.039175
-0.0400997
0.0401408
-4.10939e-05
-0.000194192
0.000976136
-0.288157
0.287375
-0.00274781
0.00506912
-0.431963
0.429642
-0.00789422
0.0101937
-0.537119
0.53482
-0.0121016
0.013173
-0.640095
0.639023
-0.0135085
0.0131885
-0.760245
0.760565
-0.0123523
0.0111678
-0.90561
0.906794
-0.00943963
0.00750814
-1.08046
1.08239
-0.00499765
0.00228618
-1.29106
1.29377
0.00107264
-0.0043824
-1.54541
1.54872
0.00756222
-0.0105999
-1.54511
1.54814
0.0129533
-0.0150591
-1.29028
1.29238
0.0165604
-0.0177437
-1.07969
1.08087
0.0184393
-0.0187397
-0.904816
0.905116
0.0185055
-0.0175126
-0.7604
0.759407
0.015876
-0.0133702
-0.639945
0.637439
0.0105726
-0.00723174
-0.53097
0.527629
0.00446102
-0.00220917
-0.398502
0.39625
0.00100357
-0.000351836
-0.218657
0.218005
8.8035e-05
-0.0390799
0.0389918
-0.0402013
0.0402797
-7.83799e-05
0.000226354
3.59168e-05
-0.286868
0.286606
-0.000899669
0.00222764
-0.427826
0.426498
-0.00403493
0.00564674
-0.532829
0.531217
-0.00710121
0.00800214
-0.638018
0.637117
-0.00848534
0.00848125
-0.76068
0.760684
-0.00801247
0.00718546
-0.907789
0.908616
-0.00586095
0.00429599
-1.08414
1.08571
-0.00219901
-4.02895e-05
-1.29627
1.29851
0.00280967
-0.0055278
-1.55178
1.5545
0.00809964
-0.0104629
-1.55089
1.55325
0.0122392
-0.013831
-1.29427
1.29586
0.0148202
-0.0153822
-1.08176
1.08232
0.0154743
-0.0151557
-0.9051
0.904782
0.0144418
-0.0131713
-0.75819
0.75692
0.0116077
-0.00946721
-0.635072
0.632932
0.00726688
-0.00484967
-0.524729
0.522312
0.00298376
-0.00153929
-0.394432
0.392988
0.000759763
-0.000298874
-0.217467
0.217006
8.2747e-05
-0.0389085
0.0388258
-0.0403757
0.0404855
-0.000109864
0.000546418
-0.000606017
-0.286541
0.286601
0.00038157
0.000166536
-0.425595
0.425047
-0.00103526
0.0018795
-0.53
0.529156
-0.00269048
0.00323133
-0.636378
0.635837
-0.00353851
0.0035301
-0.760658
0.760666
-0.00318516
0.00256601
-0.909315
0.909935
-0.0015578
0.00033795
-1.08709
1.08831
0.00130027
-0.00298458
-1.30048
1.30216
0.00501167
-0.00697191
-1.55684
1.5588
0.00877773
-0.0102991
-1.55519
1.55671
0.0113382
-0.0121942
-1.29711
1.29797
0.0126107
-0.0126177
-1.08258
1.08258
0.0122922
-0.0116222
-0.904248
0.903578
0.0107415
-0.00951552
-0.755651
0.754426
0.00818903
-0.00656575
-0.631052
0.629429
0.00502429
-0.00343031
-0.520343
0.518749
0.00223345
-0.00128577
-0.391833
0.390885
0.000717066
-0.000315769
-0.216589
0.216188
9.41056e-05
-0.0387393
0.0386452
-0.0406116
0.0407521
-0.000140456
0.000797441
-0.00110032
-0.28678
0.287083
0.00125501
-0.00121947
-0.424786
0.42475
0.00100807
-0.000764174
-0.528634
0.52839
0.000532375
-0.000413484
-0.635509
0.635391
0.000433015
-0.000622762
-0.760751
0.760941
0.00104172
-0.00162396
-0.910517
0.911099
0.00248601
-0.00347531
-1.0894
1.09039
0.00475032
-0.00600423
-1.30361
1.30486
0.00744689
-0.00877579
-1.56042
1.56174
0.00991704
-0.0107917
-1.55789
1.55876
0.0112516
-0.0113585
-1.2984
1.29851
0.0112058
-0.0108136
-1.08238
1.08199
0.010248
-0.00942568
-0.902821
0.901999
0.00852757
-0.00742407
-0.753262
0.752158
0.00634107
-0.00511698
-0.62803
0.626805
0.0040202
-0.00291592
-0.517442
0.516338
0.00206645
-0.00133006
-0.390073
0.389336
0.000812723
-0.000382859
-0.215781
0.215351
0.00011889
-0.0385402
0.0384213
-0.0409116
0.0410882
-0.000176657
0.00105298
-0.00153125
-0.287475
0.287953
0.00197583
-0.00227116
-0.424886
0.425181
0.00249419
-0.00267132
-0.528375
0.528552
0.0028857
-0.00313608
-0.635467
0.635717
0.00349629
-0.00392719
-0.76125
0.761681
0.0045263
-0.00519453
-0.911712
0.91238
0.00606149
-0.00696605
-1.09131
1.09222
0.00805082
-0.00905575
-1.30597
1.30697
0.0101256
-0.0110082
-1.56283
1.56371
0.0116432
-0.0119611
-1.55934
1.55966
0.0119127
-0.0116091
-1.29841
1.29811
0.0110939
-0.0104053
-1.08143
1.08074
0.00965223
-0.00872171
-0.901119
0.900189
0.00780776
-0.0067699
-0.751099
0.750061
0.00581513
-0.00478915
-0.625706
0.62468
0.0038967
-0.00299461
-0.515366
0.514464
0.00226061
-0.00155439
-0.388632
0.387926
0.000993596
-0.000482356
-0.214886
0.214375
0.00015266
-0.038287
0.0381343
-0.0412908
0.0415145
-0.000223746
0.00135858
-0.00201548
-0.288518
0.289174
0.0026929
-0.00324535
-0.425599
0.426152
0.00379205
-0.00428176
-0.528893
0.529382
0.00484459
-0.00540524
-0.636136
0.636697
0.00608408
-0.00677562
-0.762247
0.762939
0.00761615
-0.00845759
-0.913125
0.913966
0.00945021
-0.0104009
-1.09313
1.09408
0.0114531
-0.0123604
-1.30791
1.30882
0.0132287
-0.0138217
-1.56443
1.56502
0.0141003
-0.0140258
-1.55977
1.55969
0.0136501
-0.0129379
-1.29758
1.29686
0.0121489
-0.0112036
-1.07992
1.07898
0.0102737
-0.00920854
-0.899195
0.89813
0.0082209
-0.00714832
-0.749019
0.747947
0.00619535
-0.00519581
-0.62369
0.622691
0.00433344
-0.00344713
-0.513593
0.512706
0.00268873
-0.00190575
-0.387194
0.386411
0.00124179
-0.000610423
-0.213809
0.213178
0.000194858
-0.0379631
0.0377682
-0.0417711
0.0420569
-0.000285848
0.0017443
-0.00260754
-0.289925
0.290788
0.00353166
-0.00432572
-0.426807
0.427601
0.00514709
-0.00590058
-0.530018
0.530772
0.00676477
-0.00760877
-0.637428
0.638272
0.00860162
-0.00957636
-0.763782
0.764757
0.0107123
-0.0117993
-0.91491
0.915997
0.0130184
-0.0141225
-1.09507
1.09618
0.0152699
-0.0161927
-1.30971
1.31063
0.0169797
-0.0173895
-1.56551
1.56592
0.0173983
-0.0169886
-1.55944
1.55903
0.0163093
-0.0153002
-1.296
1.29499
0.0142515
-0.0130354
-1.07789
1.07668
0.0118896
-0.0106263
-0.896966
0.895702
0.00948963
-0.00828183
-0.746815
0.745608
0.00722474
-0.00612477
-0.621664
0.620564
0.00517431
-0.00418309
-0.511794
0.510802
0.00330976
-0.00237597
-0.385565
0.384632
0.00156083
-0.000771546
-0.212476
0.211686
0.000247549
-0.0375525
0.037305
-0.0423838
0.042753
-0.000369173
0.00224743
-0.00336457
-0.291763
0.29288
0.00457119
-0.00561752
-0.42851
0.429557
0.00671472
-0.0077244
-0.531706
0.532716
0.00888592
-0.0100287
-0.639326
0.640469
0.0113738
-0.0126848
-0.765903
0.767214
0.0141878
-0.015592
-0.917195
0.918599
0.0171245
-0.0184715
-1.09734
1.09869
0.0198154
-0.0208392
-1.31156
1.31258
0.0216278
-0.0219192
-1.56625
1.56654
0.0217042
-0.0209827
-1.55846
1.55774
0.0199977
-0.0186662
-1.29382
1.29248
0.0173256
-0.0157936
-1.0753
1.07376
0.0143795
-0.0128492
-0.894291
0.892761
0.0114915
-0.0100622
-0.744288
0.742859
0.00881635
-0.00751901
-0.619396
0.618099
0.00639123
-0.00520171
-0.509758
0.508568
0.00413844
-0.00298502
-0.383611
0.382458
0.00196795
-0.00097601
-0.210811
0.209819
0.000314797
-0.0370371
0.0367223
-0.0431742
0.0436535
-0.000479362
0.00290351
-0.00434012
-0.294144
0.295581
0.00588603
-0.00722025
-0.430777
0.432111
0.00861449
-0.00990406
-0.534006
0.535296
0.0114079
-0.0129159
-0.641877
0.643385
0.0147136
-0.0164644
-0.768686
0.770436
0.0184496
-0.0202624
-0.920107
0.921919
0.0221806
-0.0238268
-1.1001
1.10174
0.0254401
-0.0266255
-1.31362
1.3148
0.0274668
-0.027668
-1.56674
1.56695
0.0272345
-0.0261833
-1.55683
1.55578
0.024855
-0.0231351
-1.29095
1.28923
0.0214342
-0.0195119
-1.07201
1.07009
0.0177588
-0.015882
-0.891016
0.889139
0.0142308
-0.0125014
-0.741252
0.739522
0.0109945
-0.00941849
-0.6167
0.615124
0.00803559
-0.00655905
-0.507324
0.505847
0.00522647
-0.00377237
-0.38121
0.379755
0.00249008
-0.00123766
-0.208731
0.207479
0.000401579
-0.0363945
0.0359929
-0.0442045
0.0448298
-0.00062536
0.00376333
-0.00561279
-0.297227
0.299076
0.00759202
-0.00928723
-0.433734
0.435429
0.0110453
-0.0126801
-0.537029
0.538664
0.0146056
-0.0165603
-0.645212
0.647167
0.0189191
-0.0211986
-0.772281
0.77456
0.0237546
-0.0260749
-0.923788
0.926109
0.0285215
-0.0305855
-1.10347
1.10554
0.0325492
-0.03394
-1.31599
1.31738
0.0348521
-0.0349519
-1.56704
1.56714
0.0342628
-0.0328194
-1.55451
1.55307
0.0310751
-0.0288704
-1.28726
1.28505
0.0267167
-0.0243038
-1.06788
1.06547
0.0221212
-0.0198031
-0.886956
0.884638
0.0177781
-0.0156686
-0.73752
0.735411
0.013833
-0.0119054
-0.613398
0.61147
0.0101962
-0.00834371
-0.504337
0.502485
0.00665182
-0.00479409
-0.37823
0.376372
0.00315839
-0.00156911
-0.206135
0.204545
0.000510927
-0.0355964
0.0350855
-0.0455605
0.0463923
-0.000831768
0.00494661
-0.00736063
-0.301227
0.303641
0.00992769
-0.0121058
-0.437557
0.439735
0.014345
-0.016442
-0.540948
0.543045
0.0189396
-0.0214826
-0.649515
0.652058
0.0245301
-0.0274614
-0.776884
0.779816
0.0307292
-0.0336648
-0.928434
0.93137
0.0367229
-0.0392576
-1.10762
1.11015
0.0416083
-0.0432142
-1.31875
1.32035
0.0441775
-0.0441246
-1.5671
1.56704
0.0431015
-0.041163
-1.55135
1.54942
0.0388973
-0.0360827
-1.28252
1.27971
0.0333592
-0.0303273
-1.0627
1.05966
0.0275991
-0.0247179
-0.881903
0.879021
0.0222171
-0.0196303
-0.732891
0.730305
0.0173896
-0.0150384
-0.609301
0.60695
0.0129377
-0.0106293
-0.500623
0.498315
0.00848933
-0.0061029
-0.374515
0.372129
0.00399586
-0.00196675
-0.202896
0.200867
0.000636842
-0.0346051
0.0339683
-0.0473632
0.0485115
-0.0011483
0.0066963
-0.00991297
-0.306441
0.309658
0.0132715
-0.0160709
-0.44252
0.44532
0.0189182
-0.021613
-0.546029
0.548723
0.0248632
-0.0281817
-0.655033
0.658351
0.0321211
-0.0358569
-0.782753
0.786488
0.0399589
-0.0435842
-0.934268
0.937893
0.0473069
-0.0503424
-1.11268
1.11572
0.0530977
-0.0549044
-1.32191
1.32371
0.0558632
-0.0555668
-1.56679
1.56649
0.0540928
-0.0515202
-1.54713
1.54456
0.0486008
-0.0450287
-1.2765
1.27293
0.0415995
-0.0377987
-1.05619
1.05239
0.034387
-0.0307922
-0.875613
0.872018
0.0276824
-0.0244832
-0.727144
0.723945
0.0217273
-0.0188469
-0.604205
0.601325
0.0162634
-0.013394
-0.495985
0.493116
0.0106923
-0.00767942
-0.369859
0.366846
0.00504132
-0.00247815
-0.198847
0.196284
0.000798622
-0.0333756
0.0325769
-0.0498034
0.0514564
-0.00165295
0.00940779
-0.01378
-0.313313
0.317685
0.0181968
-0.0218056
-0.449014
0.452623
0.0254563
-0.0289614
-0.552642
0.556147
0.0332182
-0.0375219
-0.662144
0.666447
0.0425372
-0.0471962
-0.790217
0.794876
0.0522295
-0.0566207
-0.941509
0.9459
0.0610609
-0.0646037
-1.11873
1.12227
0.0677136
-0.0696279
-1.32538
1.32729
0.0704368
-0.0697356
-1.56588
1.56518
0.06764
-0.0642561
-1.54154
1.53816
0.0605307
-0.0560405
-1.26889
1.2644
0.0517628
-0.0470376
-1.04808
1.04335
0.0427995
-0.0383313
-0.867806
0.863338
0.0344653
-0.0304961
-0.720019
0.71605
0.0270904
-0.0235499
-0.59787
0.59433
0.0203779
-0.0168446
-0.490172
0.486638
0.0134839
-0.00967672
-0.364011
0.360203
0.00633096
-0.00310861
-0.19378
0.190557
0.000995804
-0.0318534
0.0308576
-0.0532148
0.0556883
-0.00247352
0.0136739
-0.0196895
-0.322534
0.328549
0.0254971
-0.0301686
-0.457592
0.462263
0.0349259
-0.0395551
-0.561286
0.565915
0.0451686
-0.0507307
-0.671291
0.676853
0.0570596
-0.0628048
-0.799603
0.805349
0.0688831
-0.0740663
-0.950306
0.955489
0.0791645
-0.0830887
-1.12571
1.12963
0.0863495
-0.0881475
-1.32894
1.33074
0.0885325
-0.0871636
-1.56402
1.56265
0.0841999
-0.0797785
-1.53419
1.52977
0.0750714
-0.0694933
-1.25933
1.25375
0.0642269
-0.0584331
-1.03803
1.03224
0.0532402
-0.0477562
-0.858167
0.852683
0.0430014
-0.038113
-0.711212
0.706323
0.0339199
-0.0295726
-0.590009
0.585662
0.0256805
-0.0213301
-0.482893
0.478542
0.0171485
-0.0123581
-0.356626
0.351836
0.00806532
-0.00391777
-0.187461
0.183313
0.00124002
-0.0299694
0.0287294
-0.0582015
0.0621554
-0.00395384
0.0207932
-0.0292155
-0.335264
0.343687
0.0369235
-0.0430162
-0.469115
0.475207
0.0492756
-0.0554422
-0.572634
0.5788
0.0628119
-0.0698772
-0.682983
0.690048
0.0776487
-0.0844889
-0.81114
0.81798
0.0915101
-0.0973008
-0.960586
0.966377
0.102774
-0.106773
-1.1333
1.1373
0.109814
-0.11114
-1.3321
1.33342
0.110708
-0.108319
-1.56062
1.55824
0.104178
-0.0984528
-1.52461
1.51888
0.0925717
-0.0857362
-1.24749
1.24066
0.079353
-0.072368
-1.02576
1.01878
0.0661194
-0.059513
-0.846403
0.839796
0.0537697
-0.0478421
-0.700409
0.694482
0.0427467
-0.0374664
-0.580285
0.575004
0.0327264
-0.0273567
-0.473776
0.468406
0.0221043
-0.0159742
-0.347296
0.341166
0.0104182
-0.00503449
-0.179454
0.17407
0.00157356
-0.027632
0.0260585
-0.06591
0.0731709
-0.00726096
0.0346654
-0.0469704
-0.353698
0.366003
0.0573257
-0.0650129
-0.484771
0.492458
0.0730316
-0.0809923
-0.587415
0.595375
0.0901987
-0.0985897
-0.697511
0.705902
0.107414
-0.114869
-0.824664
0.832119
0.122226
-0.128023
-0.971816
0.977613
0.133205
-0.136662
-1.14073
1.14419
0.138855
-0.139151
-1.334
1.3343
0.137366
-0.133511
-1.55494
1.55109
0.12784
-0.120543
-1.51227
1.50497
0.113306
-0.105082
-1.23305
1.22483
0.0974929
-0.0892533
-1.01106
1.00282
0.0819065
-0.074145
-0.832326
0.824565
0.0673813
-0.060374
-0.687386
0.680379
0.0543307
-0.0480609
-0.568373
0.562103
0.042418
-0.0359071
-0.462329
0.455818
0.0292625
-0.0212783
-0.335265
0.327281
0.0138268
-0.0065244
-0.169153
0.161851
0.00193605
-0.0247122
0.0227762
-0.080185
0.0834282
-0.00324322
0.0235191
-0.0339533
-0.381302
0.391736
0.0434414
-0.0512366
-0.505536
0.513332
0.060326
-0.0700315
-0.605362
0.615067
0.0807646
-0.0903487
-0.713983
0.723567
0.101017
-0.110449
-0.838885
0.848317
0.120246
-0.128643
-0.982552
0.990949
0.136978
-0.143638
-1.14663
1.15329
0.149548
-0.15339
-1.33345
1.33729
0.155392
-0.15468
-1.54602
1.54531
0.151118
-0.145099
-1.49661
1.49059
0.138031
-0.129053
-1.21576
1.20679
0.120258
-0.109695
-0.993835
0.983272
0.0999869
-0.0892948
-0.815951
0.805259
0.0797167
-0.0695353
-0.672178
0.661997
0.060327
-0.0508688
-0.554208
0.54475
0.0426122
-0.033047
-0.448039
0.438474
0.0239982
-0.0147023
-0.31935
0.310054
0.00770214
-0.00262328
-0.155242
0.150163
0.000338681
-0.0210427
0.020704
-0.0908316
0.0872304
0.00360115
7.46812e-05
-0.00624643
-0.404983
0.411154
0.0140892
-0.0208461
-0.525632
0.532389
0.0294806
-0.0378986
-0.625045
0.633463
0.0475338
-0.0563432
-0.733124
0.741934
0.0657557
-0.074297
-0.857314
0.865856
0.083191
-0.090546
-0.999104
1.00646
0.0980731
-0.103778
-1.15988
1.16559
0.108817
-0.111834
-1.34098
1.344
0.112824
-0.111417
-1.54392
1.54251
0.107338
-0.100998
-1.48391
1.47757
0.0936285
-0.0845584
-1.19745
1.18838
0.0758283
-0.0658476
-0.972564
0.962583
0.0565013
-0.0461318
-0.793892
0.783522
0.0368495
-0.0273186
-0.650049
0.640518
0.0191715
-0.0108179
-0.532705
0.524351
0.00371082
0.00293828
-0.42664
0.419991
-0.00731529
0.00918497
-0.299429
0.297559
-0.00830303
0.00528877
-0.143469
0.146483
-0.00219128
-0.0192564
0.0214477
-0.0896686
0.0859765
0.00369211
-0.00744932
0.00483335
-0.420487
0.423103
-3.00128e-05
-0.00559869
-0.542373
0.548002
0.0127488
-0.0199583
-0.64226
0.649469
0.0281523
-0.035686
-0.750269
0.757803
0.0439478
-0.0513063
-0.873749
0.881108
0.0587709
-0.0653242
-1.01367
1.02022
0.0718906
-0.0770176
-1.17097
1.17609
0.0812004
-0.0835657
-1.34656
1.34892
0.0843409
-0.0827866
-1.5407
1.53914
0.0788258
-0.0729214
-1.471
1.46509
0.0662739
-0.0584121
-1.17963
1.17177
0.0506277
-0.0420999
-0.95278
0.944252
0.0342462
-0.0256927
-0.773807
0.765254
0.0183626
-0.0108753
-0.630665
0.623178
0.00472475
0.0014807
-0.514416
0.50821
-0.00620623
0.0101569
-0.41129
0.407339
-0.0120501
0.011317
-0.291637
0.29237
-0.00852756
0.00487282
-0.145645
0.1493
-0.00184656
-0.0217231
0.0235697
-0.0869584
0.0834926
0.00346575
-0.00982158
0.00915551
-0.430064
0.43073
-0.00603524
0.00167688
-0.555678
0.560037
0.00442334
-0.0104021
-0.656501
0.66248
0.0173549
-0.0237689
-0.765081
0.771495
0.0307759
-0.0370601
-0.888055
0.894339
0.0438353
-0.0494339
-1.02642
1.03201
0.0552657
-0.0594431
-1.18092
1.1851
0.0632091
-0.0653794
-1.35126
1.35343
0.0660162
-0.064431
-1.53749
1.5359
0.0611021
-0.0561424
-1.45913
1.45417
0.050535
-0.0436751
-1.16425
1.15739
0.0372879
-0.0304109
-0.936106
0.929229
0.0240264
-0.0174443
-0.757394
0.750812
0.011524
-0.00573441
-0.615473
0.609683
0.00104416
0.00324151
-0.500934
0.496648
-0.00622731
0.0084666
-0.400951
0.398712
-0.00928771
0.00789295
-0.28813
0.289525
-0.00572579
0.00316125
-0.148771
0.151335
-0.00120746
-0.0235358
0.0247433
-0.0843686
0.0815207
0.00284786
-0.00980673
0.0103734
-0.436166
0.4356
-0.00795285
0.00451462
-0.566561
0.569999
0.000424972
-0.00577353
-0.668487
0.673835
0.0115972
-0.0172163
-0.777538
0.783157
0.0232596
-0.0287088
-0.900296
0.905745
0.0345414
-0.0395795
-1.03755
1.04259
0.0446229
-0.0486099
-1.18925
1.19324
0.0520431
-0.0540717
-1.35542
1.35745
0.0547764
-0.0534841
-1.53443
1.53314
0.0506842
-0.0463267
-1.44896
1.44461
0.0415911
-0.0359618
-1.15097
1.14534
0.0306638
-0.0248739
-0.922583
0.916794
0.0197338
-0.0143722
-0.74448
0.739118
0.00977143
-0.00520808
-0.603896
0.599333
0.00163338
0.00155643
-0.491154
0.487964
-0.0038629
0.00539966
-0.393975
0.392438
-0.00578641
0.0050366
-0.286057
0.286806
-0.00371438
0.00199263
-0.149926
0.151648
-0.000847233
-0.0242878
0.0251351
-0.082329
0.0799969
0.00233206
-0.00883712
0.00961971
-0.440044
0.439262
-0.00827832
0.00530086
-0.575049
0.578026
-0.000701107
-0.00383676
-0.678708
0.683246
0.00884528
-0.0137356
-0.788273
0.793163
0.0191225
-0.0240203
-0.910972
0.915869
0.0294046
-0.033882
-1.04745
1.05192
0.0385172
-0.0422284
-1.19705
1.20076
0.0454253
-0.047374
-1.35935
1.3613
0.0481565
-0.0475006
-1.53196
1.5313
0.0451333
-0.0415494
-1.44013
1.43655
0.0374532
-0.0325709
-1.13986
1.13498
0.0281997
-0.0231039
-0.911217
0.906121
0.018656
-0.0141773
-0.733971
0.729492
0.0102808
-0.00640928
-0.594827
0.590955
0.00333025
-0.000419253
-0.483666
0.480755
-0.00138575
0.00271287
-0.388485
0.387158
-0.00347093
0.00322143
-0.283465
0.283715
-0.00242748
0.00138857
-0.149545
0.150584
-0.000624406
-0.0244152
0.0250396
-0.0809017
0.0791153
0.00178644
-0.00737994
0.00833682
-0.442831
0.441874
-0.00713121
0.00471482
-0.582495
0.584911
-0.000577423
-0.00349018
-0.687564
0.691632
0.00823054
-0.012447
-0.797871
0.802087
0.0171905
-0.0215597
-0.920824
0.925193
0.0267117
-0.030846
-1.05652
1.06065
0.035068
-0.0386951
-1.20441
1.20803
0.0421828
-0.044157
-1.36339
1.36537
0.0452171
-0.0447684
-1.53041
1.52996
0.0430693
-0.0397177
-1.43291
1.42956
0.0362248
-0.0319872
-1.13009
1.12585
0.027941
-0.0235133
-0.901211
0.896783
0.0194504
-0.0152165
-0.724889
0.720655
0.0118871
-0.00826097
-0.586921
0.583294
0.00529393
-0.00269649
-0.477042
0.474445
0.00078162
0.000790546
-0.383702
0.38213
-0.00163499
0.00180622
-0.280557
0.280386
-0.00149507
0.000950259
-0.148225
0.14877
-0.000478453
-0.0241827
0.0246611
-0.0801175
0.0787122
0.00140529
-0.00596697
0.0069724
-0.445002
0.443996
-0.00577749
0.00338569
-0.58896
0.591352
0.00035574
-0.00398423
-0.695499
0.699127
0.00805561
-0.0121223
-0.806411
0.810478
0.0165165
-0.021032
-0.929452
0.933968
0.025521
-0.0295236
-1.06495
1.06895
0.0339339
-0.0374047
-1.21165
1.21512
0.0405326
-0.0430085
-1.36737
1.36985
0.0443741
-0.0443271
-1.52967
1.52962
0.0429049
-0.0401944
-1.42643
1.42372
0.0370421
-0.033109
-1.12134
1.11741
0.0293888
-0.025193
-0.892251
0.888055
0.021356
-0.0174667
-0.716468
0.712579
0.0139805
-0.010529
-0.579464
0.576013
0.00771174
-0.00490998
-0.471028
0.468226
0.00280038
-0.0012519
-0.378761
0.377213
0.000118594
0.000516531
-0.277177
0.276542
-0.000695033
0.000565649
-0.146308
0.146437
-0.000359707
-0.0237524
0.0241122
-0.0799096
0.0787299
0.00117962
-0.00446879
0.00515377
-0.44698
0.446295
-0.00411403
0.00178205
-0.594871
0.597202
0.00159334
-0.0050412
-0.702842
0.70629
0.00892542
-0.0126084
-0.814473
0.818156
0.0171173
-0.0208881
-0.937993
0.941764
0.025359
-0.0292108
-1.07315
1.07701
0.0335512
-0.0372657
-1.21865
1.22237
0.0407521
-0.04311
-1.37221
1.37457
0.0449059
-0.0453158
-1.52961
1.53002
0.0445293
-0.0420806
-1.42089
1.41844
0.0392526
-0.0355421
-1.11351
1.1098
0.0319961
-0.0278492
-0.883595
0.879448
0.0241674
-0.020191
-0.708401
0.704425
0.0167153
-0.0131623
-0.572277
0.568724
0.0101469
-0.00741251
-0.464814
0.46208
0.00507663
-0.00323835
-0.373683
0.371844
0.00179621
-0.000791551
-0.273298
0.272293
0.000180595
0.000239537
-0.143803
0.143383
-0.000256011
-0.0230984
0.0233545
-0.0799843
0.0791397
0.000844583
-0.0032071
0.00337617
-0.449185
0.449016
-0.00253082
0.000280965
-0.600026
0.602276
0.00276319
-0.00606632
-0.709622
0.712925
0.00976994
-0.0135643
-0.821809
0.825603
0.0174848
-0.0214053
-0.945774
0.949694
0.0258456
-0.0295129
-1.08131
1.08498
0.0339687
-0.0376826
-1.22595
1.22966
0.0412965
-0.0442452
-1.37742
1.38037
0.0466038
-0.0473533
-1.53059
1.53134
0.046815
-0.0449792
-1.41617
1.41433
0.0425456
-0.0389827
-1.10588
1.10232
0.0354414
-0.0315042
-0.875133
0.871195
0.0274638
-0.0235526
-0.700108
0.696197
0.0199878
-0.0162288
-0.565049
0.56129
0.0131975
-0.0101303
-0.458401
0.455334
0.00764809
-0.00531558
-0.368444
0.366112
0.00365736
-0.00223335
-0.268924
0.2675
0.00103197
-0.000132595
-0.140723
0.139824
-0.000168706
-0.0222195
0.0223882
-0.0804537
0.0797618
0.000691831
-0.00222062
0.00236826
-0.451628
0.451481
-0.00102792
-0.00100523
-0.605104
0.607137
0.00410224
-0.00722871
-0.715885
0.719012
0.0107599
-0.014163
-0.829163
0.832567
0.0181899
-0.0218003
-0.953653
0.957264
0.0261838
-0.0302688
-1.08911
1.09319
0.0343956
-0.0384536
-1.23346
1.23752
0.0425233
-0.0456317
-1.3833
1.38641
0.0484517
-0.0500385
-1.53243
1.53401
0.0499731
-0.0487122
-1.41244
1.41118
0.04639
-0.043096
-1.09872
1.09542
0.0397399
-0.035686
-0.866767
0.862714
0.0317153
-0.0275773
-0.691697
0.687559
0.0238461
-0.0198271
-0.55722
0.553201
0.0164755
-0.0132196
-0.451629
0.448374
0.0103143
-0.00764424
-0.362567
0.359897
0.00554108
-0.00363694
-0.263836
0.261932
0.00202592
-0.000617781
-0.137023
0.135615
-1.63584e-05
-0.0211702
0.0211866
-0.0811601
0.0806215
0.000538624
-0.00121382
0.00113652
-0.454219
0.454296
-5.13735e-05
-0.00226953
-0.609688
0.612009
0.00522722
-0.00815922
-0.721856
0.724788
0.011736
-0.0149747
-0.836002
0.83924
0.0188335
-0.0225412
-0.961357
0.965065
0.0268133
-0.0308552
-1.09716
1.1012
0.0351972
-0.0393007
-1.24154
1.24564
0.043592
-0.0474776
-1.38986
1.39374
0.0508124
-0.0527822
-1.53566
1.53763
0.0534728
-0.0525813
-1.40993
1.40903
0.0507724
-0.0478806
-1.09204
1.08915
0.0444523
-0.0404227
-0.858271
0.854241
0.0364066
-0.0319678
-0.682957
0.678518
0.0280933
-0.0237615
-0.549058
0.544727
0.0201692
-0.0164188
-0.44438
0.44063
0.0132922
-0.0102404
-0.356068
0.353016