/*--------------------------------*- C++ -*----------------------------------*\
  =========                 |
  \\      /  F ield         | OpenFOAM: The Open Source CFD Toolbox
   \\    /   O peration     | Website:  https://openfoam.org
    \\  /    A nd           | Version:  9
     \\/     M anipulation  |
\*---------------------------------------------------------------------------*/
FoamFile
{
    format      ascii;
    class       volVectorField;
    location    "12";
    object      U;
}
// * * * * * * * * * * * * * * * * * * * * * * * * * * * * * * * * * * * * * //

dimensions      [0 1 -1 0 0 0 0];

internalField   nonuniform List<vector> 
8800
(
(0.984942 -0.0884268 0)
(1.00208 -0.0567742 0)
(0.999621 -0.0304653 0)
(0.999964 -0.0157165 0)
(0.999998 -0.00856778 0)
(0.99997 -0.00498224 0)
(0.999965 -0.00296609 0)
(0.999962 -0.00168716 0)
(0.999967 -0.000811681 0)
(1.00005 -0.000139602 0)
(0.999971 0.000543304 0)
(0.999958 0.00129243 0)
(0.999956 0.00232875 0)
(0.999962 0.00390817 0)
(0.999984 0.00655421 0)
(1.00001 0.0115579 0)
(0.99986 0.0219161 0)
(0.999157 0.0411 0)
(1.0074 0.0768783 0)
(0.773656 0.0450645 0)
(0.361314 -0.015133 0)
(1.04581 -0.0740092 0)
(1.08718 -0.0676463 0)
(1.04794 -0.0521435 0)
(1.02463 -0.0382961 0)
(1.01225 -0.0259353 0)
(1.0063 -0.0164868 0)
(1.00348 -0.00994513 0)
(1.00215 -0.00541381 0)
(1.00158 -0.00199639 0)
(1.00147 0.000913133 0)
(1.00176 0.00403903 0)
(1.00264 0.00784419 0)
(1.00459 0.0132034 0)
(1.0087 0.0210568 0)
(1.01736 0.0320245 0)
(1.03471 0.0454206 0)
(1.06573 0.0594496 0)
(1.09416 0.0726646 0)
(0.842664 0.0555719 0)
(0.218102 -0.0016031 0)
(1.07657 -0.0496493 0)
(1.09988 -0.0477112 0)
(1.06449 -0.038972 0)
(1.03996 -0.0318406 0)
(1.02395 -0.0246652 0)
(1.01409 -0.0174704 0)
(1.00841 -0.0110996 0)
(1.00544 -0.00570948 0)
(1.00431 -0.00078282 0)
(1.00461 0.00400793 0)
(1.00655 0.00900741 0)
(1.01067 0.0147627 0)
(1.01818 0.0215001 0)
(1.03082 0.0286831 0)
(1.05075 0.0356585 0)
(1.08045 0.0431004 0)
(1.10678 0.0506736 0)
(0.944638 0.0407753 0)
(0.217809 0.00161193 0)
(0.177939 -0.000587515 0)
(1.02118 -0.0339303 0)
(1.1065 -0.0394922 0)
(1.0784 -0.034146 0)
(1.05259 -0.0280776 0)
(1.03498 -0.0226109 0)
(1.02279 -0.0174344 0)
(1.01491 -0.0120328 0)
(1.01044 -0.00650397 0)
(1.00856 -0.000794352 0)
(1.00906 0.0048721 0)
(1.01208 0.0103172 0)
(1.01805 0.015678 0)
(1.02792 0.0207886 0)
(1.04259 0.0258852 0)
(1.06368 0.0315309 0)
(1.09483 0.0377279 0)
(1.09615 0.0397202 0)
(0.833821 0.0216635 0)
(0.177453 0.000597778 0)
(0.158194 -0.00042073 0)
(0.963972 -0.0230492 0)
(1.10506 -0.0315588 0)
(1.08759 -0.029484 0)
(1.06078 -0.0256171 0)
(1.04261 -0.0210941 0)
(1.03041 -0.016275 0)
(1.02187 -0.0112971 0)
(1.01623 -0.00609469 0)
(1.0135 -0.000551292 0)
(1.01431 0.00496996 0)
(1.01834 0.0101832 0)
(1.02525 0.0150354 0)
(1.03534 0.0197067 0)
(1.05008 0.024181 0)
(1.07223 0.0282991 0)
(1.10158 0.0316135 0)
(1.07345 0.0301789 0)
(0.752847 0.0125997 0)
(0.157475 0.000433196 0)
(0.146361 -0.000265851 0)
(0.915276 -0.0143062 0)
(1.0985 -0.0231 0)
(1.09372 -0.0225347 0)
(1.06617 -0.0199434 0)
(1.04712 -0.0171327 0)
(1.03397 -0.0137434 0)
(1.02513 -0.00980402 0)
(1.01952 -0.00533873 0)
(1.0169 -0.000224219 0)
(1.01753 0.00503009 0)
(1.02134 0.00957015 0)
(1.02827 0.0135075 0)
(1.03894 0.0169017 0)
(1.05473 0.0196915 0)
(1.07771 0.0221422 0)
(1.10339 0.0240801 0)
(1.04696 0.0210459 0)
(0.697681 0.0070105 0)
(0.145357 0.000283004 0)
(0.140737 -7.21597e-05 0)
(0.881223 -0.00703377 0)
(1.08829 -0.0144899 0)
(1.09681 -0.0154465 0)
(1.07097 -0.0143189 0)
(1.05213 -0.0126733 0)
(1.03922 -0.0106401 0)
(1.03027 -0.00794547 0)
(1.02447 -0.00439116 0)
(1.02171 0.000179506 0)
(1.02227 0.00487981 0)
(1.02616 0.00869029 0)
(1.03313 0.0114809 0)
(1.04362 0.0134672 0)
(1.05907 0.0149898 0)
(1.08168 0.0160311 0)
(1.1018 0.0163812 0)
(1.02206 0.0122295 0)
(0.666328 0.00308421 0)
(0.139392 9.22778e-05 0)
(0.138996 8.73064e-06 0)
(0.860092 -0.00339007 0)
(1.07652 -0.00949366 0)
(1.0959 -0.0119795 0)
(1.07152 -0.012333 0)
(1.05346 -0.0117768 0)
(1.0411 -0.0101624 0)
(1.03275 -0.00752055 0)
(1.02746 -0.00386261 0)
(1.02484 0.000609903 0)
(1.02521 0.00513577 0)
(1.02856 0.00892189 0)
(1.03489 0.0116452 0)
(1.04482 0.0133926 0)
(1.05949 0.0140747 0)
(1.08145 0.0136451 0)
(1.09659 0.0123302 0)
(1.00155 0.0073386 0)
(0.65014 0.00138369 0)
(0.137229 1.52685e-05 0)
(0.138677 2.21212e-05 0)
(0.846065 -0.00188429 0)
(1.06305 -0.00727859 0)
(1.09143 -0.0114744 0)
(1.07136 -0.0128157 0)
(1.05506 -0.0126733 0)
(1.04398 -0.0110218 0)
(1.03642 -0.00807001 0)
(1.03127 -0.00393637 0)
(1.02854 0.00104182 0)
(1.02879 0.00607108 0)
(1.03193 0.0101914 0)
(1.03759 0.0131662 0)
(1.04636 0.014816 0)
(1.05935 0.0150638 0)
(1.07922 0.0143386 0)
(1.08737 0.0111647 0)
(0.983689 0.00521568 0)
(0.640703 0.00082171 0)
(0.136394 4.89476e-06 0)
(0.138647 1.44559e-05 0)
(0.835985 -0.00108433 0)
(1.04813 -0.00561831 0)
(1.08324 -0.0109269 0)
(1.06998 -0.013648 0)
(1.05649 -0.0135828 0)
(1.04721 -0.0118204 0)
(1.04058 -0.00856049 0)
(1.03582 -0.0041256 0)
(1.03308 0.00154142 0)
(1.03309 0.00719963 0)
(1.03571 0.0117538 0)
(1.04057 0.0149127 0)
(1.04788 0.0167032 0)
(1.05848 0.0167931 0)
(1.07389 0.0149759 0)
(1.07402 0.0101795 0)
(0.967505 0.00398355 0)
(0.6341 0.000643666 0)
(0.135709 1.9204e-05 0)
(0.138805 1.97587e-05 0)
(0.829615 -0.000353174 0)
(1.03487 -0.00334886 0)
(1.07342 -0.0080228 0)
(1.06699 -0.0110636 0)
(1.05755 -0.0115915 0)
(1.0502 -0.0102646 0)
(1.04439 -0.00738467 0)
(1.04014 -0.00321299 0)
(1.03742 0.00236062 0)
(1.03712 0.00787579 0)
(1.0391 0.0121824 0)
(1.04311 0.0149451 0)
(1.04874 0.016174 0)
(1.05698 0.0158568 0)
(1.06585 0.0128332 0)
(1.05959 0.00780022 0)
(0.954565 0.00272704 0)
(0.629504 0.000474594 0)
(0.13506 2.1404e-05 0)
(0.139224 2.9398e-05 0)
(0.826696 0.000170366 0)
(1.02615 -0.00129837 0)
(1.06545 -0.0042808 0)
(1.06363 -0.00665309 0)
(1.05794 -0.00743637 0)
(1.05257 -0.00665448 0)
(1.04787 -0.00445363 0)
(1.04428 -0.000970442 0)
(1.04165 0.00360319 0)
(1.04093 0.00807286 0)
(1.04224 0.0113361 0)
(1.04489 0.0131842 0)
(1.0488 0.0133717 0)
(1.05354 0.0121009 0)
(1.05794 0.00926364 0)
(1.04797 0.00527375 0)
(0.945831 0.00183821 0)
(0.626401 0.000395514 0)
(0.134483 2.25706e-05 0)
(0.139883 3.5679e-05 0)
(0.826327 0.000550329 0)
(1.0218 0.000149161 0)
(1.06057 -0.00129275 0)
(1.06115 -0.00262557 0)
(1.05784 -0.00312787 0)
(1.05416 -0.00254736 0)
(1.0505 -0.0008679 0)
(1.04739 0.00183085 0)
(1.04473 0.00518635 0)
(1.04347 0.00831128 0)
(1.04422 0.0102127 0)
(1.04535 0.0109906 0)
(1.04753 0.0104427 0)
(1.05 0.00885614 0)
(1.05166 0.00645752 0)
(1.04008 0.00365816 0)
(0.940277 0.00145369 0)
(0.623991 0.000412369 0)
(0.133883 2.73592e-05 0)
(0.14075 4.51485e-05 0)
(0.827352 0.000846326 0)
(1.02054 0.00110738 0)
(1.05847 0.000757846 0)
(1.06005 0.000379316 0)
(1.05808 0.000415002 0)
(1.05551 0.00111084 0)
(1.0526 0.00253716 0)
(1.04972 0.00464061 0)
(1.0469 0.00701945 0)
(1.04505 0.00899713 0)
(1.04491 0.00991299 0)
(1.04497 0.0095868 0)
(1.04577 0.00857177 0)
(1.04676 0.00695455 0)
(1.04699 0.00499184 0)
(1.03484 0.0029953 0)
(0.936367 0.00143556 0)
(0.62164 0.000496087 0)
(0.133154 3.57834e-05 0)
(0.141846 5.6137e-05 0)
(0.829597 0.0011365 0)
(1.02117 0.00185371 0)
(1.05837 0.00223454 0)
(1.06026 0.00259479 0)
(1.0589 0.00319142 0)
(1.0569 0.00418117 0)
(1.05437 0.00561004 0)
(1.05147 0.0073937 0)
(1.04833 0.00914889 0)
(1.04581 0.0102559 0)
(1.04475 0.0102089 0)
(1.04387 0.00934483 0)
(1.04372 0.00799008 0)
(1.0438 0.00633767 0)
(1.04331 0.00460612 0)
(1.03094 0.00297882 0)
(0.932978 0.00163649 0)
(0.618954 0.000622474 0)
(0.132222 4.66989e-05 0)
(0.143233 7.07065e-05 0)
(0.832821 0.00147218 0)
(1.02313 0.00258339 0)
(1.05966 0.00350052 0)
(1.06159 0.00443455 0)
(1.06041 0.00555651 0)
(1.05857 0.00694302 0)
(1.05606 0.00857564 0)
(1.05293 0.0103003 0)
(1.04925 0.0117151 0)
(1.04591 0.0122009 0)
(1.04382 0.0115347 0)
(1.04226 0.0101261 0)
(1.0414 0.00845743 0)
(1.04089 0.00667054 0)
(1.03999 0.00494141 0)
(1.02744 0.00336765 0)
(0.929442 0.00198462 0)
(0.61568 0.000786237 0)
(0.13103 6.00435e-05 0)
(0.144994 9.03477e-05 0)
(0.837114 0.00189332 0)
(1.02622 0.00341235 0)
(1.06211 0.00479191 0)
(1.0639 0.00622394 0)
(1.06265 0.00786419 0)
(1.06067 0.00973723 0)
(1.0579 0.0117398 0)
(1.05427 0.0136159 0)
(1.04982 0.014888 0)
(1.0455 0.0149086 0)
(1.04238 0.0137086 0)
(1.04013 0.0118281 0)
(1.03867 0.00976402 0)
(1.03773 0.0077068 0)
(1.03654 0.00578866 0)
(1.02375 0.00405362 0)
(0.925336 0.00246313 0)
(0.611596 0.000992633 0)
(0.129518 7.66173e-05 0)
(0.14725 0.000117122 0)
(0.842708 0.00243935 0)
(1.03051 0.00442408 0)
(1.06569 0.00625978 0)
(1.06727 0.00818792 0)
(1.06577 0.010412 0)
(1.06339 0.0128899 0)
(1.06006 0.0154046 0)
(1.05566 0.0176 0)
(1.05015 0.0188666 0)
(1.04464 0.0185028 0)
(1.04042 0.0167585 0)
(1.03741 0.0143524 0)
(1.03538 0.0118015 0)
(1.03404 0.00934391 0)
(1.0326 0.00708365 0)
(1.01947 0.00502501 0)
(0.92032 0.00308935 0)
(0.606457 0.00125409 0)
(0.127611 9.79611e-05 0)
(0.15017 0.000152803 0)
(0.849981 0.00314867 0)
(1.03625 0.00569572 0)
(1.07063 0.00802099 0)
(1.07187 0.0105152 0)
(1.06997 0.0134978 0)
(1.06697 0.0167665 0)
(1.06276 0.0199077 0)
(1.05726 0.0225451 0)
(1.05033 0.0238903 0)
(1.04334 0.0231531 0)
(1.03788 0.0207963 0)
(1.03399 0.0177416 0)
(1.03134 0.0145766 0)
(1.02958 0.011587 0)
(1.02786 0.00885392 0)
(1.01429 0.00633071 0)
(0.914054 0.00390437 0)
(0.599958 0.00158794 0)
(0.125216 0.000125867 0)
(0.153989 0.000200398 0)
(0.859448 0.00407645 0)
(1.04382 0.00733757 0)
(1.07724 0.0102612 0)
(1.07798 0.013458 0)
(1.07542 0.0173757 0)
(1.07155 0.0215787 0)
(1.06624 0.0255919 0)
(1.05922 0.0287948 0)
(1.05044 0.0302495 0)
(1.04159 0.0290762 0)
(1.03466 0.0259756 0)
(1.02973 0.0221045 0)
(1.02634 0.018162 0)
(1.02409 0.0144942 0)
(1.02203 0.0111652 0)
(1.00789 0.00804895 0)
(0.906192 0.00496872 0)
(0.591747 0.00201159 0)
(0.12222 0.000161026 0)
(0.159063 0.000269323 0)
(0.871798 0.0053525 0)
(1.05359 0.00958291 0)
(1.0858 0.0132907 0)
(1.08592 0.0174739 0)
(1.08244 0.0225105 0)
(1.07747 0.0278837 0)
(1.07064 0.0329001 0)
(1.06164 0.0367362 0)
(1.05049 0.0382704 0)
(1.03934 0.0365273 0)
(1.03063 0.0324914 0)
(1.02443 0.0275912 0)
(1.02015 0.0226602 0)
(1.01729 0.0181288 0)
(1.01478 0.0140653 0)
(0.99994 0.0102393 0)
(0.896428 0.0063413 0)
(0.581502 0.00253355 0)
(0.118505 0.000199598 0)
(0.165924 0.000378488 0)
(0.887968 0.00723793 0)
(1.06612 0.0127648 0)
(1.09676 0.0174672 0)
(1.09599 0.022931 0)
(1.09141 0.0294344 0)
(1.08486 0.0361716 0)
(1.07594 0.0422773 0)
(1.06439 0.0467807 0)
(1.0503 0.0483053 0)
(1.03637 0.0457912 0)
(1.02553 0.0405773 0)
(1.01782 0.0343994 0)
(1.01248 0.0282292 0)
(1.00886 0.0225922 0)
(1.00579 0.0175928 0)
(0.990115 0.0128896 0)
(0.884437 0.00798866 0)
(0.568881 0.00319275 0)
(0.113899 0.00024815 0)
(0.175373 0.0005553 0)
(0.909308 0.0101447 0)
(1.08242 0.0173902 0)
(1.11097 0.0234315 0)
(1.10881 0.0305924 0)
(1.10251 0.0388493 0)
(1.09369 0.0471131 0)
(1.08199 0.0544086 0)
(1.06721 0.0595035 0)
(1.04956 0.060784 0)
(1.03236 0.0572028 0)
(1.01906 0.0505291 0)
(1.00957 0.0428087 0)
(1.00296 0.035138 0)
(0.998435 0.0281278 0)
(0.994705 0.0219482 0)
(0.978004 0.0161726 0)
(0.869573 0.0100839 0)
(0.553195 0.00400316 0)
(0.108246 0.000307454 0)
(0.188674 0.000843272 0)
(0.937682 0.0146589 0)
(1.10381 0.0241651 0)
(1.12955 0.0321035 0)
(1.1252 0.0414765 0)
(1.1163 0.0518773 0)
(1.10426 0.0618747 0)
(1.0888 0.0702707 0)
(1.06992 0.0756315 0)
(1.048 0.0762225 0)
(1.02704 0.0711434 0)
(1.01092 0.0626804 0)
(0.999362 0.0531546 0)
(0.991221 0.0437437 0)
(0.98558 0.0351163 0)
(0.980997 0.0275062 0)
(0.962983 0.0204181 0)
(0.851164 0.0128528 0)
(0.533918 0.0050854 0)
(0.101349 0.00037559 0)
(0.20814 0.00136663 0)
(0.976356 0.0220107 0)
(1.13224 0.0346208 0)
(1.15383 0.045236 0)
(1.14593 0.0573937 0)
(1.1331 0.070181 0)
(1.11655 0.0817654 0)
(1.09619 0.0908093 0)
(1.07226 0.0958302 0)
(1.04538 0.0950819 0)
(1.02019 0.0879594 0)
(1.00092 0.0773415 0)
(0.986985 0.0657669 0)
(0.976992 0.0544231 0)
(0.969891 0.0439914 0)
(0.964088 0.0347299 0)
(0.944274 0.0260888 0)
(0.828158 0.0165985 0)
(0.510164 0.00655978 0)
(0.0929148 0.000466202 0)
(0.237313 0.00258256 0)
(1.03136 0.0357866 0)
(1.16995 0.0528078 0)
(1.18465 0.0667163 0)
(1.17093 0.0817647 0)
(1.15223 0.096322 0)
(1.12963 0.108497 0)
(1.10326 0.117079 0)
(1.07355 0.120697 0)
(1.04121 0.117691 0)
(1.0115 0.10789 0)
(0.988853 0.0947747 0)
(0.9723 0.08099 0)
(0.96014 0.0676359 0)
(0.95117 0.0553366 0)
(0.943584 0.0443242 0)
(0.921195 0.0340219 0)
(0.799218 0.0220275 0)
(0.481 0.00862318 0)
(0.0831511 0.00052648 0)
(0.278129 0.00968619 -2.05615e-20)
(1.10392 0.0640069 -1.55205e-20)
(1.21644 0.0846426 4.0128e-21)
(1.21965 0.102106 0)
(1.19768 0.118329 -2.56637e-35)
(1.17144 0.13263 6.84342e-22)
(1.14177 0.143686 -3.09476e-21)
(1.10877 0.150424 0)
(1.0728 0.151573 1.05097e-34)
(1.03453 0.1456 -7.75586e-21)
(0.999824 0.132795 0)
(0.973286 0.117141 -1.09356e-20)
(0.953531 0.101263 -3.33536e-20)
(0.93853 0.0861408 -1.61068e-20)
(0.926873 0.07239 -5.0556e-21)
(0.916447 0.0601832 -3.05625e-21)
(0.890465 0.048725 0)
(0.761554 0.0338158 2.18633e-21)
(0.444505 0.0162774 2.57855e-21)
(0.0736705 0.00233684 4.52968e-20)
(0.302877 0.0268161 -4.27748e-20)
(1.16177 0.110929 9.98507e-22)
(1.25846 0.133848 -2.26397e-21)
(1.25158 0.151119 0)
(1.22179 0.165595 2.52155e-21)
(1.18819 0.178084 4.81909e-22)
(1.15151 0.187242 -2.21833e-21)
(1.1118 0.191877 -1.41251e-20)
(1.06925 0.190644 0)
(1.02434 0.182004 3.29058e-20)
(0.983457 0.166697 3.60566e-20)
(0.9517 0.149152 1.15175e-20)
(0.927393 0.13193 4.52717e-20)
(0.908229 0.115826 6.65745e-20)
(0.892582 0.101329 0)
(0.877953 0.0887519 9.87876e-20)
(0.846849 0.0771126 1.44551e-19)
(0.720228 0.0592331 1.6009e-19)
(0.420479 0.0345087 -1.85999e-19)
(0.0709943 0.00611428 -3.3594e-21)
(0.296565 0.0435265 0)
(1.19495 0.17052 -1.33706e-20)
(1.29001 0.196198 0)
(1.27654 0.209988 2.02977e-20)
(1.24047 0.220902 0)
(1.20057 0.229825 7.96691e-21)
(1.15768 0.235654 2.98326e-21)
(1.11187 0.237158 -2.1971e-20)
(1.06332 0.232893 -3.06611e-21)
(1.01237 0.221266 1.59877e-20)
(0.965999 0.2035 8.3517e-20)
(0.929719 0.184442 -5.22763e-22)
(0.901612 0.166571 -3.39014e-20)
(0.879099 0.150523 -6.55553e-20)
(0.860469 0.136635 7.95249e-20)
(0.843354 0.125008 -1.42682e-19)
(0.812571 0.11418 -1.95435e-20)
(0.700628 0.0938551 0)
(0.426117 0.0585609 4.95589e-22)
(0.0789516 0.0113697 0)
(0.285337 0.057684 -3.36137e-19)
(1.20943 0.233293 1.39505e-19)
(1.31003 0.262687 7.42674e-20)
(1.29278 0.273581 -1.37004e-20)
(1.25239 0.280433 2.0828e-20)
(1.20782 0.285238 -2.0506e-20)
(1.15999 0.287183 4.42765e-21)
(1.10908 0.284973 0)
(1.05538 0.277206 -6.40856e-20)
(0.999219 0.262301 0)
(0.94818 0.241991 -4.25238e-20)
(0.908378 0.221454 -5.93803e-20)
(0.877691 0.203055 -3.78118e-20)
(0.853316 0.187133 -4.86313e-20)
(0.833438 0.173734 0)
(0.815762 0.162826 0)
(0.787313 0.152498 -1.30535e-19)
(0.687018 0.130657 2.59918e-20)
(0.428843 0.0832035 -1.50644e-20)
(0.0830598 0.0164744 -1.74626e-20)
(0.274664 0.0701934 2.49234e-19)
(1.21208 0.295308 0)
(1.32044 0.329829 -2.09022e-19)
(1.30117 0.338176 -5.2392e-20)
(1.25788 0.341155 -3.83873e-20)
(1.20998 0.341944 0)
(1.15843 0.339936 -2.52053e-21)
(1.10349 0.333904 2.00994e-20)
(1.04552 0.32247 2.84284e-20)
(0.985063 0.304103 7.96267e-20)
(0.930375 0.281009 0)
(0.887995 0.258772 -1.28728e-19)
(0.855633 0.239511 -8.20214e-20)
(0.830218 0.2233 -4.93196e-20)
(0.809755 0.209983 3.22146e-19)
(0.792079 0.199325 3.94245e-20)
(0.765915 0.188958 1.88344e-19)
(0.673564 0.16443 -9.08465e-19)
(0.425545 0.105174 5.36567e-19)
(0.0838152 0.0209406 -6.41168e-19)
(0.265642 0.0814626 2.63473e-19)
(1.20719 0.354649 -4.92703e-20)
(1.32387 0.395762 3.70327e-20)
(1.30353 0.401911 9.96327e-20)
(1.25819 0.401265 5.98937e-20)
(1.20777 0.398346 3.23606e-21)
(1.15335 0.392594 1.73392e-21)
(1.09521 0.382837 1.5887e-20)
(1.03379 0.367729 -6.1867e-20)
(0.969665 0.345789 0)
(0.911808 0.319725 -5.53931e-20)
(0.867351 0.295432 -2.92973e-21)
(0.833821 0.274859 -9.15051e-20)
(0.807868 0.257866 0)
(0.787344 0.244085 -7.01134e-20)
(0.770098 0.233086 -1.70069e-19)
(0.745703 0.222105 4.69581e-19)
(0.658364 0.194382 -4.66927e-19)
(0.418026 0.124238 6.60344e-19)
(0.0827337 0.0247296 -6.79371e-19)
(0.258508 0.0918776 -8.8961e-22)
(1.19792 0.410684 6.05125e-20)
(1.32197 0.459254 1.7816e-19)
(1.30117 0.463737 -6.15418e-20)
(1.25438 0.45983 3.44258e-20)
(1.20209 0.453479 0)
(1.14541 0.444253 1.35971e-20)
(1.08463 0.430999 -1.31587e-20)
(1.02025 0.412372 -2.85812e-20)
(0.952982 0.38685 0)
(0.892524 0.357603 -5.40592e-20)
(0.846459 0.330903 -7.53698e-20)
(0.812126 0.308574 9.9838e-20)
(0.785957 0.29033 -6.3727e-20)
(0.765593 0.275633 -3.07914e-19)
(0.74884 0.263875 1.88858e-19)
(0.725689 0.251889 5.9669e-20)
(0.641427 0.220778 0)
(0.407783 0.140583 -6.39605e-19)
(0.0805662 0.0278609 -2.31978e-20)
(0.252969 0.10179 4.32397e-20)
(1.18617 0.463345 -6.96979e-20)
(1.31626 0.519786 -9.73045e-20)
(1.29532 0.522962 -1.88776e-19)
(1.24749 0.516213 1.68735e-19)
(1.19379 0.506813 -8.70518e-20)
(1.13532 0.494439 -2.87882e-20)
(1.07236 0.477969 -1.92329e-20)
(1.00549 0.456016 2.68823e-20)
(0.935555 0.426996 -1.92956e-19)
(0.872699 0.394412 -6.6077e-20)
(0.825137 0.364991 0)
(0.790116 0.340537 1.08997e-19)
(0.763816 0.320647 1.34448e-19)
(0.743689 0.304679 1.65185e-19)
(0.727432 0.291838 -2.05811e-19)
(0.705207 0.278501 -6.18537e-20)
(0.623242 0.244049 7.3167e-20)
(0.395735 0.154583 0)
(0.0777634 0.030403 -5.05328e-20)
(0.248702 0.111331 -5.01907e-19)
(1.1732 0.512771 3.20251e-19)
(1.30779 0.577112 1.06896e-19)
(1.28682 0.579269 -1.44564e-19)
(1.23826 0.570038 1.01641e-19)
(1.18352 0.557955 -7.57716e-21)
(1.12368 0.542782 2.78166e-20)
(1.05894 0.523402 -7.87626e-21)
(0.989837 0.498399 -5.06286e-20)
(0.917357 0.466046 2.7826e-22)
(0.852217 0.430053 -1.97085e-19)
(0.803205 0.397672 1.90975e-19)
(0.767532 0.370762 -1.21933e-19)
(0.741138 0.348886 1.51345e-19)
(0.721274 0.331336 0)
(0.705497 0.317175 -1.11721e-19)
(0.683995 0.302313 -2.65932e-21)
(0.603963 0.264324 -3.19714e-19)
(0.382185 0.166422 -4.69811e-20)
(0.0743435 0.0323048 0)
(0.245495 0.120572 0)
(1.15979 0.559269 3.46076e-19)
(1.29733 0.631081 2.50128e-19)
(1.27646 0.632477 1.63484e-19)
(1.22739 0.621126 9.73165e-20)
(1.17188 0.606698 0)
(1.11091 0.589047 2.97761e-20)
(1.04463 0.567076 -2.46842e-21)
(0.973524 0.53934 1.06812e-19)
(0.898599 0.503895 -2.3687e-20)
(0.83122 0.464564 -1.44264e-19)
(0.78069 0.429048 9.57283e-20)
(0.744275 0.399406 -3.86683e-21)
(0.717729 0.375216 1.59545e-19)
(0.69811 0.35577 1.03881e-19)
(0.682795 0.340032 -2.43278e-19)
(0.661883 0.323388 2.94033e-19)
(0.58356 0.281692 8.77714e-20)
(0.367167 0.175927 3.60094e-19)
(0.0703243 0.0335096 -9.50928e-19)
(0.243148 0.129667 -1.28656e-19)
(1.14642 0.602958 2.00071e-19)
(1.28551 0.68178 -1.56641e-19)
(1.26485 0.682629 -1.90256e-19)
(1.21538 0.669428 0)
(1.15927 0.65294 7.84304e-20)
(1.09741 0.633118 -8.50583e-20)
(1.02985 0.608894 7.04782e-21)
(0.956949 0.578755 0)
(0.879592 0.540528 -3.64364e-19)
(0.809843 0.497997 3.92618e-19)
(0.757636 0.459278 0)
(0.720259 0.426666 1.44351e-19)
(0.69344 0.399848 -3.92967e-21)
(0.674006 0.378178 -3.29359e-19)
(0.659153 0.360603 1.29267e-19)
(0.638773 0.341959 0)
(0.561774 0.296212 4.756e-19)
(0.350578 0.18311 0)
(0.0657569 0.0340219 -4.53525e-19)
(0.241459 0.138589 1.43223e-19)
(1.13334 0.644048 2.28954e-19)
(1.27285 0.729304 -1.63757e-19)
(1.25239 0.729767 0)
(1.20266 0.714961 1.35269e-19)
(1.14614 0.696672 0)
(1.08357 0.674955 1.14848e-19)
(1.01492 0.648807 1.06354e-20)
(0.940363 0.616624 1.17694e-20)
(0.860644 0.57594 -1.79667e-19)
(0.788281 0.530449 3.8168e-20)
(0.73411 0.488543 0)
(0.695454 0.452751 -3.07422e-19)
(0.668103 0.423022 4.08176e-21)
(0.648737 0.398758 0)
(0.634421 0.37906 4.81556e-21)
(0.614537 0.358034 4.33348e-19)
(0.538499 0.307908 -4.17446e-19)
(0.3324 0.187847 1.2216e-19)
(0.0605875 0.0338316 0)
(0.240039 0.147221 0)
(1.1206 0.682767 2.55828e-19)
(1.25986 0.773729 1.92309e-19)
(1.23941 0.773996 -4.20256e-21)
(1.18956 0.757752 8.5143e-20)
(1.13277 0.737899 1.85547e-19)
(1.06966 0.714563 -3.66997e-20)
(1.00007 0.686799 1.73273e-21)
(0.924002 0.652935 6.62369e-20)
(0.841958 0.610211 -2.79402e-19)
(0.76674 0.562089 -6.15783e-21)
(0.710188 0.517032 -1.25996e-19)
(0.669916 0.477867 5.04122e-19)
(0.641667 0.444943 -4.92383e-21)
(0.622319 0.417755 -2.60476e-19)
(0.608517 0.395512 -4.7483e-19)
(0.589021 0.371742 0)
(0.5135 0.316806 0)
(0.312472 0.19005 1.34956e-19)
(0.0548593 0.0328243 -7.76259e-20)
(0.239129 0.15564 1.77641e-19)
(1.10837 0.719086 -5.58373e-19)
(1.24663 0.815211 -2.05432e-19)
(1.22618 0.815388 0)
(1.17633 0.79786 -2.89928e-21)
(1.11939 0.776654 2.24023e-19)
(1.0559 0.751963 -1.25781e-19)
(0.985524 0.722881 -4.6414e-20)
(0.908059 0.687694 7.0119e-20)
(0.823689 0.643386 -2.15233e-19)
(0.745424 0.593013 -3.31222e-19)
(0.686027 0.54496 3.35865e-19)
(0.643827 0.502301 0)
(0.614399 0.465834 -1.17579e-19)
(0.594811 0.435452 -2.86314e-19)
(0.581131 0.410161 -3.44856e-19)
(0.561706 0.383176 -4.18291e-19)
(0.486357 0.322805 1.2511e-19)
(0.290543 0.189346 -7.30476e-20)
(0.048566 0.0309627 9.46998e-22)
(0.23823 0.16372 0)
(1.09698 0.7529 0)
(1.23333 0.853955 4.61823e-21)
(1.21291 0.854035 0)
(1.16316 0.835386 -3.20122e-19)
(1.10619 0.813017 -1.98568e-19)
(1.04246 0.787202 0)
(0.971458 0.757086 -1.29363e-20)
(0.89272 0.720911 9.13519e-20)
(0.806068 0.675463 -4.93251e-19)
(0.724575 0.623279 0)
(0.661854 0.572569 -2.15056e-19)
(0.61721 0.52653 -6.04227e-21)
(0.586245 0.486272 -5.00079e-21)
(0.565796 0.452079 3.06416e-19)
(0.551983 0.423281 -7.23002e-22)
(0.532368 0.392314 -9.10745e-19)
(0.456827 0.325655 2.73706e-19)
(0.266417 0.185523 8.09781e-20)
(0.0417031 0.0281807 0)
(0.237282 0.171484 -6.51302e-19)
(1.08604 0.784718 -3.42959e-19)
(1.22015 0.890103 -5.12728e-19)
(1.19979 0.890059 7.14832e-19)
(1.15022 0.870416 -6.00089e-19)
(1.09332 0.847062 0)
(1.02947 0.820332 -1.08834e-19)
(0.958002 0.789441 2.38832e-20)
(0.878146 0.752615 7.24785e-21)
(0.789273 0.706477 3.87287e-20)
(0.704384 0.653053 4.14274e-19)
(0.637848 0.600168 -7.35071e-20)
(0.589767 0.550951 -3.11271e-19)
(0.55645 0.506577 -1.39988e-19)
(0.534866 0.467996 1.70837e-19)
(0.520752 0.435029 -6.20197e-22)
(0.500915 0.399464 2.50864e-19)
(0.424497 0.325244 -5.94598e-19)
(0.239485 0.178076 7.07481e-19)
(0.0342483 0.0245028 1.00626e-19)
(0.236166 0.178822 2.38526e-19)
(1.07551 0.814585 -1.87076e-19)
(1.2072 0.923769 1.11367e-20)
(1.18692 0.923597 4.03246e-19)
(1.13758 0.903073 1.40225e-19)
(1.08086 0.878871 3.96265e-19)
(1.01704 0.851405 -4.86099e-20)
(0.945247 0.819958 1.16482e-19)
(0.864438 0.782798 -5.6532e-20)
(0.773418 0.736417 -2.68877e-19)
(0.684986 0.682383 0)
(0.614235 0.627854 -3.30163e-19)
(0.561715 0.575635 4.51626e-19)
(0.524961 0.526935 0)
(0.501831 0.483665 -3.65826e-19)
(0.487041 0.445348 2.27131e-19)
(0.46681 0.403979 -2.7157e-19)
(0.389141 0.321122 -3.27626e-19)
(0.209832 0.166858 -5.77852e-19)
(0.0263384 0.0199304 -4.43936e-19)
(0.235153 0.185826 -2.61267e-19)
(1.06523 0.842536 1.99739e-19)
(1.19457 0.955076 4.75937e-19)
(1.17438 0.954763 5.53376e-19)
(1.12534 0.933464 -2.92958e-19)
(1.06889 0.908543 2.73537e-19)
(1.00522 0.880481 -1.51013e-19)
(0.933244 0.848678 1.46715e-19)
(0.851641 0.811464 -2.10973e-20)
(0.758641 0.765268 2.56885e-19)
(0.666612 0.711173 8.77588e-19)
(0.591381 0.655626 0)
(0.533853 0.600905 0)
(0.492389 0.548249 -1.61696e-19)
(0.466437 0.49956 0)
(0.450255 0.454909 4.95345e-19)
(0.429316 0.405515 5.95548e-19)
(0.350621 0.312118 0)
(0.178394 0.1516 0)
(0.0184973 0.0147829 4.86089e-19)
(0.233888 0.192225 2.87349e-19)
(1.05521 0.868614 2.39037e-19)
(1.18231 0.984176 3.41004e-19)
(1.16223 0.983709 -4.927e-19)
(1.11356 0.961709 -3.26035e-19)
(1.05745 0.936164 -3.62495e-19)
(0.994049 0.907628 2.24056e-19)
(0.922032 0.875638 1.03919e-21)
(0.839799 0.838611 -9.25894e-21)
(0.745012 0.792999 -1.19647e-20)
(0.649504 0.739432 4.43918e-19)
(0.569549 0.683469 0)
(0.506686 0.627142 4.54334e-19)
(0.459358 0.571203 3.40007e-19)
(0.428616 0.517254 8.6981e-19)
(0.409217 0.463855 2.66721e-19)
(0.386707 0.402771 -3.31075e-19)
(0.308881 0.295582 -1.9522e-19)
(0.148113 0.131474 0)
(0.0122814 0.00976955 5.30943e-19)
(0.2328 0.198453 -6.29358e-19)
(1.04549 0.893056 0)
(1.17042 1.01117 3.79595e-19)
(1.15049 1.01054 -4.02428e-19)
(1.10225 0.987915 3.68188e-19)
(1.04657 0.961832 5.28703e-19)
(0.983539 0.932915 -5.19879e-19)
(0.911621 0.900882 4.38054e-21)
(0.828932 0.864251 0)
(0.73256 0.819557 -2.40008e-19)
(0.63376 0.767093 -9.18762e-19)
(0.54901 0.711452 4.47567e-20)
(0.480599 0.654212 6.14953e-19)
(0.426502 0.596373 0)
(0.388316 0.537769 5.84201e-19)
(0.362427 0.474633 0)
(0.334598 0.395019 0)
(0.261535 0.264163 -2.18659e-19)
(0.129194 0.0975032 0)
(0.0260673 0.0126116 1.43661e-19)
(0.231384 0.204026 -6.85618e-19)
(1.036 0.916007 0)
(1.15888 1.03628 6.12472e-19)
(1.13913 1.03549 0)
(1.09139 1.01233 -1.99096e-19)
(1.03617 0.985817 0)
(0.973609 0.956634 -3.886e-20)
(0.901898 0.924721 -2.59523e-20)
(0.818915 0.888713 3.35563e-22)
(0.721151 0.845286 -2.35765e-19)
(0.619241 0.794504 2.40828e-20)
(0.529758 0.740065 3.68525e-19)
(0.455392 0.682784 5.93463e-19)
(0.393671 0.624217 8.47104e-20)
(0.345477 0.563705 4.53871e-19)
(0.30802 0.491058 0)
(0.262664 0.386094 7.21461e-19)
(0.189325 0.206207 -4.31298e-19)
(0.0734015 0.0864501 4.91862e-19)
(-0.0544341 0.376512 -5.8407e-19)
(0.229968 0.209309 5.57459e-19)
(1.02653 0.937403 8.97367e-19)
(1.14761 1.05983 0)
(1.12803 1.05895 8.64725e-21)
(1.0808 1.03548 5.39837e-19)
(1.02604 1.00873 -1.01916e-18)
(0.964014 0.979495 -2.29004e-19)
(0.892568 0.948008 0)
(0.809384 0.91301 -4.0996e-20)
(0.710333 0.87146 -7.3355e-21)
(0.605286 0.823155 0)
(0.510847 0.771034 0)
(0.43012 0.714661 5.18947e-19)
(0.36009 0.657036 -2.6325e-19)
(0.299114 0.599122 -4.49026e-19)
(0.244239 0.522363 0)
(0.151357 0.385329 3.58883e-19)
(0.0449175 0.466136 -4.26798e-19)
(0.0482435 1.70995 -2.27038e-19)
(0.0877803 2.71836 -2.98881e-19)
(0.228379 0.213763 -4.04157e-19)
(1.01732 0.957423 -1.12678e-18)
(1.13659 1.08181 3.50346e-19)
(1.11719 1.0808 3.38325e-19)
(1.07054 1.05718 0)
(1.01621 1.03032 -7.28263e-19)
(0.954901 1.00122 -3.83562e-19)
(0.883756 0.970341 1.75212e-20)
(0.800529 0.936645 -5.3378e-21)
(0.700396 0.897446 1.80452e-19)
(0.592438 0.852312 4.07417e-19)
(0.493163 0.803717 3.76847e-19)
(0.406057 0.749471 5.06659e-19)
(0.328058 0.692577 -5.96393e-19)
(0.255279 0.644414 -6.58006e-19)
(0.179416 0.573375 0)
(0.0879201 0.820383 0)
(0.14232 2.41243 1.868e-19)
(0.151496 3.14565 0)
(0.151792 3.36554 4.05072e-19)
(0.229656 0.218199 0)
(1.0088 0.976183 0)
(1.12557 1.10212 0)
(1.10638 1.10082 9.38557e-20)
(1.06032 1.07723 4.79382e-19)
(1.00646 1.05047 -5.54602e-19)
(0.946164 1.0217 -2.74454e-19)
(0.8754 0.99161 1.99944e-20)
(0.792298 0.959466 -1.12864e-19)
(0.691346 0.923061 -1.97959e-20)
(0.58083 0.881852 7.33968e-19)
(0.477054 0.837817 -4.3951e-20)
(0.383504 0.787418 5.65725e-20)
(0.298975 0.728634 8.41248e-20)
(0.222633 0.694694 3.76272e-21)
(0.149361 0.926276 3.20251e-21)
(0.192158 2.5232 -8.96155e-19)
(0.219845 3.25939 -3.39748e-19)
(0.20094 3.4234 1.52791e-19)
(0.180284 3.45211 -1.55097e-19)
(0.146989 0.169991 2.21533e-19)
(0.993505 0.996762 0)
(1.11445 1.12091 -6.85581e-19)
(1.0963 1.11962 -8.76397e-19)
(1.05073 1.09629 9.98907e-19)
(0.99754 1.0697 5.89379e-19)
(0.937667 1.04102 3.17318e-19)
(0.867556 1.0119 -3.41637e-19)
(0.784805 0.981587 1.23119e-19)
(0.683479 0.948305 0)
(0.571023 0.911471 3.13601e-19)
(0.463471 0.872438 -2.779e-19)
(0.363718 0.82898 0)
(0.273329 0.770121 7.17839e-20)
(0.212444 0.86717 1.71313e-19)
(0.191822 2.12549 -2.14882e-19)
(0.292532 3.29133 2.33109e-19)
(0.270568 3.44634 1.10645e-19)
(0.226583 3.47636 1.24868e-19)
(0.197109 3.48941 1.46535e-19)
(0.266237 0.251001 -3.97998e-19)
(0.97265 0.999126 0)
(1.09371 1.13985 6.88495e-19)
(1.08225 1.14737 8.91754e-19)
(1.03563 1.12383 -1.01642e-18)
(0.983067 1.09779 -6.21275e-19)
(0.923813 1.07055 -4.92637e-19)
(0.854556 1.04304 -2.55735e-20)
(0.772134 1.01588 -1.84802e-19)
(0.669791 0.988181 2.30498e-20)
(0.553763 0.959951 1.23199e-20)
(0.439777 0.930921 2.14169e-19)
(0.3297 0.902166 4.57702e-20)
(0.25168 0.990912 -6.44739e-20)
(0.295969 2.05981 -1.47572e-19)
(0.374829 3.28462 9.22803e-20)
(0.367752 3.4875 -7.52836e-20)
(0.321838 3.51805 -4.17793e-20)
(0.276039 3.55259 3.41108e-20)
(0.210183 3.54289 9.86381e-22)
(0.253223 0.246423 0)
(0.967426 1.0172 1.80525e-19)
(1.08464 1.15919 -1.37008e-19)
(1.07195 1.16636 -9.97317e-20)
(1.02604 1.14289 -6.6909e-19)
(0.974223 1.117 6.07967e-19)
(0.915531 1.09002 3.32396e-19)
(0.847234 1.06359 -2.69648e-20)
(0.76569 1.03857 2.31397e-19)
(0.663691 1.01482 -2.734e-20)
(0.546699 0.992733 -4.05767e-19)
(0.430256 0.971426 3.02334e-20)
(0.321002 0.963084 -3.93644e-20)
(0.30034 1.35396 -5.22665e-20)
(0.414378 2.9075 3.77418e-20)
(0.464277 3.47085 1.54659e-21)
(0.410442 3.56288 -1.31395e-19)
(0.367289 3.59199 -1.46126e-19)
(0.300795 3.62296 1.86445e-19)
(0.227395 3.61511 6.62819e-20)
(0.235523 0.242079 4.40584e-19)
(0.960012 1.03728 1.2215e-18)
(1.07475 1.17983 -3.9186e-19)
(1.0611 1.18642 -3.79497e-19)
(1.01596 1.16275 0)
(0.964978 1.1368 8.90841e-19)
(0.90721 1.11011 5.07893e-19)
(0.840243 1.08477 -2.84891e-20)
(0.760027 1.06203 2.39584e-20)
(0.659003 1.0425 1.07145e-19)
(0.541878 1.02696 -1.24091e-19)
(0.424935 1.01452 -2.05091e-19)
(0.329512 1.05458 -2.55431e-19)
(0.387085 1.88429 2.69879e-19)
(0.522508 3.31151 9.53024e-20)
(0.533203 3.55374 0)
(0.466041 3.61621 0)
(0.417712 3.67658 1.80563e-19)
(0.333468 3.74468 0)
(0.242978 3.71425 3.46081e-19)
(0.222726 0.241049 -6.4438e-19)
(0.950439 1.0578 -1.01994e-18)
(1.06323 1.20113 0)
(1.04897 1.20689 9.36818e-21)
(1.00471 1.18273 -6.5325e-19)
(0.954746 1.15658 1.3252e-18)
(0.898304 1.13015 3.42045e-19)
(0.833004 1.10582 -3.5592e-20)
(0.754494 1.08529 2.63746e-19)
(0.654978 1.07005 -1.30736e-20)
(0.53845 1.06128 0)
(0.422657 1.0589 0)
(0.358464 1.20788 -1.86187e-19)
(0.496807 2.48157 5.04808e-20)
(0.623484 3.4764 -4.95867e-20)
(0.594729 3.60414 0)
(0.545446 3.67586 4.22359e-19)
(0.478106 3.77386 -6.38545e-19)
(0.42186 3.79939 -5.18845e-19)