/*--------------------------------*- C++ -*----------------------------------*\
  =========                 |
  \\      /  F ield         | OpenFOAM: The Open Source CFD Toolbox
   \\    /   O peration     | Website:  https://openfoam.org
    \\  /    A nd           | Version:  9
     \\/     M anipulation  |
\*---------------------------------------------------------------------------*/
FoamFile
{
    format      ascii;
    class       volScalarField;
    location    "48";
    object      p;
}
// * * * * * * * * * * * * * * * * * * * * * * * * * * * * * * * * * * * * * //

dimensions      [0 2 -2 0 0 0 0];

internalField   nonuniform List<scalar> 
2200
(
0.776348
0.754848
0.73894
0.723271
0.708657
0.696131
0.685769
0.677656
0.671942
0.668971
0.669417
0.673204
0.67953
0.68808
0.698755
0.71151
0.726289
0.742184
0.758212
0.779714
0.708788
0.70553
0.702603
0.69848
0.693013
0.686534
0.679908
0.673943
0.669426
0.667013
0.667479
0.670755
0.675906
0.682342
0.689309
0.696051
0.701708
0.705823
0.708693
0.712042
0.668875
0.669094
0.67115
0.672493
0.672882
0.672024
0.670036
0.667348
0.664787
0.663277
0.663807
0.666228
0.669478
0.672682
0.675008
0.676012
0.675729
0.674704
0.673026
0.672781
0.646399
0.647848
0.650444
0.652896
0.655328
0.657338
0.658484
0.658702
0.658311
0.657993
0.658593
0.659939
0.661122
0.661492
0.660793
0.659114
0.656948
0.654729
0.652115
0.650709
0.632077
0.63405
0.636862
0.639687
0.642538
0.645355
0.647798
0.649639
0.650844
0.651618
0.652313
0.652745
0.652476
0.651344
0.649465
0.647081
0.644528
0.641809
0.63902
0.637092
0.624748
0.626347
0.628545
0.631069
0.633732
0.63639
0.638969
0.641367
0.643359
0.644834
0.645648
0.645627
0.644755
0.643218
0.641289
0.639125
0.636784
0.634437
0.632338
0.630762
0.621362
0.622386
0.623652
0.62551
0.62764
0.62979
0.631963
0.634232
0.636422
0.638226
0.639206
0.639174
0.638354
0.637108
0.635687
0.634096
0.632384
0.630797
0.629672
0.628656
0.618721
0.619388
0.620019
0.621319
0.622931
0.624607
0.626337
0.628227
0.630236
0.632138
0.633319
0.63356
0.633201
0.632548
0.631748
0.630778
0.629692
0.628751
0.628297
0.627621
0.615556
0.616002
0.616393
0.617379
0.618627
0.619994
0.621467
0.623096
0.624896
0.626789
0.628228
0.628951
0.629149
0.629046
0.628713
0.628206
0.627595
0.627033
0.626834
0.626371
0.611594
0.611894
0.612252
0.613114
0.61421
0.615458
0.616865
0.618438
0.620189
0.622139
0.623902
0.625128
0.625818
0.626119
0.626143
0.625941
0.62559
0.625228
0.625084
0.624763
0.606934
0.607135
0.607502
0.60833
0.609423
0.610728
0.612233
0.613923
0.615824
0.617975
0.62013
0.621817
0.622917
0.623525
0.623772
0.623794
0.623622
0.623401
0.623275
0.623042
0.601833
0.601978
0.60235
0.603157
0.604293
0.60571
0.607405
0.609368
0.611599
0.614149
0.616806
0.618978
0.620421
0.621277
0.621698
0.621861
0.621851
0.62176
0.621665
0.621484
0.59637
0.596479
0.596855
0.59767
0.598883
0.600465
0.602404
0.604716
0.607441
0.610597
0.613838
0.616448
0.618226
0.619345
0.620002
0.620338
0.620514
0.62055
0.620496
0.620341
0.590497
0.590565
0.590944
0.591791
0.593132
0.594906
0.597116
0.599815
0.603076
0.606922
0.610907
0.614111
0.616299
0.617791
0.618786
0.61939
0.619772
0.619931
0.619917
0.619773
0.584121
0.58416
0.584574
0.585474
0.586931
0.588891
0.591381
0.59449
0.598347
0.602987
0.607822
0.611848
0.614718
0.61671
0.618119
0.61907
0.619661
0.619954
0.619987
0.619851
0.577225
0.577185
0.577594
0.578575
0.580245
0.582441
0.585244
0.588835
0.593416
0.599025
0.604949
0.609903
0.613564
0.616198
0.618116
0.619464
0.620325
0.620773
0.620853
0.620718
0.569474
0.569452
0.569903
0.571024
0.572903
0.575412
0.578677
0.582891
0.588289
0.595003
0.602225
0.60835
0.612969
0.616394
0.618891
0.62066
0.621818
0.622425
0.622563
0.622422
0.560746
0.560771
0.56118
0.562369
0.564601
0.567571
0.571448
0.576448
0.582863
0.590919
0.599722
0.607357
0.613102
0.617389
0.620562
0.622801
0.624275
0.625042
0.625236
0.625086
0.550604
0.550576
0.551119
0.552546
0.555097
0.558625
0.563334
0.569438
0.577246
0.587037
0.59774
0.607008
0.614096
0.619341
0.623192
0.625971
0.627812
0.628748
0.628992
0.628825
0.53858
0.538508
0.539177
0.541005
0.54412
0.548437
0.554259
0.561855
0.571606
0.583679
0.596597
0.607584
0.615953
0.622271
0.62695
0.630311
0.632534
0.633644
0.633937
0.633756
0.524341
0.524222
0.524983
0.527207
0.531116
0.536556
0.543864
0.553378
0.565512
0.580308
0.595809
0.608885
0.618787
0.626298
0.631888
0.63597
0.638622
0.639909
0.640248
0.640042
0.507016
0.506921
0.507901
0.510634
0.515486
0.522336
0.531544
0.543417
0.558357
0.576344
0.595018
0.610699
0.622517
0.631438
0.638162
0.643004
0.646132
0.64762
0.648005
0.647765
0.485582
0.485418
0.486704
0.490222
0.496457
0.5053
0.517061
0.532048
0.550482
0.572224
0.594527
0.613128
0.627172
0.637775
0.645726
0.651517
0.655199
0.656875
0.657283
0.656993
0.457792
0.457797
0.45984
0.464745
0.473213
0.485122
0.500657
0.519876
0.542767
0.568998
0.595285
0.61691
0.633148
0.645446
0.654738
0.661505
0.665705
0.667544
0.667938
0.66759
0.42069
0.420925
0.424437
0.432256
0.444741
0.461603
0.482427
0.507112
0.535425
0.566816
0.597388
0.622142
0.640658
0.654656
0.665262
0.672927
0.677526
0.679428
0.679766
0.679361
0.371056
0.371453
0.378398
0.391443
0.410333
0.434336
0.462177
0.493502
0.528038
0.565193
0.600485
0.628533
0.649366
0.665162
0.677125
0.685588
0.690378
0.692132
0.692286
0.691916
0.30528
0.308087
0.323163
0.344389
0.372091
0.404871
0.440759
0.479492
0.520927
0.564495
0.605031
0.63707
0.661038
0.679229
0.692952
0.702694
0.707891
0.709496
0.709476
0.709301
0.230322
0.239758
0.264818
0.295837
0.333602
0.37538
0.419378
0.465748
0.514401
0.564717
0.611413
0.64832
0.675891
0.696943
0.713045
0.724199
0.72977
0.731047
0.730955
0.73095
0.163243
0.178038
0.20942
0.249174
0.296397
0.347008
0.399046
0.453194
0.509255
0.566539
0.619033
0.660182
0.690977
0.714497
0.73217
0.744473
0.750473
0.751739
0.752107
0.752103
0.112014
0.125243
0.162027
0.207972
0.262543
0.320634
0.380087
0.441555
0.50452
0.568214
0.625811
0.671211
0.705074
0.73078
0.75023
0.76367
0.770108
0.772043
0.772245
0.772305
0.0698147
0.0822932
0.122709
0.172609
0.232665
0.296728
0.362596
0.43048
0.499631
0.569299
0.6326
0.681706
0.717996
0.745836
0.76667
0.78091
0.788036
0.790369
0.790576
0.790676
0.033528
0.046301
0.0894882
0.142217
0.206497
0.275284
0.346534
0.420046
0.495041
0.570596
0.6387
0.690989
0.729917
0.759171
0.781202
0.796085
0.803496
0.806084
0.806373
0.806472
0.00186057
0.0148204
0.0601149
0.115423
0.183263
0.255987
0.331844
0.410297
0.490377
0.570824
0.642989
0.699018
0.739855
0.770537
0.793254
0.808618
0.816543
0.819307
0.819731
0.819805
-0.0265436
-0.0134734
0.0333953
0.0911493
0.162175
0.238324
0.318147
0.400815
0.485282
0.570518
0.647457
0.706056
0.748485
0.780102
0.80332
0.819137
0.827248
0.830312
0.830813
0.83087
-0.0525519
-0.039417
0.00867785
0.0687785
0.14257
0.221703
0.304947
0.391314
0.479961
0.569764
0.650303
0.711389
0.755785
0.788323
0.811975
0.827945
0.836525
0.839699
0.840279
0.840297
-0.0769603
-0.0635383
-0.0144969
0.0477926
0.123983
0.205731
0.291995
0.381736
0.474212
0.567868
0.652145
0.716581
0.762275
0.795573
0.819755
0.835765
0.844377
0.847724
0.848241
0.848181
-0.0999316
-0.0863196
-0.0364056
0.0277954
0.106051
0.19016
0.279169
0.371904
0.467681
0.565097
0.653603
0.720724
0.768089
0.802518
0.826811
0.842744
0.85128
0.854512
0.855102
0.854942
-0.12166
-0.107977
-0.0572987
0.00852828
0.0885989
0.174847
0.266289
0.361647
0.460456
0.561624
0.653955
0.724145
0.773838
0.808915
0.833417
0.849219
0.857452
0.860637
0.861167
0.861081
-0.142501
-0.128654
-0.0773618
-0.0101543
0.0714901
0.159635
0.253221
0.350969
0.452636
0.557292
0.653537
0.727382
0.779296
0.815453
0.839942
0.855342
0.863418
0.866334
0.866849
0.866748
-0.162849
-0.148528
-0.0967656
-0.0283636
0.054643
0.144466
0.239981
0.339948
0.444271
0.552177
0.652374
0.729941
0.784446
0.822116
0.846805
0.861735
0.869144
0.871774
0.872151
0.872057
-0.182837
-0.167802
-0.115604
-0.04614
0.0380371
0.129345
0.226613
0.328606
0.435348
0.546308
0.650362
0.731775
0.789551
0.829282
0.854423
0.868555
0.875107
0.876896
0.87713
0.877015
-0.202371
-0.18659
-0.133942
-0.0634965
0.0217068
0.114319
0.213135
0.316934
0.425849
0.539599
0.647242
0.732692
0.794351
0.836861
0.863184
0.876486
0.88132
0.881704
0.88159
0.881486
-0.221337
-0.204944
-0.151785
-0.080414
0.00568973
0.0994187
0.199558
0.304942
0.415813
0.532082
0.643123
0.732786
0.798678
0.844952
0.873533
0.886242
0.888816
0.886239
0.885687
0.886514
-0.239666
-0.222816
-0.169124
-0.0968831
-0.00998082
0.08469
0.185937
0.29271
0.405369
0.523817
0.637699
0.731491
0.802247
0.853132
0.885548
0.899185
0.899324
0.892666
0.887515
0.886014
-0.257352
-0.240143
-0.185911
-0.112873
-0.0252681
0.0701918
0.172363
0.280332
0.394533
0.514788
0.63111
0.728833
0.804358
0.861114
0.899044
0.916212
0.917637
0.905554
0.904194
0.908451
-0.274382
-0.256838
-0.202095
-0.128346
-0.0401199
0.0560045
0.158935
0.267878
0.383322
0.505138
0.623497
0.72433
0.804771
0.867793
0.912976
0.937035
0.942435
0.913961
0.873104
0.836777
-0.290714
-0.272913
-0.217693
-0.143355
-0.0546253
0.0420127
0.145503
0.255145
0.371499
0.494591
0.614627
0.717803
0.802385
0.872044
0.926246
0.960566
0.980964
0.964472
0.981329
1.03896
-0.306294
-0.288389
-0.23279
-0.158034
-0.0689591
0.0279916
0.131787
0.241804
0.358686
0.482653
0.603834
0.708432
0.796144
0.871047
0.930526
0.969128
0.982857
0.963147
0.922819
0.936969
-0.321105
-0.303256
-0.247333
-0.172318
-0.0830432
0.0140315
0.117904
0.228018
0.34507
0.469385
0.591034
0.696208
0.784214
0.860292
0.920141
0.957772
0.947788
0.895421
0.832086
0.820003
-0.335127
-0.317493
-0.261328
-0.186217
-0.0968813
0.000133954
0.10388
0.213838
0.330697
0.454792
0.576163
0.680606
0.766432
0.837767
0.891654
0.902049
0.868299
0.792615
0.718667
0.697349
-0.348405
-0.331111
-0.274788
-0.19975
-0.110497
-0.0137106
0.0897278
0.199288
0.315579
0.438858
0.559199
0.661515
0.741724
0.801168
0.830479
0.818824
0.762743
0.66193
0.575094
0.55356
-0.361395
-0.344503
-0.288118
-0.213296
-0.124245
-0.0278087
0.0751831
0.184134
0.299512
0.421441
0.539894
0.638355
0.711179
0.754947
0.750275
0.716336
0.607072
0.485459
0.378614
0.352047
-0.374997
-0.358492
-0.302017
-0.227475
-0.1387
-0.042647
0.0598251
0.16802
0.282242
0.402346
0.517916
0.610894
0.676521
0.696367
0.662928
0.576437
0.421412
0.269487
0.140837
0.113725
-0.389728
-0.373452
-0.316817
-0.242536
-0.154044
-0.0583588
0.0435568
0.150892
0.263758
0.381544
0.493138
0.580087
0.634964
0.62709
0.574644
0.426141
0.22703
0.0150246
-0.16462
-0.212577
-0.405706
-0.389516
-0.332561
-0.258487
-0.170258
-0.0749257
0.026395
0.132778
0.244126
0.359192
0.465701
0.547259
0.587085
0.547766
0.460991
0.273756
0.0429265
-0.245434
-0.566616
-0.713887
-0.422996
-0.406723
-0.349383
-0.275432
-0.187399
-0.092414
0.00827382
0.113621
0.223287
0.335279
0.43591
0.511405
0.533828
0.463939
0.328253
0.122953
-0.111013
-0.454833
-1.04215
-1.61441
-0.441686
-0.425231
-0.367334
-0.293414
-0.205493
-0.110819
-0.0107698
0.0934965
0.20139
0.310238
0.404934
0.472575
0.476867
0.390276
0.199827
-0.0340171
-0.23692
-0.47198
-1.02897
-2.54845
-0.461784
-0.445027
-0.386537
-0.312581
-0.224696
-0.130338
-0.0309733
0.0721305
0.1781
0.283631
0.372475
0.430764
0.4154
0.332556
0.106589
-0.131787
-0.279963
-0.317559
-0.308119
-0.696963
-0.483236
-0.466401
-0.407138
-0.333208
-0.245415
-0.151465
-0.0529526
0.0487594
0.152485
0.254114
0.337518
0.385429
0.354658
0.284031
0.0572204
-0.145909
-0.257019
-0.26505
-0.21193
-0.252392
-0.505851
-0.489065
-0.429161
-0.355383
-0.267721
-0.174329
-0.0768695
0.023219
0.124357
0.221502
0.300287
0.338424
0.301073
0.231327
0.0252037
-0.136227
-0.218617
-0.22632
-0.274167
-0.278641
-0.529689
-0.512959
-0.452474
-0.379076
-0.291611
-0.198943
-0.102753
-0.00454726
0.0936938
0.186177
0.26041
0.289139
0.254239
0.171218
-0.00267301
-0.126719
-0.197051
-0.173032
-0.193918
-0.195479
-0.554428
-0.537537
-0.477035
-0.404215
-0.316923
-0.225238
-0.130535
-0.0344253
0.0606376
0.14861
0.218347
0.23648
0.213406
0.103738
-0.0375666
-0.121495
-0.161464
-0.207518
-0.183009
-0.191317
-0.579852
-0.562545
-0.50263
-0.430573
-0.343452
-0.25304
-0.160001
-0.0661976
0.0253108
0.109097
0.174673
0.182925
0.171014
0.0430047
-0.0745671
-0.13937
-0.118543
-0.178034
-0.1585
-0.163295
-0.605043
-0.587513
-0.52914
-0.457785
-0.370832
-0.282114
-0.19088
-0.0995148
-0.0120341
0.0679965
0.130745
0.131459
0.120138
-0.00911847
-0.102251
-0.154403
-0.141586
-0.158407
-0.163643
-0.162039
-0.629614
-0.612225
-0.555704
-0.485103
-0.398776
-0.312066
-0.222727
-0.133951
-0.050858
0.0255807
0.0868802
0.0837545
0.0638418
-0.0529577
-0.118019
-0.149468
-0.18558
-0.159349
-0.166195
-0.161001
-0.652556
-0.635898
-0.581318
-0.511713
-0.426852
-0.34235
-0.255037
-0.168971
-0.0902698
-0.0177794
0.0428794
0.0396736
0.0089545
-0.0904301
-0.135391
-0.126026
-0.194939
-0.144867
-0.158943
-0.151916
-0.673189
-0.657639
-0.60494
-0.536648
-0.454653
-0.37215
-0.287085
-0.203897
-0.129257
-0.0615673
-0.00152983
-0.00190469
-0.0386684
-0.109349
-0.148768
-0.112519
-0.15681
-0.1348
-0.140145
-0.137502
-0.689963
-0.676035
-0.625904
-0.559473
-0.480947
-0.400468
-0.318069
-0.237958
-0.166809
-0.104889
-0.0461768
-0.0428464
-0.0755275
-0.1125
-0.142708
-0.124048
-0.134877
-0.134707
-0.133008
-0.132776
-0.70201
-0.690151
-0.643095
-0.579193
-0.504319
-0.426368
-0.346959
-0.27013
-0.202043
-0.146459
-0.0892572
-0.0824331
-0.111439
-0.106819
-0.119378
-0.138829
-0.126224
-0.139286
-0.135052
-0.13544
-0.707954
-0.69848
-0.655529
-0.594701
-0.52334
-0.448655
-0.372635
-0.299254
-0.234015
-0.184205
-0.128839
-0.120949
-0.157176
-0.119518
-0.0589973
-0.0998622
-0.0976796
-0.13212
-0.142443
-0.14529
-0.707659
-0.700299
-0.661485
-0.604329
-0.536912
-0.466021
-0.393699
-0.32384
-0.261671
-0.215927
-0.163409
-0.157992
-0.210415
-0.192736
-0.0835678
-0.111705
-0.135622
-0.157646
-0.164092
-0.165805
-0.700163
-0.692905
-0.65926
-0.607009
-0.544061
-0.477317
-0.40888
-0.342218
-0.282686
-0.23905
-0.191933
-0.195983
-0.279787
-0.403242
-0.513917
-0.597014
-0.606111
-0.558964
-0.518779
-0.491088
-0.680848
-0.67277
-0.646466
-0.60109
-0.543706
-0.481561
-0.417029
-0.352835
-0.29408
-0.25073
-0.207662
-0.209648
-0.347003
-0.622112
-1.00325
-1.1989
-1.20169
-1.1599
-1.06279
-0.983495
-0.641336
-0.633782
-0.621824
-0.587092
-0.536168
-0.478615
-0.417795
-0.354571
-0.293454
-0.245675
-0.203807
-0.175534
-0.268725
-0.450382
-0.679405
-0.752313
-0.682986
-0.599486
-0.522996
-0.474496
-0.597444
-0.594037
-0.592226
-0.565472
-0.522457
-0.469768
-0.411181
-0.347369
-0.280035
-0.21897
-0.164254
-0.0719934
0.0389245
0.228576
0.394608
0.56798
0.713893
0.807611
0.860692
0.913319
-0.572152
-0.572995
-0.565259
-0.545908
-0.508699
-0.458267
-0.399069
-0.333026
-0.256811
-0.17269
-0.0853856
0.067103
0.306056
0.684715
1.05699
1.35566
1.55754
1.6744
1.72913
1.74397
-0.540499
-0.541415
-0.535982
-0.527955
-0.495656
-0.446923
-0.385654
-0.316023
-0.232578
-0.132069
-0.0223643
0.125902
0.389768
0.745507
1.09784
1.39003
1.59869
1.72028
1.77464
1.7917
-0.514352
-0.513342
-0.513862
-0.509647
-0.484139
-0.438023
-0.374972
-0.300547
-0.213505
-0.107096
0.00773254
0.120768
0.358921
0.660556
0.958113
1.21508
1.4141
1.53436
1.58802
1.60335
-0.496929
-0.494585
-0.496186
-0.490262
-0.474622
-0.432152
-0.367411
-0.289722
-0.202329
-0.0992552
0.00961843
0.0873488
0.280555
0.533833
0.774197
0.981456
1.14777
1.24917
1.2936
1.3048
-0.488966
-0.486674
-0.485967
-0.483543
-0.474407
-0.428158
-0.361254
-0.282745
-0.198349
-0.105901
-0.0037208
0.0541794
0.198715
0.408049
0.597729
0.754459
0.880074
0.958597
0.992917
1.0019
-0.495774
-0.495264
-0.496102
-0.503084
-0.488872
-0.429172
-0.356865
-0.277404
-0.196314
-0.116795
-0.0210619
0.0280678
0.127747
0.294103
0.442086
0.558529
0.649926
0.709172
0.734592
0.739811
-0.49582
-0.497697
-0.504271
-0.508574
-0.486163
-0.422324
-0.347657
-0.268582
-0.191267
-0.124508
-0.0364649
0.00917718
0.0724505
0.200202
0.31424
0.400723
0.467028
0.509964
0.527466
0.533253
-0.449772
-0.451775
-0.462618
-0.463894
-0.441419
-0.385783
-0.320336
-0.249499
-0.17922
-0.124325
-0.047206
-0.00444324
0.0349525
0.132269
0.216756
0.278753
0.327856
0.360153
0.373482
0.37791
-0.34444
-0.348807
-0.353714
-0.356101
-0.341266
-0.306879
-0.263689
-0.213392
-0.156732
-0.114006
-0.0518163
-0.0144345
0.0113045
0.0869057
0.147653
0.190044
0.22708
0.251045
0.26062
0.262945
-0.219552
-0.221851
-0.224586
-0.227036
-0.221292
-0.208007
-0.18877
-0.161719
-0.125645
-0.0948488
-0.0503816
-0.0197971
-0.000957435
0.0565053
0.0993929
0.128846
0.152432
0.167132
0.173616
0.17515
-0.111577
-0.112837
-0.115
-0.118851
-0.120896
-0.121408
-0.118291
-0.108504
-0.0909063
-0.0723801
-0.0444574
-0.0221577
-0.00650844
0.0358156
0.0642942
0.0836136
0.0970383
0.104081
0.106259
0.106225
-0.0337687
-0.0346994
-0.0365322
-0.0416067
-0.0497849
-0.0582237
-0.0635191
-0.0642417
-0.059108
-0.0512183
-0.0358287
-0.0209796
-0.00904087
0.0192035
0.0373435
0.0485173
0.0550364
0.0573537
0.0566798
0.0555745
0.012092
0.0114939
0.00989372
0.00438676
-0.00565332
-0.0171795
-0.026678
-0.0328902
-0.034478
-0.0340001
-0.0264548
-0.0175667
-0.00958882
0.00584902
0.0158404
0.0216142
0.0242372
0.0236374
0.0219085
0.020489
0.0349803
0.0344377
0.0329338
0.0277053
0.0180242
0.00626043
-0.00457062
-0.0131708
-0.0180115
-0.0216115
-0.0181903
-0.0140478
-0.0105562
-0.00379337
0.000148865
0.00188862
0.00231552
0.000796246
-0.00127926
-0.00274222
0.0433771
0.0429538
0.04171
0.0373039
0.028965
0.0184105
0.00777085
-0.00159171
-0.00788139
-0.0131326
-0.0120963
-0.0112101
-0.0111022
-0.00919143
-0.00882685
-0.00897071
-0.0101157
-0.0122041
-0.0141666
-0.0156337
0.043576
0.0432732
0.0423184
0.0389316
0.0324467
0.0238846
0.0145938
0.00551569
-0.00116752
-0.00726196
-0.00774421
-0.00944435
-0.0117553
-0.0110236
-0.0120031
-0.013134
-0.0153706
-0.0181021
-0.0199903
-0.021279
0.0397534
0.0395426
0.0388413
0.036366
0.0316011
0.0251599
0.0177712
0.00984798
0.00377122
-0.00299599
-0.00481261
-0.00709444
-0.0105423
-0.0109571
-0.0122925
-0.0144601
-0.0168848
-0.0190165
-0.0204778
-0.0216099
0.0343073
0.0341685
0.0336571
0.0319414
0.0285706
0.0238845
0.0182982
0.0118285
0.00675626
-0.000137894
-0.00292682
-0.00527457
-0.00798577
-0.00873853
-0.0104387
-0.0126117
-0.0147353
-0.0163715
-0.0173752
-0.0183814
0.0285578
0.0284486
0.0280752
0.0268681
0.0244732
0.0210848
0.0168542
0.011761
0.00786534
0.00169273
-0.00124462
-0.00363338
-0.00613676
-0.00651908
-0.00797608
-0.009813
-0.0114526
-0.0126818
-0.0132619
-0.0140742
0.0233173
0.0232278
0.0229545
0.0221049
0.0204211
0.017955
0.0147155
0.0106454
0.0077056
0.00264338
3.63821e-05
-0.00184835
-0.00403321
-0.00449887
-0.00574195
-0.00703585
-0.00816947
-0.00892642
-0.00915322
-0.00982353
0.0187569
0.0186831
0.0184799
0.0178981
0.0167712
0.0150023
0.0126792
0.00954257
0.00724639
0.0030377
0.00109261
-0.00107203
-0.00292207
-0.00243707
-0.00334044
-0.00398551
-0.00440826
-0.00462669
-0.00461578
-0.00524695
0.0150179
0.0149612
0.0148204
0.0144186
0.0136086
0.0123366
0.0106597
0.00826778
0.00661652
0.00322182
0.00155911
-0.000596418
-0.00224315
-0.00148565
-0.00110835
-0.000704163
-0.000524013
-0.000464367
-0.000348963
-0.000948199
0.0117343
0.011702
0.0116217
0.0114033
0.0108848
0.00997415
0.00879967
0.00701816
0.00585045
0.00318177
0.00169139
0.000100741
-0.00112404
-0.000665773
0.000296169
0.00116518
0.00174936
0.00194078
0.00201218
0.00146519
0.00864441
0.0085863
0.00850372
0.00837746
0.00804405
0.0074811
0.00673343
0.00543586
0.00472662
0.00277197
0.00210915
0.000756213
-0.000243182
0.000375541
0.00105193
0.00189051
0.00279208
0.00324054
0.00339332
0.00281149
0.00591288
0.00586667
0.00580712
0.0057603
0.00555759
0.00522891
0.00472009
0.00379125
0.00355357
0.00220169
0.00224958
0.00130098
0.000752144
0.00104341
0.00151505
0.00225653
0.00307891
0.00360042
0.00375131
0.00312125
0.00351473
0.00347024
0.00343804
0.0034209
0.0033081
0.00313985
0.00281559
0.0022182
0.00226292
0.00132314
0.00190893
0.00157986
0.0015333
0.00163792
0.0014212
0.00171516
0.00236719
0.00277127
0.00302597
0.00251781
0.00148727
0.00145041
0.00141876
0.0013482
0.00120578
0.0011595
0.00109454
0.00074476
0.000994506
0.000369346
0.00122259
0.00152556
0.0015204
0.00161044
0.000471817
-0.000564579
-0.00135006
-0.00205167
-0.00176654
-0.00186285
-1.07693
-0.235015
0.0351013
0.312054
0.494614
0.651645
0.779427
0.909589
1.05204
1.13351
-0.094668
0.31303
0.33032
0.519117
0.644014
0.756067
0.852621
0.938526
0.966139
0.923882
0.283851
0.498321
0.534191
0.67094
0.757508
0.837886
0.904152
0.953856
0.956076
0.970016
0.514351
0.657962
0.693269
0.795695
0.852692
0.910901
0.955911
0.988375
0.997504
1.02114
0.693107
0.795032
0.824798
0.892979
0.937425
0.978789
1.01105
1.03539
1.04522
1.07675
0.836939
0.906056
0.93644
0.979626
1.01583
1.04611
1.0705
1.09125
1.10542
1.13367
0.956463
1.00721
1.03284
1.06097
1.08875
1.11261
1.13262
1.15187
1.16678
1.19325
1.06048
1.09759
1.11874
1.13947
1.16034
1.17977
1.1972
1.2153
1.23018
1.25383
1.15465
1.18382
1.20019
1.2155
1.23165
1.24773
1.26328
1.28019
1.2938
1.31611
1.24303
1.26351
1.27839
1.29157
1.30514
1.31891
1.3324
1.34699
1.35854
1.37818
1.32853
1.34433
1.35815
1.36996
1.38186
1.39348
1.40462
1.4163
1.42398
1.44079
1.41377
1.42631
1.44001
1.45175
1.46238
1.47217
1.48099
1.48926
1.49282
1.50408
1.50249
1.5133
1.52677
1.5363
1.54387
1.55116
1.55835
1.56486
1.56593
1.57331
1.60088
1.60547
1.61367
1.61844
1.62184
1.62633
1.63232
1.64001
1.64389
1.65377
1.71418
1.70109
1.6938
1.68807
1.68535
1.6867
1.69307
1.70543
1.72024
1.7499
1.83619
1.78016
1.74913
1.73194
1.72372
1.72367
1.73247
1.75206
1.78392
1.85317
)
;

boundaryField
{
    wall-4
    {
        type            zeroGradient;
    }
    pressure-outlet-7
    {
        type            fixedValue;
        value           uniform 0;
    }
    velocity-inlet-6
    {
        type            zeroGradient;
    }
    velocity-inlet-5
    {
        type            zeroGradient;
    }
    frontAndBackPlanes
    {
        type            empty;
    }
}


// ************************************************************************* //
