/*--------------------------------*- C++ -*----------------------------------*\
  =========                 |
  \\      /  F ield         | OpenFOAM: The Open Source CFD Toolbox
   \\    /   O peration     | Website:  https://openfoam.org
    \\  /    A nd           | Version:  9
     \\/     M anipulation  |
\*---------------------------------------------------------------------------*/
FoamFile
{
    format      ascii;
    class       volVectorField;
    location    "48";
    object      U;
}
// * * * * * * * * * * * * * * * * * * * * * * * * * * * * * * * * * * * * * //

dimensions      [0 1 -1 0 0 0 0];

internalField   nonuniform List<vector> 
2200
(
(0.878832 -0.0304147 0)
(1.00578 -0.0512823 0)
(1.00327 -0.0354096 0)
(1.00022 -0.0244497 0)
(0.999821 -0.0166786 0)
(1.00001 -0.0107387 0)
(1.00002 -0.00687346 0)
(1.00002 -0.00423707 0)
(1.00001 -0.00226849 0)
(1.00017 -0.000732978 0)
(1.00003 0.000937414 0)
(0.999957 0.00246766 0)
(0.999991 0.00442188 0)
(1.00004 0.00701069 0)
(1.0001 0.0108712 0)
(0.999955 0.0166793 0)
(1.0003 0.0244134 0)
(1.00347 0.0349648 0)
(1.00595 0.0513654 0)
(0.879006 0.03032 0)
(0.712011 -0.0327633 0)
(0.99663 -0.0630212 0)
(1.03331 -0.0561505 0)
(1.02494 -0.0464193 0)
(1.01595 -0.0361144 0)
(1.00968 -0.0263902 0)
(1.00591 -0.018123 0)
(1.00375 -0.0114204 0)
(1.00256 -0.00603574 0)
(1.00204 -0.00152429 0)
(1.00208 0.00263818 0)
(1.00257 0.0070738 0)
(1.00368 0.0123143 0)
(1.00584 0.0189409 0)
(1.00945 0.0270845 0)
(1.01554 0.0368473 0)
(1.02463 0.0472961 0)
(1.03311 0.0577224 0)
(0.996674 0.0631478 0)
(0.711801 0.033001 0)
(0.53549 -0.0239004 0)
(0.969874 -0.0569545 0)
(1.05642 -0.0547647 0)
(1.0522 -0.0488075 0)
(1.03616 -0.0404808 0)
(1.02441 -0.0323315 0)
(1.01589 -0.0240766 0)
(1.01038 -0.0161759 0)
(1.00717 -0.0089181 0)
(1.0056 -0.00230594 0)
(1.00543 0.00403802 0)
(1.00688 0.0106102 0)
(1.01013 0.0177113 0)
(1.01553 0.0253747 0)
(1.02415 0.0333961 0)
(1.0362 0.0413843 0)
(1.05223 0.0494163 0)
(1.05635 0.0535366 0)
(0.969221 0.0576107 0)
(0.534412 0.0239346 0)
(0.392222 -0.0136539 0)
(0.911752 -0.046406 0)
(1.05745 -0.0469314 0)
(1.06953 -0.0443049 0)
(1.05488 -0.0381722 0)
(1.03931 -0.031527 0)
(1.02752 -0.0247537 0)
(1.01903 -0.0175539 0)
(1.01366 -0.0100598 0)
(1.01107 -0.0024473 0)
(1.01106 0.00511578 0)
(1.01352 0.0125156 0)
(1.01855 0.0197636 0)
(1.02682 0.0266489 0)
(1.03846 0.0330387 0)
(1.05389 0.0394183 0)
(1.06818 0.0454756 0)
(1.05565 0.0482011 0)
(0.910026 0.0469261 0)
(0.390064 0.0137659 0)
(0.307557 -0.00451709 0)
(0.846592 -0.0324042 0)
(1.04937 -0.0399816 0)
(1.07948 -0.0383121 0)
(1.06813 -0.0336608 0)
(1.05161 -0.0280078 0)
(1.0383 -0.0226386 0)
(1.02813 -0.0166126 0)
(1.0211 -0.00976313 0)
(1.0172 -0.00219081 0)
(1.01682 0.00562216 0)
(1.02033 0.0130199 0)
(1.02721 0.0194768 0)
(1.03717 0.0251233 0)
(1.05029 0.0301569 0)
(1.06683 0.0355576 0)
(1.07793 0.0399209 0)
(1.04742 0.0415789 0)
(0.843207 0.0329172 0)
(0.304023 0.00470991 0)
(0.264082 9.44533e-05 0)
(0.788742 -0.0201117 0)
(1.03305 -0.0315161 0)
(1.08337 -0.0320849 0)
(1.07728 -0.0288311 0)
(1.06082 -0.0239671 0)
(1.04709 -0.0194796 0)
(1.03623 -0.0144037 0)
(1.02843 -0.00837285 0)
(1.02404 -0.00136299 0)
(1.02389 0.00599472 0)
(1.02774 0.0126639 0)
(1.03485 0.0182653 0)
(1.04531 0.0229368 0)
(1.0588 0.0269446 0)
(1.07495 0.0313555 0)
(1.08045 0.0341231 0)
(1.02934 0.033218 0)
(0.783015 0.0207148 0)
(0.259155 0.000105777 0)
(0.240074 0.00106048 0)
(0.738073 -0.0123249 0)
(1.01372 -0.0251058 0)
(1.08405 -0.0269298 0)
(1.08286 -0.0246459 0)
(1.06769 -0.0205458 0)
(1.05417 -0.0165546 0)
(1.04331 -0.0120475 0)
(1.0352 -0.00667289 0)
(1.03026 -0.000401844 0)
(1.0296 0.00628507 0)
(1.03362 0.0121504 0)
(1.04135 0.0169734 0)
(1.05177 0.0208847 0)
(1.06498 0.0243583 0)
(1.07982 0.0278512 0)
(1.08034 0.029473 0)
(1.00805 0.027052 0)
(0.729579 0.0130801 0)
(0.233615 -0.000855298 0)
(0.225614 0.000943178 0)
(0.694787 -0.00808756 0)
(0.992348 -0.0208537 0)
(1.0818 -0.0232951 0)
(1.08674 -0.0215137 0)
(1.07329 -0.0179964 0)
(1.05983 -0.0142092 0)
(1.04923 -0.00987616 0)
(1.04126 -0.0049692 0)
(1.03641 0.000679655 0)
(1.03588 0.00664059 0)
(1.03959 0.0119422 0)
(1.04633 0.0161916 0)
(1.05633 0.0197694 0)
(1.06943 0.0227543 0)
(1.08209 0.0254991 0)
(1.07581 0.0265002 0)
(0.983741 0.0232205 0)
(0.682761 0.00905162 0)
(0.217319 -0.000729781 0)
(0.216033 0.000623948 0)
(0.6596 -0.00570562 0)
(0.972411 -0.017676 0)
(1.07933 -0.0202878 0)
(1.0899 -0.0187548 0)
(1.07792 -0.0157356 0)
(1.06465 -0.0121542 0)
(1.05424 -0.00808116 0)
(1.0464 -0.00324622 0)
(1.04142 0.00208303 0)
(1.04047 0.00745351 0)
(1.04387 0.0121096 0)
(1.05083 0.0159973 0)
(1.06028 0.0191704 0)
(1.07291 0.021932 0)
(1.08388 0.0240632 0)
(1.0718 0.0246744 0)
(0.960423 0.0207379 0)
(0.643188 0.00696452 0)
(0.205424 -0.000357585 0)
(0.208656 0.000284625 0)
(0.630418 -0.0042655 0)
(0.952639 -0.0152064 0)
(1.07568 -0.0181942 0)
(1.09291 -0.016905 0)
(1.08256 -0.0139196 0)
(1.06917 -0.0103928 0)
(1.05873 -0.00634543 0)
(1.05096 -0.00183768 0)
(1.04599 0.00308133 0)
(1.04479 0.00808309 0)
(1.04756 0.0125838 0)
(1.05352 0.0161623 0)
(1.06294 0.0190244 0)
(1.07568 0.0213934 0)
(1.08475 0.0233336 0)
(1.06431 0.0233035 0)
(0.935544 0.0187576 0)
(0.608592 0.00578133 0)
(0.195197 1.34519e-05 0)
(0.202806 6.68366e-05 0)
(0.607247 -0.00321593 0)
(0.935107 -0.012675 0)
(1.07289 -0.0158086 0)
(1.09625 -0.0147093 0)
(1.08713 -0.0120607 0)
(1.07359 -0.00851854 0)
(1.06293 -0.00467936 0)
(1.05492 -8.14434e-05 0)
(1.04975 0.00490346 0)
(1.04841 0.00976705 0)
(1.05111 0.0136656 0)
(1.05721 0.0168326 0)
(1.06623 0.019458 0)
(1.07859 0.0216441 0)
(1.08554 0.0228098 0)
(1.05869 0.0223845 0)
(0.912994 0.0171455 0)
(0.579242 0.00506912 0)
(0.185965 0.00029112 0)
(0.198024 1.58314e-06 0)
(0.588597 -0.00234127 0)
(0.918941 -0.0104246 0)
(1.06937 -0.0136939 0)
(1.09942 -0.0127358 0)
(1.09201 -0.0100493 0)
(1.07832 -0.0066805 0)
(1.06733 -0.00279482 0)
(1.05913 0.00157661 0)
(1.05368 0.00626054 0)
(1.05144 0.0108164 0)
(1.05328 0.0148241 0)
(1.05892 0.0178351 0)
(1.06817 0.0199704 0)
(1.08068 0.0218512 0)
(1.08538 0.0227438 0)
(1.04916 0.0216756 0)
(0.888332 0.0157658 0)
(0.552168 0.00463708 0)
(0.176875 0.000458656 0)
(0.194433 2.34598e-05 0)
(0.573813 -0.00157122 0)
(0.904496 -0.00815933 0)
(1.0666 -0.0112644 0)
(1.1028 -0.0103377 0)
(1.09667 -0.00784343 0)
(1.08296 -0.00435402 0)
(1.07157 -0.000610762 0)
(1.06268 0.00381788 0)
(1.05656 0.0087501 0)
(1.05447 0.0134116 0)
(1.0565 0.0168527 0)
(1.06204 0.0192932 0)
(1.07104 0.0211308 0)
(1.08262 0.0224012 0)
(1.08477 0.0228437 0)
(1.04145 0.021193 0)
(0.866308 0.0147334 0)
(0.528655 0.00438913 0)
(0.168372 0.000539253 0)
(0.192209 3.78192e-05 0)
(0.563109 -0.000830606 0)
(0.892626 -0.00608419 0)
(1.06361 -0.00897773 0)
(1.10592 -0.00788691 0)
(1.10152 -0.00514967 0)
(1.08779 -0.0017095 0)
(1.07613 0.00220259 0)
(1.06695 0.00656817 0)
(1.06025 0.0110707 0)
(1.05673 0.0150151 0)
(1.05786 0.018445 0)
(1.06313 0.0206633 0)
(1.07214 0.0220471 0)
(1.08317 0.0229898 0)
(1.08308 0.0231462 0)
(1.02936 0.0209929 0)
(0.841371 0.0139654 0)
(0.505331 0.00425134 0)
(0.159673 0.000579334 0)
(0.191212 9.10157e-05 0)
(0.555504 -0.00024593 0)
(0.882427 -0.00394563 0)
(1.0621 -0.00616992 0)
(1.10984 -0.00482118 0)
(1.10665 -0.00202192 0)
(1.09304 0.00164572 0)
(1.08099 0.00550531 0)
(1.0711 0.00981426 0)
(1.06351 0.0144517 0)
(1.0602 0.018579 0)
(1.06131 0.0210496 0)
(1.06603 0.0225554 0)
(1.07448 0.0236538 0)
(1.0839 0.0240945 0)
(1.08095 0.0237983 0)
(1.01926 0.0210609 0)
(0.819234 0.0135895 0)
(0.484634 0.00424677 0)
(0.151491 0.000613453 0)
(0.191722 5.61293e-05 0)
(0.551227 0.000813998 0)
(0.875888 -0.00163448 0)
(1.06093 -0.00359568 0)
(1.11389 -0.00188187 0)
(1.11222 0.00137743 0)
(1.09844 0.00527744 0)
(1.08603 0.00939796 0)
(1.07566 0.0137665 0)
(1.06747 0.0180545 0)
(1.06228 0.0214381 0)
(1.06171 0.0238498 0)
(1.0659 0.0250126 0)
(1.07442 0.0254773 0)
(1.08348 0.0258465 0)
(1.0769 0.0249644 0)
(1.00484 0.021487 0)
(0.793599 0.0133916 0)
(0.462752 0.00427627 0)
(0.142761 0.000627346 0)
(0.193695 0.000209711 0)
(0.551451 0.00149645 0)
(0.870891 0.000497699 0)
(1.06162 -0.000146566 0)
(1.11874 0.00187365 0)
(1.11803 0.0051769 0)
(1.10418 0.00942651 0)
(1.09103 0.0138299 0)
(1.07974 0.018427 0)
(1.07027 0.022932 0)
(1.06487 0.0265095 0)
(1.06466 0.0282837 0)
(1.06829 0.0287561 0)
(1.07594 0.0288464 0)
(1.08249 0.0281644 0)
(1.07213 0.0267394 0)
(0.991417 0.0225065 0)
(0.770193 0.0136434 0)
(0.442601 0.00451793 0)
(0.134314 0.000671811 0)
(0.197666 0.000650095 0)
(0.55406 0.00225875 0)
(0.871083 0.00338032 0)
(1.06336 0.00303536 0)
(1.12415 0.0055421 0)
(1.1246 0.00947986 0)
(1.1102 0.0141304 0)
(1.09646 0.0189479 0)
(1.0846 0.0238526 0)
(1.07455 0.0282784 0)
(1.06718 0.0311197 0)
(1.06384 0.0321827 0)
(1.06614 0.0323684 0)
(1.07374 0.0316621 0)
(1.08047 0.0310701 0)
(1.0658 0.028871 0)
(0.97347 0.0236183 0)
(0.742602 0.0141336 0)
(0.419976 0.00479758 0)
(0.124788 0.000710602 0)
(0.204083 0.000864241 0)
(0.560984 0.00343008 0)
(0.874873 0.00579073 0)
(1.06796 0.0074932 0)
(1.13058 0.0108116 0)
(1.13181 0.0148097 0)
(1.1171 0.0197929 0)
(1.10235 0.0250898 0)
(1.08908 0.030525 0)
(1.07695 0.0353018 0)
(1.06831 0.0383067 0)
(1.06562 0.0393368 0)
(1.06783 0.0388002 0)
(1.0741 0.0374892 0)
(1.07692 0.0349917 0)
(1.05732 0.0317246 0)
(0.956018 0.0254402 0)
(0.71675 0.015083 0)
(0.398218 0.00522645 0)
(0.115218 0.000776381 0)
(0.212271 0.00102194 0)
(0.57199 0.00472703 0)
(0.88276 0.00888072 0)
(1.07462 0.0118213 0)
(1.13797 0.0160629 0)
(1.13986 0.0210365 0)
(1.12431 0.0268553 0)
(1.10851 0.0326516 0)
(1.09381 0.0383867 0)
(1.08029 0.0431645 0)
(1.0697 0.0455017 0)
(1.06358 0.0451857 0)
(1.06282 0.0436658 0)
(1.06893 0.0410455 0)
(1.07263 0.0392673 0)
(1.04743 0.0351221 0)
(0.933434 0.0275467 0)
(0.685389 0.0162134 0)
(0.372675 0.00568494 0)
(0.104102 0.000836156 0)
(0.224562 0.0013553 0)
(0.590304 0.00671936 0)
(0.897589 0.0134414 0)
(1.08512 0.0183599 0)
(1.14725 0.0235871 0)
(1.1489 0.0291 0)
(1.13235 0.0357608 0)
(1.1148 0.0425053 0)
(1.09767 0.048874 0)
(1.08101 0.0537035 0)
(1.06806 0.0553555 0)
(1.06267 0.0544187 0)
(1.06362 0.0522592 0)
(1.06802 0.0493773 0)
(1.06591 0.044997 0)
(1.0343 0.0392653 0)
(0.910596 0.0303293 0)
(0.655093 0.0176158 0)
(0.347509 0.00624654 0)
(0.092828 0.000879794 0)
(0.240283 0.00194082 0)
(0.614337 0.00860251 0)
(0.918951 0.0182353 0)
(1.09975 0.0254998 0)
(1.15854 0.0322624 0)
(1.16 0.0393174 0)
(1.14182 0.0472511 0)
(1.12259 0.0545842 0)
(1.10351 0.061014 0)
(1.08475 0.0651272 0)
(1.06947 0.0659093 0)
(1.06021 0.0636286 0)
(1.05652 0.0597941 0)
(1.05901 0.0549658 0)
(1.05822 0.0510309 0)
(1.01919 0.0442008 0)
(0.881111 0.033408 0)
(0.61769 0.0193505 0)
(0.317265 0.00686696 0)
(0.0796962 0.00089114 0)
(0.26236 0.00280523 0)
(0.647819 0.0124065 0)
(0.947645 0.0250677 0)
(1.119 0.0351347 0)
(1.17307 0.0433305 0)
(1.17303 0.0521458 0)
(1.15254 0.0610717 0)
(1.13057 0.0694305 0)
(1.10816 0.0764247 0)
(1.08573 0.0806264 0)
(1.06697 0.0801087 0)
(1.05681 0.0762051 0)
(1.05454 0.0710084 0)
(1.05683 0.0658043 0)
(1.04769 0.0589709 0)
(0.999985 0.0499574 0)
(0.850916 0.0374215 0)
(0.580966 0.0215596 0)
(0.286804 0.00753859 0)
(0.0664943 0.000855346 0)
(0.293916 0.00372076 0)
(0.69407 0.0156067 0)
(0.986925 0.0332724 0)
(1.14453 0.0467205 0)
(1.19054 0.0573913 0)
(1.18827 0.0683389 0)
(1.16433 0.0789889 0)
(1.13924 0.0878849 0)
(1.11381 0.0945163 0)
(1.08823 0.0971597 0)
(1.06647 0.095149 0)
(1.05268 0.0899697 0)
(1.04559 0.0829734 0)
(1.04369 0.0752774 0)
(1.0355 0.0678105 0)
(0.977705 0.0574801 0)
(0.811771 0.0420728 0)
(0.534031 0.0241464 0)
(0.248972 0.00812266 0)
(0.0511578 0.000787052 0)
(0.33035 0.00708423 0)
(0.752092 0.0247124 0)
(1.03513 0.0463337 0)
(1.17574 0.0639124 0)
(1.21221 0.076507 0)
(1.20511 0.0905291 0)
(1.17611 0.101959 0)
(1.14611 0.111026 0)
(1.11534 0.117054 0)
(1.08484 0.118786 0)
(1.05957 0.114902 0)
(1.04453 0.10664 0)
(1.03908 0.0978127 0)
(1.038 0.0893086 0)
(1.01903 0.0791278 0)
(0.949309 0.0656328 0)
(0.77025 0.0477234 0)
(0.48685 0.0270373 0)
(0.211369 0.00862604 0)
(0.0365795 0.000660077 0)
(0.410456 0.0107543 0)
(0.839542 0.0357958 0)
(1.10035 0.067393 0)
(1.21466 0.0895802 0)
(1.2376 0.104925 6.48844e-34)
(1.22345 0.120536 -2.91625e-34)
(1.18809 0.131941 0)
(1.15352 0.139896 0)
(1.1191 0.143783 0)
(1.08522 0.142247 0)
(1.05617 0.134284 0)
(1.03751 0.124695 0)
(1.02704 0.113429 0)
(1.01967 0.102085 0)
(1.00001 0.090644 0)
(0.916567 0.0748393 0)
(0.71685 0.0528549 0)
(0.424817 0.0291332 0)
(0.162783 0.00835433 0)
(0.0195304 0.000716239 0)
(0.48185 0.0259694 4.84434e-20)
(0.941425 0.0596158 -3.66599e-20)
(1.17005 0.101248 0)
(1.25476 0.127423 2.81945e-20)
(1.26489 0.142753 -2.28625e-20)
(1.24117 0.160498 3.07688e-34)
(1.19895 0.170102 0)
(1.15883 0.175936 1.63056e-20)
(1.11805 0.177501 -5.34994e-20)
(1.07722 0.173139 1.09076e-20)
(1.04413 0.163634 0)
(1.02365 0.149355 -2.75886e-20)
(1.01453 0.136102 -3.30486e-20)
(1.00856 0.123469 5.78016e-20)
(0.97027 0.107874 -4.56569e-20)
(0.864063 0.0861269 0)
(0.644257 0.0597348 -1.64892e-20)
(0.34852 0.0301184 0)
(0.111059 0.00830285 -9.08641e-20)
(0.00221833 0.000671257 1.07091e-19)
(0.517993 0.0535828 -6.33587e-21)
(1.00546 0.102575 1.10861e-19)
(1.21939 0.151513 -6.53249e-21)
(1.2878 0.175164 -7.04055e-20)
(1.28887 0.192149 -4.84645e-20)
(1.25611 0.207745 7.88248e-20)
(1.20763 0.214488 0)
(1.16213 0.217754 0)
(1.11654 0.216368 8.52093e-20)
(1.07311 0.209015 0)
(1.03585 0.194466 9.98614e-20)
(1.00986 0.179346 2.96019e-20)
(0.992391 0.163943 3.83086e-22)
(0.97232 0.147319 -6.30844e-20)
(0.933149 0.130069 0)
(0.815704 0.105941 0)
(0.581967 0.070386 -2.69644e-19)
(0.294129 0.0339019 6.76995e-19)
(0.0849942 0.008793 -4.0047e-19)
(-0.00694786 -0.000194491 -4.72337e-19)
(0.525687 0.076265 -6.47376e-20)
(1.04306 0.159412 2.45616e-20)
(1.25607 0.211709 1.31969e-20)
(1.31389 0.234043 1.23007e-19)
(1.30751 0.249408 1.43378e-20)
(1.26732 0.260736 -2.05768e-19)
(1.21333 0.263679 7.00114e-20)
(1.16238 0.263663 0)
(1.11107 0.259342 -1.80471e-19)
(1.05993 0.248931 1.59946e-19)
(1.01569 0.231542 -2.6964e-19)
(0.986674 0.212793 1.26381e-19)
(0.970514 0.194524 -8.18837e-20)
(0.95596 0.179054 1.84403e-19)
(0.90387 0.158853 0)
(0.777351 0.125753 -6.75012e-20)
(0.548289 0.0828554 0)
(0.283084 0.0389403 3.72681e-19)
(0.0837432 0.0115637 -8.81615e-19)
(-0.00694223 -0.00122448 5.52923e-19)
(0.520994 0.107957 1.84032e-19)
(1.06242 0.2159 -8.03267e-20)
(1.27735 0.276501 -1.69563e-20)
(1.33083 0.298196 0)
(1.31925 0.311535 -9.08984e-20)
(1.27376 0.31776 1.12066e-19)
(1.21506 0.315979 -7.50193e-20)
(1.15893 0.312029 0)
(1.10219 0.303478 1.28308e-19)
(1.04622 0.2876 -1.12428e-19)
(1.00002 0.267174 2.33837e-19)
(0.967655 0.246183 0)
(0.944412 0.228323 -1.74076e-19)
(0.919022 0.20714 9.80586e-20)
(0.871723 0.184612 2.47604e-19)
(0.750953 0.151057 -2.17878e-19)
(0.533202 0.101603 3.46505e-19)
(0.283972 0.0513243 -7.68e-19)
(0.0940736 0.0164502 4.84873e-19)
(-0.00134268 -0.000569615 -6.06507e-19)
(0.509728 0.132335 -6.60913e-20)
(1.07123 0.270275 4.74011e-20)
(1.28879 0.342732 -5.62847e-20)
(1.33991 0.364022 1.10998e-19)
(1.3247 0.374953 -1.04176e-19)
(1.27542 0.376232 3.56006e-20)
(1.2132 0.370048 3.62394e-21)
(1.15328 0.361958 -1.46023e-19)
(1.09289 0.349301 -1.34692e-19)
(1.03385 0.330464 -2.41669e-19)
(0.982271 0.307189 -5.02945e-19)
(0.944768 0.282392 -1.54889e-19)
(0.921417 0.259757 2.31627e-21)
(0.900745 0.241862 -3.36283e-19)
(0.846307 0.217275 -6.03586e-21)
(0.72479 0.175181 3.17311e-19)
(0.520121 0.119884 -9.57859e-20)
(0.288474 0.0646914 -5.55281e-20)
(0.10667 0.023381 0)
(0.00593261 0.00112811 1.29103e-18)
(0.492993 0.153151 0)
(1.06542 0.319717 -5.04504e-21)
(1.2909 0.405697 -1.01865e-20)
(1.34211 0.427872 -1.27601e-20)
(1.32435 0.437818 1.01201e-19)
(1.27263 0.434796 -8.27383e-20)
(1.20774 0.424192 8.20026e-20)
(1.14447 0.411821 2.3963e-19)
(1.07981 0.394579 -7.49554e-20)
(1.01494 0.370977 1.19653e-19)
(0.957383 0.3417 2.7043e-19)
(0.919158 0.315217 3.37621e-19)
(0.894766 0.295265 -2.03354e-19)
(0.864824 0.271341 3.64116e-19)
(0.816268 0.244326 -2.88536e-19)
(0.705924 0.203891 0)
(0.516386 0.14293 -7.27421e-19)
(0.299604 0.0817755 9.79016e-19)
(0.122212 0.0330827 7.30752e-20)
(0.0144445 0.00396918 -1.36497e-18)
(0.479078 0.173519 -5.1181e-21)
(1.05825 0.368444 1.0991e-20)
(1.28857 0.466981 7.4439e-20)
(1.33974 0.489853 -9.57167e-20)
(1.31981 0.498563 8.33218e-20)
(1.26612 0.491704 -8.04085e-20)
(1.19919 0.477484 1.62802e-19)
(1.13331 0.461491 -7.21989e-20)
(1.0657 0.440725 -3.02485e-19)
(0.998577 0.41407 2.34187e-23)
(0.942168 0.38322 -2.93687e-19)
(0.900169 0.355235 -3.62967e-19)
(0.868543 0.329802 2.24332e-19)
(0.846312 0.305917 -1.30969e-19)
(0.792747 0.278485 3.13411e-19)
(0.683267 0.227993 0)
(0.505916 0.165049 -4.51281e-19)
(0.304233 0.0979706 6.66478e-19)
(0.133137 0.0430412 1.26208e-18)
(0.0212076 0.00702396 -1.48458e-18)
(0.465023 0.191269 -4.39963e-20)
(1.04594 0.412862 1.58296e-20)
(1.2819 0.524442 -5.1901e-20)
(1.33347 0.548851 9.91792e-20)
(1.31172 0.55711 1.18778e-20)
(1.25659 0.546937 -1.5804e-19)
(1.188 0.52927 -9.41697e-20)
(1.12003 0.509595 -9.1813e-20)
(1.05031 0.484808 -1.70255e-19)
(0.980138 0.453329 2.74297e-19)
(0.916552 0.41775 2.97041e-19)
(0.871063 0.387174 5.76024e-19)
(0.844509 0.360893 0)
(0.810099 0.334699 6.3308e-21)
(0.764127 0.302118 -8.60301e-19)
(0.664647 0.256581 2.00841e-19)
(0.500634 0.187443 9.75302e-19)
(0.309873 0.115839 -2.87765e-19)
(0.142377 0.0534327 5.9894e-19)
(0.0266373 0.0102439 -4.99561e-20)
(0.455451 0.209685 5.93582e-21)
(1.03513 0.456141 3.83544e-20)
(1.27328 0.579674 -2.40854e-20)
(1.32471 0.605596 1.12842e-19)
(1.30133 0.612915 -1.70886e-19)
(1.24496 0.599577 1.57244e-19)
(1.17518 0.579013 9.74879e-20)
(1.10575 0.556232 2.7477e-19)
(1.03369 0.528403 3.42582e-19)
(0.959974 0.494654 -3.16048e-19)
(0.896437 0.458163 0)
(0.853136 0.423021 -2.1744e-19)
(0.817187 0.392756 2.49644e-19)
(0.793451 0.365346 3.14943e-19)
(0.741226 0.333853 -1.82053e-19)
(0.643303 0.277688 -4.44472e-19)
(0.488309 0.208664 -1.32697e-19)
(0.309054 0.131385 -1.61673e-21)
(0.14662 0.0623918 0)
(0.029947 0.0128429 0)
(0.447402 0.225981 -6.47735e-20)
(1.02305 0.496243 0)
(1.2625 0.631182 -9.82615e-21)
(1.31372 0.659033 -8.92691e-21)
(1.28906 0.665952 1.92966e-19)
(1.23183 0.649941 -4.92376e-20)
(1.16109 0.626639 9.89163e-20)
(1.09017 0.600943 -1.86105e-19)
(1.01625 0.570121 2.59609e-19)
(0.941837 0.532679 -1.03061e-19)
(0.875524 0.490627 1.69886e-19)
(0.825358 0.452424 6.89198e-19)
(0.794342 0.422265 1.41643e-20)
(0.758418 0.390777 -3.2819e-19)
(0.712641 0.353012 6.08021e-19)
(0.623153 0.304042 4.14891e-21)
(0.47753 0.228084 1.41966e-19)
(0.304189 0.14526 -6.77165e-19)
(0.145094 0.0693924 6.97618e-19)
(0.030816 0.0144483 -8.22154e-19)
(0.440799 0.243786 3.97186e-23)
(1.01187 0.534848 0)
(1.25095 0.680433 0)
(1.30158 0.710178 -5.57033e-21)
(1.27579 0.716101 -5.79678e-20)
(1.21774 0.697432 7.40235e-20)
(1.14616 0.671854 -1.85233e-19)
(1.0742 0.643807 0)
(0.998749 0.610398 -3.82669e-19)
(0.921331 0.570575 4.57118e-19)
(0.851804 0.526444 4.83293e-19)
(0.802594 0.48594 -2.52984e-19)
(0.767187 0.449622 -3.05692e-19)
(0.74082 0.417195 7.16594e-19)
(0.690454 0.381269 -2.15947e-19)
(0.600711 0.319897 -2.57912e-19)
(0.461164 0.24492 -1.5439e-19)
(0.296738 0.156216 -7.30076e-19)
(0.140855 0.074212 1.06536e-19)
(0.0300609 0.0153616 8.86872e-19)
(0.436493 0.262003 -3.33988e-20)
(1.00095 0.571098 -4.2829e-20)
(1.2384 0.726179 2.36377e-20)
(1.28839 0.757888 -1.62583e-22)
(1.26169 0.763414 -5.68686e-20)
(1.20299 0.742628 1.21361e-19)
(1.13075 0.714872 0)
(1.05789 0.684474 1.11964e-19)
(0.981342 0.648924 -8.82843e-20)
(0.902809 0.606548 7.61359e-19)
(0.832101 0.558205 -1.10426e-19)
(0.779165 0.513586 1.25258e-19)
(0.743439 0.476556 0)
(0.705585 0.439243 -3.87906e-19)
(0.66208 0.395016 4.69568e-19)
(0.579786 0.341796 0)
(0.447692 0.258367 -3.32813e-19)
(0.285997 0.165619 9.78515e-19)
(0.134615 0.0767637 1.15431e-19)
(0.0278431 0.0158096 -1.09138e-18)
(0.433985 0.278955 -8.63387e-20)
(0.991112 0.605846 1.10805e-19)
(1.22581 0.769754 0)
(1.27488 0.803369 7.39874e-21)
(1.24728 0.807999 0)
(1.18797 0.78502 -1.55273e-19)
(1.11531 0.755429 0)
(1.04185 0.723253 0)
(0.963799 0.685773 -1.16214e-19)
(0.88212 0.64105 -7.23609e-19)
(0.808061 0.590455 -8.92478e-19)
(0.75365 0.542924 1.46319e-19)
(0.714083 0.499644 5.27484e-19)
(0.68817 0.460538 4.26796e-19)
(0.639906 0.419819 -1.50625e-18)
(0.557361 0.351614 -6.04689e-19)
(0.42802 0.269791 3.54037e-19)
(0.273209 0.170582 0)
(0.126669 0.0776835 9.91622e-19)
(0.0251005 0.0153565 -1.17533e-18)
(0.43233 0.294703 1.04823e-19)
(0.981578 0.638471 -1.30111e-19)
(1.21297 0.810102 0)
(1.26102 0.845514 -1.09801e-20)
(1.23271 0.849856 2.83099e-21)
(1.17299 0.825214 0)
(1.09996 0.793935 5.66412e-20)
(1.02574 0.759896 7.71189e-20)
(0.946612 0.720885 -2.18885e-19)
(0.864142 0.67464 9.5958e-20)
(0.78829 0.621559 0)
(0.730522 0.568857 6.05723e-19)
(0.691805 0.523349 4.878e-21)
(0.652008 0.47879 2.30155e-19)
(0.611126 0.427038 2.73413e-19)
(0.535023 0.368697 0)
(0.412261 0.276926 -5.78706e-19)
(0.25925 0.173934 1.13557e-18)
(0.118309 0.0771432 -1.20077e-18)
(0.0221893 0.0145318 2.53015e-18)
(0.431069 0.309671 0)
(0.972703 0.669657 0)
(1.20051 0.848409 -6.28936e-20)
(1.24734 0.885628 0)
(1.21828 0.889221 0)
(1.15813 0.862793 -1.29385e-19)
(1.08484 0.830048 5.79462e-20)
(1.01014 0.794705 1.75674e-20)
(0.92969 0.754256 -5.01312e-20)
(0.844097 0.706204 0)
(0.764064 0.650453 -1.35618e-19)
(0.704226 0.594681 -4.94071e-19)
(0.66091 0.54358 -5.94727e-19)
(0.633843 0.495621 -2.39013e-19)
(0.588442 0.447533 2.96143e-19)
(0.512141 0.371108 -6.98172e-19)
(0.390799 0.281902 1.24505e-18)
(0.244983 0.173428 2.43526e-21)
(0.109876 0.0755015 -1.15121e-18)
(0.0196906 0.0134941 -1.70579e-19)
(0.42993 0.324199 0)
(0.964245 0.69926 -1.0725e-19)
(1.18818 0.883885 7.77963e-20)
(1.2337 0.92262 0)
(1.20406 0.926028 0)
(1.14361 0.89834 2.59778e-19)
(1.07011 0.864324 0)
(0.994802 0.827545 0)
(0.91337 0.786094 -4.79178e-19)
(0.826867 0.737235 1.32125e-19)
(0.74498 0.679984 -1.20211e-18)
(0.68134 0.620554 0)
(0.637735 0.565999 -6.44811e-19)
(0.595892 0.511201 1.06363e-20)
(0.557439 0.447418 -9.5107e-19)
(0.488404 0.381765 3.75699e-19)
(0.375628 0.280665 1.62295e-21)
(0.232549 0.170796 -1.31094e-18)
(0.103052 0.0724771 6.20918e-19)
(0.0169035 0.0119546 1.82485e-19)
(0.428865 0.338372 0)
(0.956291 0.727443 -1.50916e-19)
(1.17632 0.917557 8.23215e-20)
(1.22048 0.957843 1.02614e-19)
(1.19019 0.960589 -1.38901e-20)
(1.12944 0.931484 2.59795e-20)
(1.05585 0.896354 -3.51726e-20)
(0.980276 0.858686 4.61438e-19)
(0.897773 0.816247 5.12585e-19)
(0.808389 0.76608 1.00666e-18)
(0.722299 0.706535 9.98836e-19)
(0.655012 0.644588 1.75402e-19)
(0.605104 0.584582 9.27727e-19)
(0.575226 0.524217 5.72632e-19)
(0.532374 0.463627 6.8277e-19)
(0.464773 0.373745 -4.11225e-19)
(0.354336 0.275302 -4.78536e-19)
(0.223049 0.161068 5.61174e-19)
(0.101367 0.0734643 -3.33032e-19)
(0.020057 0.0176694 5.90451e-19)
(0.42789 0.352124 2.14096e-19)
(0.948867 0.754285 2.36134e-19)
(1.16472 0.948808 4.82926e-20)
(1.20748 0.990213 1.62297e-20)
(1.17674 0.992803 1.13169e-20)
(1.11584 0.962767 -7.21385e-20)
(1.04223 0.926755 3.39176e-20)
(0.966202 0.888027 -2.03413e-20)
(0.882715 0.844954 -5.95772e-19)
(0.792257 0.794578 -1.09229e-18)
(0.703783 0.73469 6.93439e-20)
(0.631789 0.670385 0)
(0.581052 0.607016 0)
(0.53366 0.539697 -2.98464e-19)
(0.495771 0.45609 -1.11652e-18)
(0.43699 0.37449 8.85788e-19)
(0.345212 0.254876 5.23512e-19)
(0.230059 0.142702 0)
(0.114701 0.0477416 1.06239e-18)
(0.0136428 -0.00774556 -6.30717e-19)
(0.426992 0.365305 -1.13501e-19)
(0.941731 0.779515 1.00495e-19)
(1.15361 0.978427 -1.16877e-19)
(1.19505 1.02108 -9.2892e-20)
(1.16376 1.02303 -1.20087e-20)
(1.10271 0.991857 -2.30741e-20)
(1.02916 0.955042 0)
(0.952974 0.915775 -5.79421e-19)
(0.868547 0.872013 7.31823e-20)
(0.775743 0.820805 0)
(0.684102 0.759783 0)
(0.607502 0.694033 1.11669e-19)
(0.546693 0.625782 1.49977e-19)
(0.509086 0.550818 -3.22104e-19)
(0.464149 0.471149 8.01551e-19)
(0.403625 0.351478 -9.65198e-19)
(0.316537 0.23241 -1.11978e-18)
(0.236415 0.122856 9.9136e-19)
(0.170105 0.0888156 -3.7829e-19)
(0.113133 0.0799528 2.20176e-19)
(0.426071 0.377703 1.43382e-19)
(0.935079 0.803546 0)
(1.1428 1.00591 0)
(1.18291 1.04934 -2.52712e-20)
(1.15132 1.05113 2.04586e-20)
(1.09025 1.01926 -2.07782e-20)
(1.01678 0.981859 1.49823e-19)
(0.940243 0.941863 5.93126e-19)
(0.855067 0.897817 1.08017e-18)
(0.761304 0.846852 -8.2033e-20)
(0.666494 0.786335 1.69415e-19)
(0.584544 0.719574 -9.98221e-19)
(0.523659 0.650016 -9.93758e-19)
(0.462828 0.570621 -1.72737e-19)
(0.413611 0.459559 0)
(0.36135 0.351544 -7.30581e-21)
(0.291123 0.16495 6.16351e-19)
(0.262966 0.0216982 -1.03784e-18)
(0.225406 -0.0883055 7.89042e-19)
(0.0844249 -0.0968258 6.54306e-19)
(0.425076 0.389657 -3.17128e-19)
(0.928429 0.825877 -1.43343e-19)
(1.13237 1.03199 7.00119e-21)
(1.17128 1.07654 5.51918e-20)
(1.13922 1.07778 0)
(1.07804 1.04504 -7.52086e-20)
(1.0047 1.00716 -2.15197e-19)
(0.928138 0.967048 -1.7633e-21)
(0.842272 0.922801 -5.65927e-19)
(0.746288 0.871343 -8.0465e-20)
(0.648903 0.810647 7.47377e-20)
(0.562889 0.745264 8.7684e-19)
(0.486466 0.672312 9.69891e-19)
(0.433298 0.583202 1.68084e-19)
(0.374776 0.485 8.59492e-19)
(0.291787 0.319965 0)
(0.173198 0.15093 0)
(0.0040277 0.205903 7.15189e-19)
(-0.0776442 0.629866 -2.98653e-20)
(0.00686312 1.53614 -8.79937e-19)
(0.424045 0.40093 1.75386e-19)
(0.922337 0.847494 4.00871e-19)
(1.12221 1.05646 -5.479e-19)
(1.15983 1.1017 2.72586e-19)
(1.12748 1.10302 -6.41398e-21)
(1.0663 1.06997 -2.85152e-20)
(0.99305 1.03198 0)
(0.916181 0.991684 -4.94248e-19)
(0.829647 0.947801 0)
(0.732685 0.897443 1.13364e-18)
(0.631385 0.838243 -9.0781e-20)
(0.539197 0.772701 1.01791e-19)
(0.465261 0.70242 1.10879e-18)
(0.379892 0.619415 -3.64325e-19)
(0.283274 0.480954 -4.37595e-19)
(0.197321 0.375939 0)
(0.0881178 0.504649 0)
(0.0262786 1.3292 0)
(0.0726272 2.46198 -4.06285e-19)
(0.100123 2.91018 -2.49989e-19)
(0.42273 0.411632 0)
(0.916087 0.867248 0)
(1.1124 1.07965 2.00134e-19)
(1.14893 1.12609 -2.21124e-19)
(1.1161 1.12708 9.61088e-20)
(1.05482 1.09357 3.51443e-20)
(0.981709 1.05553 2.76586e-20)
(0.904899 1.01569 -2.15344e-20)
(0.817768 0.972284 7.96608e-20)
(0.718608 0.922099 -1.30098e-18)
(0.615381 0.863848 1.64603e-19)
(0.519886 0.803283 8.74677e-19)
(0.424625 0.734422 -1.10476e-18)
(0.347679 0.635241 -1.21154e-18)
(0.267168 0.542196 4.07953e-19)
(0.190882 0.676487 0)
(0.122604 1.55662 5.65441e-19)
(0.123742 2.69287 6.20823e-19)
(0.131835 3.08782 -6.94121e-19)
(0.12343 3.22214 7.4581e-19)
(0.421408 0.422007 0)
(0.910481 0.886519 3.56227e-19)
(1.10292 1.10138 -5.01479e-20)
(1.13825 1.14847 3.12426e-19)
(1.10518 1.14979 -1.00882e-19)
(1.04395 1.1163 0)
(0.970962 1.07855 0)
(0.893868 1.03895 0)
(0.80615 0.99642 4.49049e-19)
(0.706433 0.948272 6.00695e-20)
(0.599411 0.892904 0)
(0.496991 0.83192 -8.69992e-19)
(0.412706 0.767512 0)
(0.297593 0.685071 8.6717e-19)
(0.205218 0.750936 -5.83965e-19)
(0.154987 1.46212 -4.69977e-19)
(0.157226 2.68079 -1.10052e-18)
(0.178989 3.1268 -5.80378e-19)
(0.169814 3.26741 -7.88708e-19)
(0.155865 3.30767 5.96492e-19)
(0.419901 0.431458 -1.24678e-19)
(0.904599 0.903782 1.54311e-20)
(1.09378 1.1219 -5.59431e-20)
(1.12819 1.17028 -2.41114e-19)
(1.09464 1.17148 0)
(1.03332 1.13784 0)
(0.960479 1.10036 0)
(0.883501 1.06161 3.44419e-20)
(0.79538 1.02011 -5.67596e-19)
(0.693716 0.97284 0)
(0.585425 0.919054 0)
(0.483631 0.866137 0)
(0.36942 0.803422 0)
(0.305683 0.777008 6.33058e-19)
(0.271195 1.16525 1.5567e-18)
(0.248955 2.38399 4.61184e-19)
(0.262489 3.08321 9.29917e-19)
(0.257052 3.2832 -7.12656e-19)
(0.208225 3.34893 2.63562e-19)
(0.175709 3.36163 0)
(0.418432 0.440644 1.28479e-19)
(0.899269 0.921368 -7.92564e-19)
(1.08476 1.14175 -2.12589e-19)
(1.1181 1.19075 -4.65981e-20)
(1.08436 1.19249 2.34693e-20)
(1.02316 1.15912 -7.80398e-20)
(0.950462 1.12219 -3.25606e-21)
(0.873266 1.08396 -3.84991e-19)
(0.784769 1.04372 0)
(0.683188 0.999227 -7.5978e-20)
(0.571982 0.949524 6.91166e-20)
(0.462552 0.895592 0)
(0.375095 0.846423 0)
(0.319822 0.964377 -7.92205e-19)
(0.27364 1.85534 9.74864e-20)
(0.269826 2.94335 -3.45946e-19)
(0.292274 3.28739 7.22362e-19)
(0.264686 3.38588 5.23783e-19)
(0.199078 3.41032 -7.11349e-19)
(0.174299 3.41985 3.5285e-19)
(0.416443 0.450033 2.5312e-19)
(0.892885 0.938119 7.73542e-19)
(1.07523 1.16203 2.55099e-19)
(1.10783 1.21244 0)
(1.07366 1.21405 0)
(1.01244 1.18055 6.09792e-20)
(0.940001 1.14395 7.05648e-20)
(0.863159 1.10673 3.43336e-19)
(0.774653 1.06778 2.22733e-20)
(0.671442 1.02454 9.72496e-19)
(0.560082 0.976648 -1.14718e-18)
(0.450112 0.928663 0)
(0.370931 0.924516 0)
(0.334594 1.3313 -5.39516e-19)
(0.335186 2.48817 -6.48746e-19)
(0.378425 3.19805 0)
(0.402901 3.36946 -7.29084e-19)
(0.33298 3.4322 4.9841e-20)
(0.26351 3.47693 3.4083e-19)
(0.240981 3.50223 -1.11982e-19)
(0.414282 0.4598 -4.82075e-19)
(0.886621 0.95726 -3.7168e-19)
(1.06491 1.18343 0)
(1.09647 1.23418 0)
(1.06229 1.23636 0)
(1.0014 1.20303 0)
(0.929338 1.16689 -8.29349e-20)
(0.85253 1.13007 3.02002e-19)
(0.763967 1.09233 0)
(0.66182 1.05211 -8.8555e-19)
(0.549602 1.00906 2.05764e-18)
(0.440032 0.969902 8.39218e-20)
(0.388577 1.04597 1.11442e-19)
(0.386903 1.74989 8.79342e-19)
(0.401072 2.90087 -4.72578e-19)
(0.438963 3.32014 0)
(0.422143 3.44336 2.03861e-19)
(0.336634 3.53162 9.18947e-20)
(0.260982 3.59543 1.50833e-19)
(0.185659 3.57488 -1.37713e-20)
(0.411326 0.470032 2.29599e-19)
(0.87854 0.975431 -3.80649e-19)
(1.05358 1.20571 0)
(1.08457 1.2579 -6.8151e-20)
(1.05003 1.25964 2.33377e-19)
(0.989273 1.22592 0)
(0.917752 1.1899 0)
(0.841706 1.15401 -5.2433e-19)
(0.75374 1.11747 -5.6845e-20)
(0.650717 1.07852 8.68396e-19)
(0.536074 1.03682 -9.77712e-19)
(0.446803 1.0169 5.70161e-19)
(0.407239 1.23221 0)
(0.423489 2.18659 -4.66217e-19)
(0.465699 3.14564 3.05903e-19)
(0.529177 3.4236 1.91046e-19)
(0.521341 3.51991 0)
(0.458457 3.60143 -3.874e-20)
(0.388335 3.64246 -4.14915e-19)
(0.307633 3.61395 -9.71601e-20)
(0.408151 0.480481 -4.58622e-19)
(0.870742 0.997002 5.4533e-19)
(1.04132 1.22941 3.76562e-19)