/*--------------------------------*- C++ -*----------------------------------*\
  =========                 |
  \\      /  F ield         | OpenFOAM: The Open Source CFD Toolbox
   \\    /   O peration     | Website:  https://openfoam.org
    \\  /    A nd           | Version:  9
     \\/     M anipulation  |
\*---------------------------------------------------------------------------*/
FoamFile
{
    format      ascii;
    class       volScalarField;
    location    "8";
    object      p;
}
// * * * * * * * * * * * * * * * * * * * * * * * * * * * * * * * * * * * * * //

dimensions      [0 2 -2 0 0 0 0];

internalField   nonuniform List<scalar> 
8800
(
0.409947
0.362021
0.323849
0.295488
0.275219
0.260826
0.250596
0.243446
0.238849
0.236839
0.237774
0.241461
0.247546
0.256298
0.268537
0.285661
0.309713
0.343046
0.385283
0.442331
0.241949
0.249258
0.257945
0.261722
0.260205
0.255173
0.248993
0.243326
0.238909
0.236152
0.235694
0.237822
0.241753
0.247078
0.253284
0.259258
0.262861
0.261912
0.255481
0.246283
0.218104
0.224585
0.229382
0.233366
0.236473
0.237894
0.237317
0.235528
0.233647
0.232632
0.233325
0.235269
0.237521
0.239057
0.238806
0.236535
0.232986
0.228645
0.223547
0.219691
0.212531
0.215452
0.219197
0.222425
0.224598
0.226124
0.227192
0.22773
0.227825
0.227922
0.228222
0.228627
0.228685
0.228109
0.226994
0.225292
0.222691
0.219055
0.215772
0.214336
0.210053
0.211315
0.214085
0.21708
0.219683
0.221691
0.22309
0.223924
0.224384
0.224672
0.225014
0.225201
0.224951
0.224103
0.222563
0.220396
0.217678
0.21469
0.212666
0.212203
0.209888
0.210343
0.211423
0.212727
0.214111
0.215625
0.21705
0.218243
0.219117
0.219721
0.220019
0.219909
0.219359
0.218404
0.217149
0.215823
0.21458
0.21338
0.212644
0.212471
0.20832
0.208557
0.209236
0.210161
0.211178
0.212178
0.213153
0.214125
0.214988
0.215687
0.216078
0.216075
0.215719
0.215116
0.214469
0.213636
0.212794
0.21202
0.211599
0.21152
0.205945
0.206044
0.206384
0.206928
0.207567
0.208355
0.209244
0.210162
0.211063
0.211873
0.212375
0.212479
0.212285
0.211884
0.211377
0.210894
0.210466
0.210091
0.209916
0.209882
0.202926
0.202983
0.203188
0.203542
0.203995
0.204556
0.205232
0.206019
0.206887
0.207766
0.208441
0.208782
0.208852
0.208756
0.208576
0.208357
0.208126
0.207931
0.207845
0.207827
0.199492
0.199531
0.199672
0.199925
0.200285
0.20077
0.201399
0.202182
0.20311
0.204135
0.205022
0.205581
0.205863
0.205961
0.20595
0.205884
0.205798
0.205722
0.205689
0.205678
0.195683
0.195711
0.195822
0.196026
0.196336
0.196781
0.197394
0.198209
0.199235
0.200453
0.201602
0.202424
0.202941
0.203246
0.203408
0.203484
0.203508
0.203511
0.203512
0.203505
0.191537
0.191563
0.191665
0.19186
0.192166
0.192626
0.193286
0.194196
0.195396
0.196884
0.198361
0.199484
0.200246
0.200744
0.201055
0.20124
0.201345
0.2014
0.201422
0.201416
0.187024
0.187047
0.187159
0.187368
0.187706
0.188222
0.188981
0.190055
0.191504
0.193349
0.195229
0.196705
0.197753
0.198457
0.198916
0.199206
0.19938
0.199478
0.199518
0.199513
0.182105
0.182129
0.182257
0.1825
0.182896
0.183511
0.184426
0.185736
0.187526
0.189837
0.192231
0.194142
0.195505
0.196442
0.197063
0.19746
0.197704
0.197842
0.1979
0.197895
0.176683
0.176713
0.176869
0.177166
0.177653
0.178411
0.179545
0.181176
0.183419
0.18633
0.189364
0.191801
0.193555
0.194765
0.195572
0.196091
0.196413
0.196596
0.196672
0.196666
0.170644
0.17068
0.170876
0.17125
0.171863
0.172818
0.174247
0.176304
0.179136
0.182816
0.186658
0.189746
0.191974
0.193515
0.194545
0.195209
0.19562
0.195854
0.195952
0.195945
0.163821
0.163867
0.164119
0.164596
0.165379
0.166597
0.168417
0.171032
0.174626
0.179288
0.184143
0.188043
0.190854
0.192799
0.194099
0.194939
0.195459
0.195755
0.195878
0.195869
0.155993
0.156055
0.15638
0.156997
0.158007
0.159575
0.16191
0.165255
0.169833
0.175742
0.181871
0.186777
0.190309
0.192751
0.194383
0.195437
0.19609
0.196463
0.196617
0.196606
0.146864
0.146946
0.147371
0.148176
0.149493
0.151528
0.154547
0.158846
0.164692
0.172186
0.179907
0.18606
0.190481
0.193534
0.195575
0.196893
0.197709
0.198175
0.198367
0.198352
0.136025
0.136137
0.136699
0.137763
0.1395
0.14217
0.146101
0.151655
0.159139
0.168638
0.178339
0.186028
0.19154
0.195346
0.19789
0.199533
0.20055
0.201129
0.201367
0.201348
0.122908
0.123063
0.123818
0.125253
0.127583
0.131131
0.136297
0.143514
0.153115
0.165138
0.177278
0.186841
0.193684
0.198413
0.201579
0.203627
0.204892
0.205609
0.205904
0.205881
0.106691
0.106907
0.107946
0.109936
0.113134
0.117926
0.124797
0.134243
0.146581
0.161754
0.176861
0.188683
0.197139
0.202999
0.206938
0.209495
0.211075
0.211964
0.212327
0.212298
0.0861506
0.0864596
0.0879457
0.0908106
0.0953199
0.101924
0.111206
0.123666
0.139532
0.158587
0.17724
0.191738
0.202125
0.209372
0.214287
0.217507
0.219509
0.22063
0.22108
0.221038
0.0593787
0.0598492
0.0621212
0.0664648
0.0730527
0.0824186
0.0951787
0.111713
0.132055
0.15579
0.178578
0.196175
0.208837
0.217774
0.223936
0.228053
0.230666
0.232148
0.232735
0.232669
0.0230541
0.0239026
0.0278464
0.0349802
0.0451335
0.0588816
0.0766574
0.0985724
0.124425
0.153614
0.181058
0.202122
0.217389
0.228354
0.236116
0.241481
0.245033
0.247121
0.247966
0.247872
-0.0294223
-0.0269619
-0.0186429
-0.0057587
0.0107756
0.0313452
0.056046
0.0847546
0.117095
0.152369
0.184835
0.209615
0.227736
0.24104
0.250796
0.257887
0.262917
0.266142
0.267576
0.267462
-0.108617
-0.0966797
-0.0777488
-0.0545842
-0.0284601
0.00111795
0.0342476
0.0707753
0.110324
0.152251
0.190209
0.219155
0.240625
0.256845
0.269295
0.278999
0.286601
0.29226
0.29558
0.296179
-0.192463
-0.167509
-0.137097
-0.103604
-0.0677468
-0.0291373
0.0123816
0.0567998
0.103891
0.153168
0.197619
0.231772
0.25755
0.27755
0.293474
0.306473
0.317267
0.326721
0.33351
0.334437
-0.256632
-0.228878
-0.190468
-0.148701
-0.104375
-0.057546
-0.00816944
0.0437249
0.0979665
0.154151
0.204543
0.243151
0.272272
0.294871
0.312817
0.327334
0.339205
0.348924
0.35508
0.356058
-0.307208
-0.277406
-0.234536
-0.187191
-0.136723
-0.0833936
-0.0273565
0.0311818
0.0919219
0.154359
0.209904
0.252098
0.283588
0.307673
0.326462
0.341385
0.353419
0.363107
0.369317
0.370374
-0.347495
-0.317145
-0.271114
-0.219684
-0.164637
-0.106264
-0.0448489
0.0193018
0.0857708
0.153896
0.214162
0.259497
0.292889
0.318069
0.337425
0.352563
0.364578
0.374004
0.380132
0.381243
-0.381071
-0.350569
-0.302475
-0.247955
-0.189305
-0.126841
-0.0608838
0.00818613
0.0798372
0.153206
0.217825
0.266014
0.301108
0.327221
0.347017
0.362284
0.374255
0.383548
0.389545
0.390667
-0.41015
-0.37964
-0.330085
-0.273232
-0.211671
-0.145791
-0.0759661
-0.00260362
0.0737154
0.151999
0.220867
0.271911
0.30872
0.33579
0.35606
0.371507
0.383479
0.392684
0.398553
0.399675
-0.436256
-0.405674
-0.355001
-0.296333
-0.232468
-0.163795
-0.0906581
-0.0134657
0.0672031
0.150288
0.223466
0.277511
0.316171
0.344303
0.365131
0.380818
0.392838
0.401977
0.407737
0.40885
-0.460282
-0.429586
-0.378043
-0.317895
-0.252127
-0.181111
-0.105127
-0.02452
0.0602114
0.148004
0.225657
0.282961
0.323706
0.353084
0.374594
0.390605
0.402731
0.41182
0.417466
0.418587
-0.48298
-0.452059
-0.399761
-0.338384
-0.271048
-0.198044
-0.119613
-0.0359718
0.0525531
0.145022
0.227398
0.288312
0.331467
0.362335
0.384691
0.401129
0.413415
0.422519
0.42804
0.429215
-0.50458
-0.473399
-0.420457
-0.358098
-0.289464
-0.21481
-0.134285
-0.0479537
0.0441068
0.141229
0.228603
0.293546
0.339508
0.372172
0.395588
0.412589
0.425116
0.434273
0.439646
0.440836
-0.525373
-0.493848
-0.440313
-0.377186
-0.307461
-0.231469
-0.149203
-0.0605356
0.0347766
0.136484
0.229133
0.298566
0.347793
0.382632
0.40738
0.425119
0.437991
0.447238
0.452519
0.453664
-0.54537
-0.513526
-0.459511
-0.395715
-0.325104
-0.248045
-0.164388
-0.0737566
0.0244986
0.130682
0.228839
0.303212
0.356209
0.393663
0.420079
0.438783
0.452139
0.461532
0.466767
0.467798
-0.56458
-0.532484
-0.478086
-0.413663
-0.342388
-0.26452
-0.17981
-0.0876064
0.0132364
0.123727
0.22755
0.307289
0.364557
0.405127
0.433621
0.453579
0.46762
0.477286
0.482468
0.483309
-0.583087
-0.550699
-0.495907
-0.430985
-0.359262
-0.280836
-0.195406
-0.10203
0.000989594
0.115547
0.225132
0.310568
0.372572
0.416785
0.447859
0.469445
0.484393
0.494455
0.499639
0.500239
-0.600908
-0.568092
-0.513032
-0.447678
-0.375644
-0.29692
-0.211095
-0.116962
-0.0121991
0.106097
0.221462
0.312807
0.379921
0.428328
0.462543
0.486235
0.50235
0.512917
0.518127
0.518486
-0.617787
-0.584647
-0.52929
-0.463695
-0.391475
-0.312675
-0.22678
-0.132301
-0.0262637
0.0953959
0.21644
0.313785
0.386228
0.439265
0.477259
0.5037
0.521435
0.532639
0.537724
0.537768
-0.633757
-0.600484
-0.544699
-0.478951
-0.406687
-0.328018
-0.242348
-0.147938
-0.0411179
0.0834693
0.210025
0.31335
0.391072
0.448872
0.491341
0.521496
0.541541
0.553369
0.558042
0.557671
-0.648883
-0.615274
-0.559264
-0.493399
-0.421218
-0.342863
-0.257695
-0.163753
-0.0566504
0.0703892
0.202235
0.31141
0.394108
0.456358
0.503774
0.539034
0.562971
0.575663
0.578642
0.57745
-0.663046
-0.629189
-0.572913
-0.506995
-0.435016
-0.35713
-0.272721
-0.179619
-0.0727332
0.0562561
0.19313
0.307942
0.395015
0.460955
0.513232
0.554873
0.585485
0.601793
0.601236
0.596594
-0.676359
-0.642201
-0.585669
-0.519774
-0.448112
-0.370861
-0.287474
-0.195609
-0.0894812
0.0409306
0.182617
0.302901
0.393762
0.462194
0.518048
0.566178
0.606409
0.634333
0.636292
0.617148
-0.688818
-0.654306
-0.59763
-0.531889
-0.46073
-0.384325
-0.30232
-0.212231
-0.107587
0.0235263
0.169956
0.295756
0.38991
0.459023
0.514849
0.566581
0.613003
0.644332
0.638658
0.613976
-0.700307
-0.665478
-0.608658
-0.543184
-0.47265
-0.397245
-0.317008
-0.229136
-0.126706
0.00430601
0.1553
0.286543
0.38333
0.451529
0.499738
0.54653
0.583329
0.592314
0.5282
0.483354
-0.710451
-0.67584
-0.618434
-0.553103
-0.483392
-0.409271
-0.331308
-0.246156
-0.146735
-0.0168752
0.138513
0.275983
0.373971
0.440164
0.474281
0.497104
0.514868
0.473376
0.393548
0.341883
-0.756956
-0.682828
-0.627491
-0.562631
-0.494005
-0.421333
-0.345275
-0.263498
-0.168072
-0.0406364
0.119237
0.263718
0.36088
0.424986
0.436132
0.423926
0.389792
0.318403
0.223848
0.172697
-0.706608
-0.692144
-0.638309
-0.575974
-0.50849
-0.437766
-0.365673
-0.289279
-0.200982
-0.0778462
0.0894968
0.243983
0.335142
0.374036
0.365296
0.222525
0.0862804
-0.00743081
-0.101589
-0.0442108
-0.732031
-0.702893
-0.64856
-0.586486
-0.51961
-0.450444
-0.380491
-0.308497
-0.227254
-0.111009
0.0596589
0.22617
0.315823
0.318379
0.234688
0.0328643
-0.149848
-0.281271
-0.418478
-0.320691
-0.748301
-0.715361
-0.660135
-0.59769
-0.531285
-0.463524
-0.39616
-0.329438
-0.256328
-0.147499
0.0247486
0.203038
0.292773
0.25896
0.0937449
-0.18378
-0.4154
-0.595455
-0.798078
-0.685979
-0.762799
-0.727568
-0.671318
-0.608257
-0.542279
-0.475897
-0.41157
-0.350502
-0.28663
-0.188001
-0.0118569
0.181677
0.272232
0.192476
-0.0727727
-0.413639
-0.720732
-0.986396
-1.28497
-1.22692
-0.775072
-0.739129
-0.682086
-0.618557
-0.552972
-0.488043
-0.427003
-0.372395
-0.319515
-0.236055
-0.0628954
0.153538
0.250016
0.11353
-0.239469
-0.642061
-1.03168
-1.37776
-1.81337
-2.11938
-0.786048
-0.749992
-0.692523
-0.628693
-0.563431
-0.499915
-0.442245
-0.39469
-0.354835
-0.291682
-0.124991
0.113565
0.214875
0.0168098
-0.399946
-0.837462
-1.29095
-1.64445
-1.84971
-2.2259
-0.796315
-0.760166
-0.702503
-0.638504
-0.573592
-0.511473
-0.45733
-0.417523
-0.393516
-0.35891
-0.210418
0.048585
0.150721
-0.126983
-0.558321
-0.987923
-1.42813
-1.69885
-1.74408
-1.79602
-0.806065
-0.769727
-0.711901
-0.647749
-0.583162
-0.522405
-0.471934
-0.44075
-0.436472
-0.443147
-0.340728
-0.0723948
0.0304614
-0.319061
-0.719116
-1.08188
-1.51204
-1.76779
-1.74088
-1.73442
-0.815343
-0.778605
-0.720494
-0.656124
-0.591718
-0.532188
-0.485335
-0.463489
-0.483125
-0.551303
-0.545115
-0.290206
-0.182238
-0.550681
-0.892777
-1.14246
-1.50249
-1.78451
-1.69518
-1.63108
-0.824033
-0.78665
-0.728054
-0.663287
-0.598826
-0.540155
-0.496575
-0.484316
-0.531903
-0.690384
-0.861043
-0.641619
-0.512171
-0.833939
-1.0793
-1.15579
-1.17275
-1.32148
-1.41439
-1.41722
-0.831882
-0.793651
-0.734327
-0.668892
-0.603988
-0.545592
-0.504456
-0.501268
-0.579569
-0.85724
-1.29131
-1.12564
-0.937099
-1.17049
-1.37327
-1.23539
-0.921584
-1.14144
-1.39572
-1.47783
-0.83854
-0.799332
-0.739029
-0.672591
-0.606714
-0.547753
-0.507596
-0.51115
-0.624251
-1.01995
-1.78463
-1.65154
-1.38425
-1.5591
-1.95552
-2.14156
-2.12662
-2.09494
-2.0458
-2.05224
-0.84397
-0.803542
-0.741895
-0.674079
-0.606581
-0.545925
-0.504635
-0.510104
-0.636526
-1.13209
-2.15884
-2.05104
-1.71645
-1.94984
-2.72973
-3.63648
-3.8514
-3.58223
-3.21369
-3.0487
-0.848047
-0.80613
-0.74282
-0.673154
-0.603302
-0.53965
-0.494492
-0.495682
-0.620936
-1.14999
-2.22073
-2.08356
-1.67149
-1.97022
-2.89807
-4.22797
-4.42239
-3.9124
-3.37091
-3.14816
-0.850652
-0.807094
-0.741809
-0.669825
-0.596876
-0.528863
-0.47701
-0.466441
-0.567293
-1.0199
-1.89652
-1.63395
-1.11256
-1.11228
-1.56802
-2.20081
-2.33182
-1.99445
-1.68829
-1.56533
-0.851809
-0.806623
-0.73904
-0.664337
-0.587637
-0.514004
-0.452734
-0.423582
-0.477013
-0.763367
-1.24904
-0.853728
-0.257427
0.0338214
0.107192
0.0823283
0.110417
0.208739
0.268153
0.282557
-0.85192
-0.805029
-0.734862
-0.657111
-0.576106
-0.496039
-0.423673
-0.371597
-0.366392
-0.461635
-0.536695
-0.120869
0.372722
0.686839
0.889788
1.03674
1.13738
1.18614
1.20018
1.20088
-0.851172
-0.802491
-0.729645
-0.648529
-0.563145
-0.476362
-0.392358
-0.316992
-0.257887
-0.207614
-0.050286
0.329383
0.694218
0.966986
1.15332
1.2871
1.37627
1.42578
1.44677
1.44982
-0.848717
-0.798593
-0.723184
-0.638818
-0.549174
-0.456115
-0.361514
-0.266325
-0.166994
-0.0351361
0.202482
0.521412
0.797682
1.01438
1.16849
1.27772
1.35352
1.40241
1.42826
1.43348
-0.841925
-0.791768
-0.714655
-0.627463
-0.534201
-0.436006
-0.333042
-0.223537
-0.0990281
0.06993
0.314033
0.57962
0.7999
0.970779
1.09611
1.18721
1.25331
1.29966
1.32689
1.33281
-0.83004
-0.780053
-0.702111
-0.612854
-0.517186
-0.415539
-0.307313
-0.189321
-0.0522669
0.127642
0.354299
0.575691
0.756536
0.896232
1.00126
1.07992
1.1391
1.18256
1.20669
1.2131
-0.806787
-0.758695
-0.682279
-0.592426
-0.495884
-0.393283
-0.283172
-0.162006
-0.021582
0.1549
0.357779
0.544036
0.694943
0.812581
0.90312
0.972723
1.02637
1.06657
1.08961
1.09627
-0.766289
-0.722062
-0.650435
-0.562099
-0.467816
-0.366964
-0.258354
-0.138977
-0.00220206
0.162714
0.340896
0.498354
0.624888
0.724756
0.803254
0.864927
0.91339
0.949868
0.971602
0.978827
-0.70509
-0.667886
-0.599883
-0.517691
-0.428736
-0.333637
-0.23094
-0.118303
0.00953685
0.158695
0.312637
0.443879
0.548625
0.631837
0.698143
0.751355
0.793599
0.825903
0.847531
0.854564
-0.612018
-0.586314
-0.526806
-0.454491
-0.375739
-0.290819
-0.198401
-0.0966338
0.0173435
0.147123
0.276389
0.383569
0.467154
0.532722
0.584451
0.625865
0.659479
0.685562
0.701969
0.706538
-0.475173
-0.462507
-0.42218
-0.36774
-0.306197
-0.237508
-0.160468
-0.0740009
0.0238545
0.135092
0.244745
0.33451
0.403332
0.455987
0.496212
0.526782
0.549696
0.56738
0.5797
0.5829
-0.32767
-0.323079
-0.300665
-0.267412
-0.226342
-0.17667
-0.11786
-0.0486671
0.0320171
0.125084
0.216787
0.291133
0.347328
0.38924
0.419834
0.441696
0.457188
0.467551
0.473183
0.474308
-0.200211
-0.198028
-0.188201
-0.170998
-0.147005
-0.114997
-0.073536
-0.0213844
0.0423651
0.117979
0.193265
0.253947
0.299037
0.331577
0.354587
0.370377
0.380503
0.386485
0.389402
0.389787
-0.103157
-0.10329
-0.100452
-0.0932152
-0.0804261
-0.0607964
-0.0328983
0.0049299
0.0538047
0.113825
0.174488
0.223225
0.259012
0.284407
0.301599
0.312573
0.319271
0.322988
0.324475
0.324517
-0.0383023
-0.0391598
-0.0400969
-0.0382708
-0.0321298
-0.0200084
-0.000970062
0.0264236
0.0633912
0.110254
0.158386
0.197062
0.225094
0.244456
0.257307
0.265476
0.270228
0.272467
0.2732
0.273165
0.00110113
0.000349816
-0.000904169
-0.000773317
0.00214574
0.00931023
0.0222524
0.0422234
0.0702297
0.106584
0.144354
0.174691
0.196587
0.211685
0.221525
0.227455
0.230699
0.232177
0.232609
0.232563
0.0248288
0.0243881
0.0236078
0.023706
0.0257037
0.030553
0.0395705
0.0539616
0.0749557
0.102965
0.132477
0.156238
0.173259
0.184756
0.1921
0.196518
0.198919
0.199965
0.200261
0.200225
0.0400659
0.039821
0.0393744
0.0394977
0.0409297
0.0444671
0.0511136
0.0618689
0.0777081
0.0991637
0.122
0.1404
0.153529
0.162391
0.168043
0.171389
0.173153
0.173898
0.174102
0.174072
0.0498367
0.0497046
0.0494685
0.0496551
0.0507754
0.0533956
0.0583083
0.0663762
0.0784131
0.0948844
0.112538
0.126796
0.136957
0.143772
0.148073
0.150604
0.151933
0.152491
0.152643
0.152619
0.0557434
0.0556743
0.0555634
0.0557769
0.0566872
0.0587051
0.0625372
0.0686008
0.0777457
0.0903728
0.103981
0.114979
0.122798
0.128026
0.131319
0.133251
0.134252
0.134663
0.134772
0.134751
0.0588239
0.0587876
0.0587497
0.0589655
0.0597065
0.061292
0.0641635
0.0688489
0.0758563
0.0855477
0.0960232
0.104498
0.110518
0.114536
0.117058
0.118529
0.119287
0.119594
0.119674
0.119655
0.0598232
0.0598039
0.0598058
0.0600104
0.0606165
0.0618622
0.0640713
0.0676792
0.0730529
0.080498
0.0885606
0.0950834
0.0997128
0.102797
0.10473
0.105847
0.10642
0.106649
0.106704
0.106688
0.059266
0.0592549
0.0592727
0.0594519
0.0599384
0.0609098
0.0626076
0.0654206
0.0695456
0.0752671
0.0814666
0.0864826
0.090038
0.0924022
0.0938841
0.0947347
0.0951685
0.0953376
0.0953764
0.095362
0.0575215
0.0575143
0.0575351
0.0576837
0.0580701
0.0588299
0.0601507
0.0623112
0.0654897
0.0698901
0.0746585
0.0785132
0.0812429
0.0830558
0.0841901
0.0848362
0.0851621
0.085286
0.0853122
0.0853
0.0548598
0.0548549
0.0548741
0.0549938
0.0552978
0.0558901
0.0569136
0.0585697
0.0610219
0.0644062
0.0680693
0.0710292
0.0731246
0.0745171
0.0753797
0.0758707
0.0761161
0.0762067
0.0762241
0.0762139
0.0514879
0.0514841
0.0514994
0.0515927
0.0518282
0.0522846
0.0530666
0.0543651
0.0562408
0.0588416
0.0616559
0.0639268
0.0655316
0.0666035
0.0672547
0.067626
0.0678102
0.0678767
0.0678882
0.0678795
0.047565
0.0475619
0.0475735
0.0476453
0.0478263
0.0481774
0.0487815
0.0497509
0.051219
0.0532155
0.0553718
0.0571096
0.0583339
0.0591595
0.059653
0.0599344
0.0600727
0.060121
0.0601282
0.060121
0.0432172
0.0432144
0.0432227
0.0432773
0.0434153
0.0436839
0.0441449
0.0448729
0.0460143
0.0475428
0.0491922
0.0505206
0.0514708
0.0520842
0.0524589
0.05267
0.0527723
0.052807
0.0528113
0.0528054
0.0385416
0.0385391
0.0385448
0.0385858
0.0386906
0.0388949
0.0392463
0.0398066
0.0406663
0.0418376
0.0430938
0.0441057
0.0448315
0.0452919
0.0455734
0.045731
0.0458062
0.0458297
0.0458316
0.045827
0.0336163
0.033614
0.0336174
0.0336469
0.0337243
0.033877
0.034141
0.0345598
0.035218
0.0361034
0.0370525
0.037814
0.0383639
0.0387079
0.0389194
0.0390377
0.0390927
0.0391089
0.0391089
0.0391055
0.0285009
0.0284987
0.0284996
0.0285199
0.0285764
0.0286895
0.0288856
0.0291991
0.0296934
0.0303506
0.0310636
0.0316323
0.0320387
0.0322953
0.0324505
0.0325347
0.032573
0.032583
0.0325823
0.0325794
0.0232417
0.0232396
0.0232391
0.0232525
0.0232929
0.0233742
0.0235159
0.0237446
0.0241016
0.0245846
0.0251034
0.0255222
0.0258185
0.026005
0.0261165
0.0261759
0.026202
0.0262077
0.0262059
0.0262032
0.0178741
0.0178721
0.0178706
0.0178787
0.0179051
0.0179605
0.01806
0.0182261
0.018472
0.0188115
0.0191767
0.0194692
0.0196729
0.0198031
0.0198785
0.0199186
0.019935
0.0199373
0.0199352
0.0199334
0.0124298
0.012428
0.0124254
0.0124288
0.0124445
0.01248
0.0125444
0.0126502
0.0128097
0.0130297
0.0132651
0.0134533
0.0135836
0.0136679
0.0137177
0.0137423
0.0137499
0.0137477
0.0137442
0.0137428
0.00692968
0.00692829
0.00692547
0.0069258
0.00693317
0.00695116
0.00698459
0.00704007
0.0071239
0.00724034
0.00736601
0.00746779
0.00753792
0.00758251
0.00760706
0.00761752
0.00761865
0.00761435
0.00761071
0.00760974
0.00139222
0.0013917
0.00138875
0.00138353
0.00138219
0.00138401
0.0013894
0.00139918
0.00141375
0.00143458
0.00146048
0.00148491
0.00150315
0.00151475
0.00152155
0.00152502
0.00152525
0.00152258
0.00151775
0.00151596
-0.938723
-0.631297
-0.321701
-0.078579
0.116859
0.276416
0.414514
0.532612
0.587791
0.568822
-0.419733
-0.230363
-0.042544
0.11764
0.253812
0.369204
0.464037
0.532156
0.567806
0.576865
-0.0885121
0.0316214
0.154118
0.263589
0.358498
0.438315
0.501548
0.547351
0.578026
0.592855
0.131637
0.212605
0.297725
0.374725
0.441703
0.498122
0.54367
0.578826
0.605007
0.621167
0.292456
0.349941
0.410066
0.466405
0.51598
0.558536
0.593999
0.622734
0.644713
0.661209
0.418003
0.459419
0.506703
0.550288
0.589661
0.624274
0.65396
0.678373
0.696752
0.713488
0.523262
0.557252
0.597155
0.634294
0.668456
0.698991
0.725363
0.746843
0.762275
0.779287
0.619673
0.652337
0.689953
0.725131
0.757317
0.786035
0.810472
0.829957
0.843171
0.860412
0.719818
0.755376
0.794081
0.829682
0.861208
0.888638
0.911539
0.929228
0.94109
0.958835
0.837964
0.877503
0.916991
0.95239
0.982619
1.00802
1.02891
1.04502
1.05664
1.07499
0.984658
1.02473
1.06084
1.09188
1.11803
1.14054
1.15991
1.17572
1.18856
1.20675
1.16025
1.19282
1.21897
1.24157
1.26192
1.28095
1.29883
1.3156
1.3315
1.34978
1.3486
1.36636
1.38212
1.39883
1.41512
1.42985
1.44305
1.45716
1.47438
1.4941
1.53048
1.54152
1.55382
1.56481
1.57425
1.58389
1.59479
1.60645
1.61644
1.63164
1.7416
1.74363
1.72861
1.71362
1.70733
1.71303
1.7318
1.76221
1.79423
1.82494
2.04783
1.91087
1.8346
1.79234
1.77486
1.77903
1.80623
1.86242
1.96611
2.18146
0.306019
0.302723
0.296989
0.287448
0.274835
0.262838
0.253007
0.245497
0.240174
0.237045
0.236543
0.238833
0.243381
0.249997
0.258806
0.269903
0.282581
0.294209
0.301407
0.305966
0.223378
0.229353
0.236743
0.242528
0.245952
0.246225
0.243874
0.240384
0.237076
0.234791
0.234415
0.236317
0.239509
0.243257
0.246507
0.247795
0.245983
0.241263
0.234777
0.227388
0.215207
0.217562
0.22149
0.225114
0.227873
0.230061
0.231416
0.23166
0.23108
0.230456
0.230486
0.231297
0.232346
0.232849
0.232242
0.230543
0.228148
0.225064
0.221155
0.217826
0.210649
0.211501
0.214292
0.217989
0.220978
0.223006
0.224361
0.225262
0.225759
0.225996
0.226258
0.22658
0.226655
0.226257
0.225335
0.223814
0.221442
0.218068
0.214595
0.21285
0.210092
0.210354
0.211616
0.213626
0.215676
0.217774
0.219614
0.220954
0.221828
0.222374
0.222759
0.222958
0.222758
0.222014
0.220655
0.218827
0.216849
0.214895
0.213177
0.212508
0.209234
0.209351
0.209914
0.210898
0.211976
0.212999
0.21408
0.215206
0.216197
0.216977
0.217487
0.21761
0.217331
0.216719
0.215929
0.215163
0.214165
0.2132
0.212419
0.212137
0.20723
0.207275
0.207594
0.208236
0.208989
0.20994
0.210992
0.211924
0.212845
0.213681
0.214298
0.214546
0.214413
0.21402
0.213397
0.212577
0.211981
0.211368
0.210933
0.210799
0.204494
0.204513
0.204664
0.205012
0.205476
0.206046
0.206733
0.207536
0.208405
0.209274
0.21001
0.210406
0.210466
0.21031
0.210048
0.209746
0.209437
0.209134
0.208938
0.208884
0.20126
0.201273
0.201375
0.201613
0.201967
0.202429
0.203016
0.203732
0.20457
0.205501
0.206392
0.207017
0.207317
0.20739
0.207331
0.207202
0.207046
0.206892
0.206795
0.206767
0.197629
0.197635
0.197709
0.197882
0.198155
0.198543
0.199074
0.199775
0.200658
0.201709
0.202809
0.203671
0.204202
0.20449
0.204625
0.204666
0.204656
0.204624
0.204601
0.204593
0.193654
0.193659
0.193719
0.19387
0.194117
0.194487
0.19502
0.195758
0.196736
0.197965
0.199334
0.200496
0.20129
0.201797
0.202106
0.202285
0.20238
0.202425
0.202446
0.202449
0.189327
0.189328
0.189395
0.189546
0.189799
0.190193
0.190778
0.191614
0.192759
0.194247
0.195963
0.197479
0.198557
0.199302
0.199784
0.200087
0.200271
0.200377
0.20043
0.200442
0.184621
0.184619
0.184691
0.184859
0.185147
0.1856
0.186286
0.187282
0.188669
0.190506
0.192669
0.194624
0.196055
0.197045
0.19771
0.198141
0.19841
0.198569
0.19865
0.19867
0.179463
0.17946
0.179546
0.179746
0.180091
0.18064
0.181475
0.182699
0.184419
0.186717
0.189448
0.191941
0.193782
0.195074
0.195948
0.19652
0.19688
0.197096
0.197207
0.197234
0.17375
0.173746
0.173852
0.174101
0.174531
0.175215
0.176259
0.177792
0.179952
0.182848
0.186302
0.189467
0.191811
0.193463
0.194585
0.195321
0.195787
0.196066
0.19621
0.196246
0.167344
0.167338
0.167473
0.16779
0.168335
0.169202
0.170526
0.172468
0.175204
0.17887
0.18324
0.187242
0.190208
0.1923
0.193722
0.194657
0.195248
0.195604
0.195787
0.195832
0.160052
0.160045
0.160221
0.160628
0.161329
0.162442
0.164135
0.166616
0.1701
0.174753
0.180281
0.18533
0.189065
0.191698
0.193488
0.194663
0.195409
0.195857
0.196088
0.196144
0.151619
0.15161
0.15184
0.152372
0.153283
0.154723
0.156907
0.160094
0.16455
0.170468
0.177457
0.18381
0.188496
0.191795
0.194036
0.195509
0.196443
0.197006
0.197294
0.197365
0.141689
0.141678
0.141986
0.14269
0.143887
0.145767
0.148607
0.152728
0.158449
0.165987
0.174812
0.182783
0.188641
0.192761
0.195557
0.197396
0.198564
0.199268
0.199629
0.199715
0.129775
0.129763
0.130183
0.131133
0.132723
0.135204
0.138932
0.144301
0.151678
0.161285
0.172406
0.182371
0.189665
0.19479
0.198271
0.200563
0.202023
0.202907
0.203361
0.203467
0.115197
0.115188
0.11578
0.117083
0.119226
0.122548
0.127506
0.134563
0.144118
0.156363
0.170328
0.18272
0.191759
0.198112
0.202436
0.205292
0.207121
0.208239
0.208818
0.208951
0.0969628
0.0969699
0.0978406
0.0996726
0.102628
0.107179
0.113891
0.123264
0.135686
0.151263
0.168701
0.184001
0.195134
0.202979
0.208347
0.211913
0.214212
0.215636
0.216384
0.216556
0.0735267
0.0735795
0.0749351
0.0776168
0.081866
0.0883292
0.0976197
0.110205
0.126386
0.14611
0.167695
0.186403
0.199996
0.209637
0.216303
0.220781
0.223698
0.225526
0.226505
0.226739
0.0423148
0.0424988
0.0447609
0.0489772
0.0554978
0.0650863
0.0782421
0.0952877
0.116332
0.141104
0.167507
0.190092
0.206505
0.21827
0.226555
0.232243
0.236029
0.23844
0.239754
0.240079
-0.0012857
-0.000719496
0.00362191
0.0110739
0.0218833
0.0366625
0.055568
0.0786685
0.105809
0.136511
0.168318
0.195157
0.214692
0.228899
0.239168
0.246486
0.251579
0.254994
0.256929
0.257371
-0.0655973
-0.0632576
-0.0531858
-0.038602
-0.01974
0.00328167
0.0302561
0.0610582
0.0953869
0.132701
0.170291
0.201587
0.224415
0.24128
0.253839
0.263217
0.270179
0.275258
0.278401
0.278875
-0.14342
-0.138722
-0.119777
-0.0935963
-0.0641379
-0.0315956
0.00412551
0.0430486
0.0850186
0.129615
0.173953
0.210859
0.23816
0.258875
0.274922
0.287556
0.297679
0.305739
0.309927
0.311768
-0.222265
-0.210628
-0.182316
-0.146116
-0.107062
-0.0654174
-0.0211652
0.0257804
0.075325
0.127168
0.178274
0.220784
0.252404
0.276666
0.295784
0.311158
0.323668
0.333824
0.34059
0.343749
-0.279917
-0.267354
-0.234143
-0.19151
-0.145283
-0.096278
-0.0446626
0.009472
0.0659911
0.124579
0.181867
0.229173
0.264123
0.290728
0.311439
0.327807
0.340854
0.351219
0.358148
0.361329
-0.325674
-0.312821
-0.276317
-0.229239
-0.177996
-0.1235
-0.0660113
-0.00579596
0.0568422
0.121447
0.184238
0.23569
0.273296
0.301526
0.323172
0.340037
0.353302
0.363713
0.370752
0.373755
-0.362712
-0.350071
-0.311607
-0.26126
-0.206196
-0.147413
-0.0852201
-0.0199233
0.048073
0.118182
0.186101
0.241332
0.281244
0.310813
0.33317
0.350344
0.363675
0.374013
0.381033
0.383988
-0.394222
-0.38179
-0.342058
-0.289347
-0.231289
-0.169007
-0.102833
-0.0331258
0.039639
0.114749
0.187435
0.246247
0.288362
0.319198
0.342216
0.359687
0.373107
0.383424
0.390484
0.393393
-0.421963
-0.409676
-0.369044
-0.314531
-0.254148
-0.189019
-0.119509
-0.046007
0.0310302
0.110838
0.188221
0.250683
0.295085
0.327267
0.351017
0.368833
0.38238
0.392701
0.399796
0.402657
-0.447162
-0.434936
-0.393606
-0.337663
-0.275423
-0.207987
-0.135666
-0.0588125
0.0221343
0.106437
0.188524
0.254805
0.301698
0.335392
0.359992
0.378244
0.391976
0.402321
0.409468
0.412283
-0.470632
-0.458416
-0.416472
-0.359358
-0.295569
-0.226201
-0.151492
-0.071721
0.0127802
0.101385
0.188266
0.258656
0.308346
0.343802
0.369429
0.38823
0.402217
0.412649
0.41976
0.422526
-0.492857
-0.480621
-0.438115
-0.380022
-0.314975
-0.243987
-0.167259
-0.0849408
0.00280138
0.095558
0.187355
0.262214
0.315085
0.352622
0.379507
0.399004
0.413332
0.423902
0.431038
0.433749
-0.514165
-0.501818
-0.458761
-0.39988
-0.333805
-0.261476
-0.183061
-0.0985657
-0.00790389
0.0888312
0.185667
0.265387
0.321887
0.361896
0.39033
0.410715
0.425503
0.436258
0.443429
0.446102
-0.534686
-0.522204
-0.478628
-0.419066
-0.352132
-0.278733
-0.198944
-0.11263
-0.0194045
0.0811027
0.183068
0.26803
0.328649
0.371581
0.401924
0.423445
0.438846
0.449888
0.457098
0.459735
-0.554386
-0.541726
-0.497761
-0.437675
-0.369982
-0.295759
-0.214913
-0.12714
-0.0317197
0.0722841
0.179417
0.269977
0.335197
0.381557
0.414236
0.437216
0.453425
0.464857
0.472156
0.474784
-0.573384
-0.560516
-0.516124
-0.455599
-0.387346
-0.312514
-0.230914
-0.142059
-0.0448395
0.0623443
0.174588
0.271033
0.341299
0.391613
0.427134
0.451959
0.46924
0.4812
0.488649
0.491215
-0.591601
-0.578594
-0.533819
-0.472826
-0.404182
-0.328935
-0.24687
-0.157311
-0.0587234
0.051263
0.168491
0.271003
0.346686
0.401435
0.440337
0.467488
0.486209
0.498939
0.506638
0.509086
-0.609039
-0.595824
-0.550761
-0.489321
-0.420424
-0.344956
-0.262699
-0.172801
-0.0732977
0.0390609
0.161068
0.269729
0.351069
0.410602
0.453437
0.483544
0.504134
0.51785
0.525856
0.528147
-0.625479
-0.612155
-0.566788
-0.505033
-0.435986
-0.360481
-0.278305
-0.188428
-0.0884654
0.0257944
0.152303
0.26711
0.354137
0.418638
0.465903
0.499748
0.5229
0.53785
0.546016
0.548029
-0.641086
-0.627641
-0.581898
-0.519947
-0.450829
-0.375451
-0.293579
-0.204082
-0.104116
0.0115508
0.142214
0.263065
0.355637
0.42497
0.476961
0.515461
0.542451
0.559218
0.567029
0.568205
-0.655761
-0.642176
-0.596118
-0.533989
-0.464888
-0.389786
-0.308434
-0.219632
-0.120117
-0.00358825
0.130877
0.257574
0.355365
0.4291
0.485691
0.529558
0.562226
0.582756
0.589677
0.587817
-0.669567
-0.655816
-0.609397
-0.547129
-0.47814
-0.403429
-0.322784
-0.23498
-0.136343
-0.0194731
0.118393
0.250706
0.353373
0.430585
0.490726
0.539981
0.580231
0.609011
0.618962
0.608174
-0.682466
-0.668612
-0.621812
-0.55949
-0.490751
-0.416614
-0.33693
-0.250542
-0.153362
-0.0368291
0.104019
0.241978
0.349288
0.42902
0.490602
0.543805
0.591598
0.632245
0.649257
0.648627
-0.694474
-0.680438
-0.633354
-0.571049
-0.502715
-0.429336
-0.350831
-0.266295
-0.171205
-0.0558081
0.0875096
0.231316
0.342945
0.424158