/*--------------------------------*- C++ -*----------------------------------*\
  =========                 |
  \\      /  F ield         | OpenFOAM: The Open Source CFD Toolbox
   \\    /   O peration     | Website:  https://openfoam.org
    \\  /    A nd           | Version:  9
     \\/     M anipulation  |
\*---------------------------------------------------------------------------*/
FoamFile
{
    format      ascii;
    class       surfaceScalarField;
    location    "8";
    object      phi;
}
// * * * * * * * * * * * * * * * * * * * * * * * * * * * * * * * * * * * * * //

dimensions      [0 3 -1 0 0 0 0];

internalField   nonuniform List<scalar> 
17370
(
-0.0910339
0.0934608
0.286584
-0.074827
0.056756
0.364846
-0.0406539
0.0295951
0.427227
-0.0208106
0.0152328
0.50483
-0.0110191
0.0083242
0.602097
-0.00615825
0.00468448
0.720531
-0.00346337
0.00260823
0.863762
-0.00188027
0.00136264
1.03597
-0.000907505
0.000571702
1.24284
-0.000260015
-3.81431e-05
1.49149
0.000331972
-0.000646565
1.49151
0.000984909
-0.00144038
1.24315
0.00195821
-0.00268843
1.03637
0.00354087
-0.00475639
0.864122
0.0062254
-0.00838625
0.721218
0.0110727
-0.0152747
0.603417
0.0208438
-0.0296216
0.508217
0.040676
-0.0567741
0.432266
0.0748412
-0.0934692
0.365403
0.0910406
0.19797
-0.127562
0.0885887
0.038973
-0.364959
0.354224
-0.0720549
0.0827899
-0.446795
0.454435
-0.0808538
0.0732136
-0.521262
0.529655
-0.0653157
0.0569224
-0.612801
0.621096
-0.0491686
0.040873
-0.726688
0.733606
-0.0337445
0.0268261
-0.867298
0.87213
-0.0214868
0.0166546
-1.03838
1.04163
-0.0130325
0.00978912
-1.24461
1.24688
-0.00732172
0.00504989
-1.49276
1.49459
-0.00321603
0.00138291
-1.49257
1.49419
0.000221555
-0.00183663
-1.24403
1.24584
0.0036631
-0.00547208
-1.03748
1.03991
0.00770585
-0.0101407
-0.865995
0.869586
0.0133397
-0.0169303
-0.724254
0.729566
0.0217303
-0.0270429
-0.608676
0.615788
0.0339417
-0.0410538
-0.515146
0.522888
0.0493375
-0.0570789
-0.440067
0.447947
0.0654538
-0.0733339
-0.375321
0.377234
0.0809532
-0.0828668
-0.257181
0.224067
0.0721059
-0.0389925
-0.0694466
0.0602314
0.00921525
-0.0492209
0.055251
-0.375039
0.369009
-0.0538791
0.0498111
-0.453696
0.457764
-0.0446453
0.0405459
-0.527713
0.531812
-0.036534
0.0329076
-0.621046
0.624673
-0.0289879
0.025307
-0.734673
0.738354
-0.0213124
0.0177308
-0.873771
0.877352
-0.0140844
0.0109955
-1.04304
1.04612
-0.00788683
0.00522063
-1.24818
1.25084
-0.00235387
-0.000426641
-1.49628
1.49906
0.00317841
-0.00600919
-1.49683
1.49966
0.00863645
-0.0116861
-1.24966
1.25271
0.0147128
-0.0182944
-1.0454
1.04898
0.0218212
-0.0257556
-0.877099
0.881034
0.0293927
-0.0332705
-0.739254
0.743132
0.0368563
-0.0408256
-0.626371
0.63034
0.0448916
-0.0500318
-0.534875
0.540015
0.0540744
-0.055417
-0.458125
0.459468
0.0493471
-0.0302867
-0.337533
0.318473
0.00923642
-0.0693867
0.0601503
-0.055051
0.0517637
0.00328735
-0.0276677
0.0366975
-0.360625
0.351595
-0.0398366
0.0391823
-0.45998
0.460635
-0.0362741
0.0332321
-0.535692
0.538734
-0.0299078
0.0271324
-0.627948
0.630724
-0.0241912
0.0216023
-0.741198
0.743787
-0.0188564
0.0164256
-0.880059
0.882489
-0.0137014
0.011168
-1.04884
1.05137
-0.00828817
0.00556504
-1.25362
1.25635
-0.00243196
-0.000596297
-1.50216
1.50519
0.00361379
-0.00669008
-1.50276
1.50584
0.00934798
-0.0121637
-1.25562
1.25844
0.0146459
-0.0173177
-1.05189
1.05456
0.0196959
-0.0223755
-0.883971
0.886651
0.0248962
-0.0277665
-0.746332
0.749202
0.0304667
-0.0337166
-0.634266
0.637516
0.0367036
-0.0395524
-0.544447
0.547296
0.0401464
-0.0369289
-0.45836
0.455142
0.0278206
-0.0132045
-0.300911
0.286295
0.00331284
-0.0549459
0.0516331
-0.0498512
0.0490093
0.00084189
-0.0111917
0.0180442
-0.343272
0.336419
-0.0230194
0.0251429
-0.459787
0.457663
-0.0258845
0.0256893
-0.540345
0.540541
-0.0251592
0.0242804
-0.632578
0.633456
-0.0229344
0.0213267
-0.745991
0.747598
-0.0192128
0.0169987
-0.884902
0.887116
-0.0143397
0.0117297
-1.05394
1.05655
-0.00870351
0.0057969
-1.25909
1.26199
-0.00244588
-0.000787874
-1.50818
1.51141
0.00399908
-0.0073051
-1.50894
1.51225
0.0101459
-0.0130749
-1.26128
1.26421
0.0155846
-0.0181189
-1.05722
1.05976
0.0202225
-0.0222184
-0.889134
0.89113
0.0237242
-0.0250226
-0.751363
0.752662
0.0258538
-0.0262752
-0.639377
0.639798
0.0263851
-0.025553
-0.548244
0.547412
0.023353
-0.0182941
-0.450605
0.445546
0.0113644
-0.00416721
-0.275482
0.268284
0.000870732
-0.0496959
0.0488251
-0.0487112
0.0485397
0.000171461
-0.0045099
0.00897063
-0.330955
0.326495
-0.0139761
0.0176274
-0.454643
0.450992
-0.0204808
0.0219226
-0.539778
0.538336
-0.0225512
0.0225622
-0.633684
0.633673
-0.0220503
0.0210955
-0.748732
0.749687
-0.0195304
0.0176722
-0.889085
0.890943
-0.015197
0.012572
-1.05918
1.0618
-0.00935896
0.00619784
-1.26506
1.26822
-0.00249621
-0.00116593
-1.5149
1.51856
0.00481134
-0.00844781
-1.51576
1.5194
0.0115004
-0.0145436
-1.26721
1.27025
0.0169908
-0.0192908
-1.06213
1.06443
0.0209751
-0.0223607
-0.892705
0.894091
0.0231845
-0.0235814
-0.753373
0.75377
0.0234292
-0.0227
-0.639377
0.638648
0.0211685
-0.0182214
-0.545344
0.542396
0.01448
-0.00935781
-0.440384
0.435261
0.00477398
-0.00141494
-0.263554
0.260195
0.00021624
-0.0484857
0.0482695
-0.0484108
0.0483605
5.0317e-05
-0.00216782
0.00504529
-0.32284
0.319963
-0.00928324
0.0132377
-0.446987
0.443032
-0.0169339
0.019431
-0.536232
0.533735
-0.021079
0.021621
-0.633499
0.632957
-0.0213874
0.0206224
-0.750575
0.75134
-0.0192278
0.017506
-0.892785
0.894507
-0.0151686
0.0126841
-1.06439
1.06688
-0.00958903
0.00632907
-1.27145
1.27471
-0.00235677
-0.00158042
-1.52238
1.52632
0.00547987
-0.00930881
-1.52313
1.52696
0.0124181
-0.0153709
-1.2733
1.27626
0.017721
-0.0198654
-1.0667
1.06885
0.0213967
-0.022564
-0.895414
0.896581
0.0230701
-0.0231215
-0.7539
0.753952
0.0224252
-0.0205853
-0.637487
0.635647
0.0179103
-0.0140226
-0.538799
0.534911
0.00989458
-0.00547222
-0.430345
0.425922
0.00244321
-0.000662609
-0.257716
0.255936
9.29911e-05
-0.0481011
0.0480081
-0.0483661
0.0483836
-1.74397e-05
-0.000855847
0.00240881
-0.317806
0.316253
-0.00512077
0.00801895
-0.439509
0.43661
-0.0110344
0.0133179
-0.531231
0.528948
-0.0150811
0.0160644
-0.632061
0.631078
-0.0164488
0.0162798
-0.751805
0.751974
-0.0155762
0.014469
-0.895955
0.897062
-0.0127677
0.0108059
-1.06913
1.0711
-0.00819412
0.00529073
-1.27787
1.28077
-0.00162826
-0.00202728
-1.53022
1.53387
0.0055976
-0.00909962
-1.53074
1.53424
0.0118552
-0.014345
-1.279
1.28149
0.0161643
-0.0176358
-1.07073
1.0722
0.0185257
-0.0189953
-0.897484
0.897953
0.0189331
-0.0182131
-0.753527
0.752807
0.0169318
-0.0148659
-0.633537
0.631471
0.0123266
-0.00905654
-0.531187
0.527917
0.00594547
-0.00301519
-0.422218
0.419287
0.00126745
-0.000342103
-0.254669
0.253743
5.08322e-05
-0.0479573
0.0479064
-0.0484007
0.0484245
-2.38638e-05
-0.000305873
0.00102084
-0.315177
0.314462
-0.00241267
0.0040537
-0.434371
0.43273
-0.00594082
0.00750989
-0.526997
0.525428
-0.0089035
0.00983703
-0.63008
0.629146
-0.0104463
0.0106129
-0.751931
0.751765
-0.0103518
0.00971783
-0.897907
0.898541
-0.00858751
0.00716379
-1.07278
1.0742
-0.00517092
0.00299533
-1.28333
1.2855
-0.000238915
-0.00256063
-1.53713
1.53993
0.00527955
-0.00782644
-1.5373
1.53985
0.0097869
-0.0116621
-1.2837
1.28558
0.0128863
-0.0136296
-1.07329
1.07403
0.0138772
-0.0137308
-0.898076
0.89793
0.01321
-0.0122303
-0.751906
0.750926
0.0109768
-0.0092554
-0.629539
0.627817
0.00740854
-0.0052378
-0.525196
0.523026
0.00335149
-0.00169742
-0.417058
0.415404
0.000750335
-0.000235168
-0.253055
0.25254
4.76828e-05
-0.0478525
0.0478048
-0.0484581
0.0484969
-3.87622e-05
-9.8385e-06
0.000288816
-0.314007
0.313728
-0.00089527
0.00166845
-0.431581
0.430808
-0.00262861
0.00348814
-0.524235
0.523375
-0.00432754
0.00494993
-0.628349
0.627726
-0.00541958
0.00560045
-0.751559
0.751378
-0.00549983
0.00512775
-0.899017
0.899389
-0.0043927
0.00341167
-1.07539
1.07637
-0.00200649
0.000521176
-1.28731
1.2888
0.0013503
-0.00325344
-1.54226
1.54417
0.00509018
-0.00672305
-1.5419
1.54354
0.00789234
-0.00893445
-1.28704
1.28809
0.00951625
-0.00974588
-1.07449
1.07472
0.00963764
-0.00922304
-0.897609
0.897194
0.00860317
-0.00770329
-0.749957
0.749058
0.00671552
-0.00549943
-0.626351
0.625135
0.00431551
-0.00302067
-0.521341
0.520047
0.00195574
-0.00104359
-0.414185
0.413273
0.000505973
-0.000182331
-0.252143
0.25182
4.35304e-05
-0.0477623
0.0477188
-0.048543
0.0485999
-5.68888e-05
0.000188422
-0.000145021
-0.313575
0.313532
-6.47909e-05
0.000365777
-0.430308
0.430007
-0.00076189
0.00113181
-0.522789
0.522419
-0.00150568
0.00178665
-0.627282
0.627002
-0.00199042
0.0020386
-0.751257
0.751208
-0.00191553
0.00162832
-0.899702
0.899989
-0.00109978
0.000407518
-1.07718
1.07788
0.000570548
-0.00158452
-1.29002
1.29104
0.00283486
-0.00408084
-1.54571
1.54695
0.00524913
-0.00623257
-1.54482
1.5458
0.00684511
-0.00718739
-1.28875
1.28909
0.00728331
-0.00720636
-1.07477
1.0747
0.00694362
-0.00646963
-0.896737
0.896263
0.00590121
-0.00517249
-0.748246
0.747517
0.00444239
-0.00360639
-0.624132
0.623296
0.0028406
-0.00203869
-0.519041
0.518239
0.00139028
-0.000820743
-0.412568
0.411998
0.00045217
-0.000190747
-0.251537
0.251276
5.3887e-05
-0.0476706
0.0476167
-0.0486658
0.0487401
-7.42909e-05
0.000364268
-0.000453278
-0.31356
0.313649
0.000476518
-0.000441584
-0.429856
0.429821
0.000372307
-0.00030804
-0.522219
0.522155
0.000256167
-0.000241965
-0.626864
0.626849
0.000282921
-0.000395073
-0.751239
0.751351
0.000616817
-0.000923162
-0.900277
0.900583
0.00138714
-0.00193432
-1.07848
1.07903
0.00266272
-0.00340055
-1.29189
1.29263
0.00427409
-0.00509377
-1.54796
1.54878
0.00580246
-0.00634649
-1.54655
1.54709
0.00658775
-0.00653204
-1.28918
1.28912
0.00633113
-0.00605034
-1.07452
1.07423
0.00568815
-0.00518606
-0.895778
0.895276
0.00466184
-0.00404506
-0.746855
0.746238
0.00346526
-0.00283286
-0.622582
0.621949
0.00227429
-0.00170035
-0.517575
0.517001
0.00123128
-0.000796187
-0.411514
0.411079
0.000481181
-0.000222837
-0.251021
0.250763
6.83058e-05
-0.0475562
0.0474879
-0.0488237
0.0489189
-9.51576e-05
0.000520716
-0.000730301
-0.313802
0.314012
0.000912445
-0.00104943
-0.42988
0.430017
0.00119067
-0.00132922
-0.522201
0.52234
0.0015026
-0.00168856
-0.626942
0.627128
0.00193168
-0.0022
-0.751542
0.75181
0.00255371
-0.00293794
-0.900923
0.901307
0.00343176
-0.00394714
-1.07955
1.08006
0.00457328
-0.00516998
-1.29328
1.29388
0.00582126
-0.00636415
-1.54945
1.54999
0.00675624
-0.0069566
-1.54745
1.54765
0.00693212
-0.00668919
-1.28898
1.28874
0.0063393
-0.00590409
-1.07387
1.07343
0.00544409
-0.00489097
-0.894751
0.894198
0.00436145
-0.00377389
-0.745645
0.745058
0.00324474
-0.00268514
-0.621366
0.620807
0.00220053
-0.00170504
-0.51648
0.515985
0.00129138
-0.000885716
-0.410667
0.410262
0.000564172
-0.000274046
-0.250492
0.250202
8.72898e-05
-0.0474107
0.0473234
-0.049027
0.0491489
-0.000121912
0.000695469
-0.00100773
-0.314272
0.314585
0.00132409
-0.00159981
-0.430226
0.430501
0.00190672
-0.00220595
-0.522561
0.52286
0.00256222
-0.00291744
-0.6274
0.627755
0.00334267
-0.00376719
-0.752156
0.752581
0.00427369
-0.0047739
-0.901745
0.902245
0.00535964
-0.0059196
-1.08059
1.08115
0.00654302
-0.00709065
-1.29444
1.29499
0.00762478
-0.00799473
-1.55044
1.55081
0.00817168
-0.00812887
-1.54772
1.54768
0.00790614
-0.00748608
-1.2884
1.28798
0.0070128
-0.00643784
-1.07293
1.07235
0.00587547
-0.00523929
-0.893608
0.892972
0.00465661
-0.00403088
-0.744459
0.743833
0.00348056
-0.00290806
-0.620249
0.619677
0.00241693
-0.0019146
-0.515494
0.514992
0.00148776
-0.00105251
-0.409847
0.409412
0.000687841
-0.000341525
-0.249886
0.24954
0.000110624
-0.047225
0.0471144
-0.0492864
0.0494415
-0.000155076
0.000901453
-0.00132455
-0.31495
0.315373
0.00177489
-0.00218372
-0.430843
0.431252
0.0026476
-0.00309976
-0.523235
0.523688
0.00363233
-0.00415454
-0.628193
0.628715
0.00476569
-0.00535848
-0.753087
0.75368
0.00604214
-0.00669117
-0.902816
0.903465
0.00741753
-0.00807719
-1.08176
1.08242
0.00876839
-0.00933298
-1.29554
1.2961
0.00982457
-0.0100904
-1.55112
1.55138
0.0101122
-0.00987655
-1.54753
1.5473
0.00947619
-0.00888524
-1.28748
1.28689
0.00826358
-0.00753094
-1.0717
1.07097
0.00683873
-0.0060777
-0.892279
0.891518
0.00539567
-0.0046751
-0.743166
0.742446
0.00404864
-0.00340228
-0.619074
0.618428
0.00285009
-0.0022847
-0.514464
0.513899
0.0017989
-0.00129228
-0.408946
0.408439
0.000854945
-0.000428844
-0.249157
0.248731
0.000139942
-0.0469899
0.04685
-0.0496172
0.0498159
-0.000198728
0.00116363
-0.001719
-0.315859
0.316414
0.00232108
-0.00287594
-0.43173
0.432285
0.00350987
-0.00412786
-0.524219
0.524837
0.00485283
-0.00555944
-0.629326
0.630032
0.00637965
-0.00716656
-0.754365
0.755152
0.00806137
-0.00889607
-0.904201
0.905036
0.00980977
-0.0106171
-1.08314
1.08395
0.0114327
-0.0120661
-1.2967
1.29733
0.012569
-0.0127746
-1.55162
1.55182
0.0126725
-0.0122592
-1.54697
1.54656
0.0116798
-0.0108899
-1.2862
1.28541
0.0100857
-0.00915685
-1.07015
1.06922
0.00829511
-0.0073604
-0.890677
0.889742
0.00653176
-0.00566303
-0.741658
0.740789
0.00491208
-0.00414034
-0.617725
0.616953
0.00348242
-0.00280814
-0.513285
0.51261
0.00222511
-0.00160985
-0.407883
0.407268
0.00107084
-0.000539361
-0.248256
0.247724
0.000176476
-0.0466928
0.0465163
-0.0500423
0.0502981
-0.000255799
0.00150147
-0.0022225
-0.317047
0.317768
0.00301004
-0.00374023
-0.432921
0.433652
0.00457632
-0.00539106
-0.525548
0.526363
0.00634423
-0.00727024
-0.630844
0.63177
0.00834047
-0.0093618
-0.756051
0.757072
0.0105153
-0.0115818
-0.90598
0.907047
0.0127358
-0.0137399
-1.08485
1.08585
0.0147325
-0.015478
-1.29801
1.29876
0.0160314
-0.0162002
-1.55201
1.55218
0.0159809
-0.0153783
-1.54605
1.54545
0.0145938
-0.0135636
-1.28451
1.28348
0.0125322
-0.0113553
-1.06817
1.067
0.0102734
-0.00910847
-0.888699
0.887534
0.00808114
-0.00700832
-0.739826
0.738753
0.00608361
-0.0051349
-0.6161
0.615151
0.00432675
-0.00349789
-0.511865
0.511036
0.00277902
-0.00201624
-0.406584
0.405821
0.00134375
-0.000677567
-0.247129
0.246463
0.000221761
-0.0463185
0.0460968
-0.0505916
0.050923
-0.000331351
0.00194362
-0.00287821
-0.318587
0.319522
0.00390221
-0.00485352
-0.43448
0.435431
0.00594166
-0.00700015
-0.52729
0.528349
0.00823459
-0.00943091
-0.632826
0.634022
0.0108099
-0.012122
-0.758234
0.759546
0.0135981
-0.0149556
-0.908251
0.909609
0.0164135
-0.017669
-1.08698
1.08823
0.0188918
-0.0197887
-1.29958
1.30047
0.0204208
-0.0205607
-1.55233
1.55247
0.0202114
-0.0193859
-1.54474
1.54392
0.0183524
-0.017022
-1.2823
1.28097
0.0157048
-0.0142127
-1.06567
1.06418
0.0128488
-0.0113861
-0.886229
0.884766
0.0101
-0.00876003
-0.737554
0.736214
0.00760665
-0.00642442
-0.614094
0.612911
0.00541757
-0.00438452
-0.510113
0.50908
0.00348724
-0.00253277
-0.40497
0.404015
0.00168891
-0.00085146
-0.245717
0.244879
0.00027843
-0.0458486
0.0455702
-0.0513057
0.0517391
-0.000433332
0.00253135
-0.00374698
-0.320579
0.321795
0.00508072
-0.00631809
-0.436499
0.437736
0.00772673
-0.00909131
-0.529551
0.530916
0.0106763
-0.0122097
-0.635389
0.636922
0.0139749
-0.0156526
-0.761037
0.762715
0.0175349
-0.0192593
-0.911138
0.912863
0.0210992
-0.0226702
-1.08963
1.0912
0.0241805
-0.0252655
-1.30146
1.30254
0.0259946
-0.0260973
-1.55259
1.5527
0.0255848
-0.0244808
-1.54296
1.54186
0.0231347
-0.0214261
-1.27947
1.27776
0.0197478
-0.0178577
-1.0625
1.06061
0.0161371
-0.0142973
-0.883123
0.881283
0.0126831
-0.011003
-0.734712
0.733032
0.00955738
-0.00807518
-0.61159
0.610108
0.00681175
-0.00551389
-0.507929
0.506631
0.00438535
-0.00318413
-0.402949
0.401748
0.00212222
-0.00106896
-0.243941
0.242888
0.00034919
-0.0452596
0.0449104
-0.0522403
0.052817
-0.000576628
0.00333397
-0.00492727
-0.323161
0.324755
0.00667166
-0.00827726
-0.439114
0.440719
0.0100871
-0.0118284
-0.532481
0.534223
0.0138451
-0.015799
-0.638695
0.640649
0.0180526
-0.0201969
-0.764626
0.76677
0.022599
-0.0247902
-0.914796
0.916987
0.0271119
-0.029074
-1.09295
1.09491
0.0309339
-0.03224
-1.30373
1.30503
0.0330718
-0.0331105
-1.55277
1.55281
0.0323802
-0.0309176
-1.54058
1.53912
0.0291753
-0.026989
-1.27582
1.27363
0.024857
-0.0224667
-1.05847
1.05608
0.0202986
-0.0179863
-0.879209
0.876897
0.0159614
-0.013856
-0.73114
0.729035
0.0120444
-0.0101842
-0.608449
0.606589
0.00859446
-0.00695633
-0.50519
0.503552
0.00552902
-0.00400991
-0.400411
0.398892
0.00267022
-0.00134415
-0.24171
0.240384
0.000439374
-0.0445238
0.0440844
-0.0534749
0.0542595
-0.000784599
0.0044599
-0.00656496
-0.326524
0.328629
0.00884394
-0.0109038
-0.442518
0.444577
0.0131937
-0.0153852
-0.536291
0.538482
0.0179328
-0.020422
-0.642957
0.645446
0.0233122
-0.0260692
-0.769205
0.771962
0.0291486
-0.0319381
-0.919407
0.922197
0.0348628
-0.0373012
-1.09705
1.09949
0.0395711
-0.0411207
-1.30643
1.30798
0.0420406
-0.0419638
-1.55278
1.5527
0.0409338
-0.0390056
-1.53743
1.53551
0.0367598
-0.0339747
-1.27116
1.26837
0.0312772
-0.0282659
-1.05338
1.05037
0.0255439
-0.0226486
-0.874276
0.871381
0.0201187
-0.0174917
-0.726646
0.724019
0.0152303
-0.012903
-0.604501
0.602174
0.0109043
-0.00883146
-0.501753
0.49968
0.00701558
-0.00507983
-0.397224
0.395289
0.0033794
-0.00170179
-0.238912
0.237234
0.000558598
-0.0436085
0.0430499
-0.0551325
0.0562208
-0.00108834
0.00606271
-0.00885937
-0.330943
0.33374
0.0118198
-0.0144283
-0.446984
0.449592
0.0172901
-0.0200407
-0.541259
0.544009
0.0232831
-0.0264943
-0.648445
0.651657
0.0302485
-0.0338207
-0.775027
0.778599
0.0377754
-0.04131
-0.925188
0.928723
0.044958
-0.0479418
-1.10207
1.10506
0.0506525
-0.0524325
-1.30957
1.31135
0.0533804
-0.0530943
-1.55249
1.55221
0.0516456
-0.0491118
-1.53327
1.53074
0.0462321
-0.0427046
-1.26522
1.26169
0.0393112
-0.0355389
-1.04697
1.04319
0.0321398
-0.0285348
-0.868074
0.864469
0.0253938
-0.0221397
-0.720996
0.717741
0.0193403
-0.0164543
-0.599535
0.596649
0.0139596
-0.0113439
-0.497434
0.494818
0.00902314
-0.00652712
-0.393228
0.390732
0.00433802
-0.00218598
-0.235407
0.233255
0.00072273
-0.042473
0.0417503
-0.0574109
0.0589586
-0.00154769
0.00844537
-0.0122079
-0.336823
0.340586
0.0160674
-0.019382
-0.452878
0.456192
0.0229909
-0.0265115
-0.547743
0.551264
0.0307411
-0.0349633
-0.655501
0.659724
0.0398798
-0.0444884
-0.782415
0.787023
0.0494945
-0.0538746
-0.932379
0.936759
0.0582965
-0.0618227
-1.10811
1.11164
0.0649182
-0.0668353
-1.31309
1.315
0.0676656
-0.0670056
-1.55167
1.55101
0.0649641
-0.0616446
-1.52779
1.52447
0.0579768
-0.0535438
-1.25769
1.25326
0.0493103
-0.0446212
-1.03892
1.03423
0.040404
-0.0359394
-0.860315
0.85585
0.0320587
-0.0280511
-0.713912
0.709904
0.0246126
-0.0210718
-0.593289
0.589749
0.0179959
-0.0147308
-0.491994
0.488729
0.0117753
-0.00853283
-0.388212
0.384969
0.00566779
-0.00285072
-0.23102
0.228203
0.00094555
-0.0410619
0.0401163
-0.060633
0.0629628
-0.00232982
0.0123564
-0.0175234
-0.344764
0.349931
0.0225831
-0.0268347
-0.460728
0.46498
0.0314789
-0.0361091
-0.556242
0.560873
0.0417362
-0.0473065
-0.664589
0.670159
0.0536586
-0.059449
-0.791749
0.79754
0.0655738
-0.0707902
-0.941174
0.946391
0.0759131
-0.0798637
-1.11514
1.11909
0.0831634
-0.0850151
-1.31674
1.3186
0.0854752
-0.0841924
-1.54996
1.54868
0.0813223
-0.0769954
-1.52061
1.51628
0.0723627
-0.0668501
-1.24826
1.24275
0.0616284
-0.0558651
-1.02894
1.02318
0.0506836
-0.0451932
-0.850692
0.845202
0.0404182
-0.0354904
-0.705089
0.700161
0.0312712
-0.0269387
-0.585457
0.581125
0.0231699
-0.0191409
-0.485124
0.481095
0.0154221
-0.0112438
-0.381867
0.377688
0.00748044
-0.0037443
-0.225497
0.221761
0.00123133
-0.0392862
0.0380549
-0.065378
0.0692318
-0.00385387
0.0193909
-0.0266069
-0.35582
0.363036
0.0332294
-0.0387594
-0.471403
0.476933
0.0448782
-0.051075
-0.567456
0.573653
0.0585242
-0.0656642
-0.676275
0.683415
0.0735122
-0.0804189
-0.803322
0.810228
0.0875029
-0.093355
-0.951521
0.957373
0.0989033
-0.102983
-1.12283
1.12691
0.106131
-0.107574
-1.32006
1.3215
0.107291
-0.105056
-1.54681
1.54458
0.101074
-0.095499
-1.51127
1.5057
0.0897275
-0.0829818
-1.23658
1.22984
0.0766525
-0.0696946
-1.01674
1.00978
0.0634389
-0.0567907
-0.838921
0.832273
0.0509824
-0.0449635
-0.694224
0.688205
0.0397927
-0.0344726
-0.575711
0.570391
0.0298392
-0.0248729
-0.476447
0.47148
0.0202061
-0.0148639
-0.37373
0.368388
0.00992999
-0.0049531
-0.218403
0.213426
0.00160028
-0.0370054
0.0354051
-0.072867
0.0801477
-0.00728066
0.0333877
-0.0439113
-0.372037
0.382561
0.0526176
-0.0597124
-0.486099
0.493193
0.0677939
-0.0758911
-0.582128
0.590225
0.0852181
-0.0936933
-0.690891
0.699367
0.102595
-0.110126
-0.816948
0.82448
0.117571
-0.123462
-0.962862
0.968753
0.12876
-0.13234
-1.13043
1.13401
0.134682
-0.135141
-1.32222
1.32268
0.133565
-0.129938
-1.54149
1.53786
0.124507
-0.117445
-1.49928
1.49222
0.110387
-0.102317
-1.22237
1.2143
0.0948304
-0.0866582
-1.00213
0.993957
0.0793246
-0.0715231
-0.824819
0.817017
0.0646809
-0.05755
-0.681082
0.673951
0.0513805
-0.0450054
-0.563731
0.557356
0.0394523
-0.0334619
-0.465501
0.459511
0.0276227
-0.0205277
-0.36313
0.356035
0.0136604
-0.00664207
-0.208956
0.201938
0.002042
-0.0340454
0.0320034
-0.0873919
0.0902975
-0.00290561
0.0209008
-0.0300155
-0.396388
0.405503
0.0384002
-0.0461809
-0.505833
0.513614
0.0555371
-0.0653441
-0.600053
0.60986
0.076095
-0.0856636
-0.707517
0.717086
0.0963015
-0.105706
-0.831292
0.840696
0.115471
-0.12384
-0.97375
0.982119
0.132159
-0.138828
-1.13655
1.14322
0.144777
-0.148691
-1.32202
1.32593
0.150823
-0.150305
-1.53307
1.53255
0.146997
-0.14128
-1.48414
1.47842
0.134487
-0.125789
-1.20545
1.19675
0.117216
-0.106845
-0.985095
0.974724
0.0972417
-0.0865799
-0.808457
0.797795
0.0769537
-0.0666365
-0.665733
0.655416
0.0572568
-0.0476169
-0.54948
0.53984
0.0393727
-0.0302556
-0.451995
0.442878
0.021902
-0.0131779
-0.349047
0.340323
0.00651959
-0.00187115
-0.195468
0.190819
-2.34178e-05
-0.0299983
0.0300217
-0.0976301
0.0932213
0.00440889
-0.0029037
-0.00235768
-0.417872
0.423133
0.00973623
-0.0168376
-0.525222
0.532323
0.0257233
-0.0341561
-0.619724
0.628157
0.0437077
-0.05241
-0.726601
0.735304
0.0616932
-0.0701065
-0.849631
0.858044
0.0788642
-0.0861125
-0.990217
0.997465
0.0935573
-0.0992446
-1.14978
1.15547
0.104327
-0.107454
-1.32971
1.33284
0.108653
-0.107534
-1.53146
1.53034
0.103826
-0.0979296
-1.47218
1.46628
0.0910103
-0.0824617
-1.18784
1.17929
0.0742181
-0.0647734
-0.964392
0.954947
0.0559101
-0.0460536
-0.78677
0.776914
0.0372141
-0.0281226
-0.643796
0.634704
0.0203586
-0.0123991
-0.528095
0.520136
0.00562804
0.000890973
-0.431158
0.424639
-0.0057106
0.00891914
-0.329901
0.326693
-0.00891922
0.00611112
-0.183827
0.186635
-0.00268253
-0.0284689
0.0311514
-0.0952285
0.0910243
0.00420421
-0.00968607
0.00756639
-0.432304
0.434423
-0.00283891
-0.00288686
-0.541644
0.54737
0.0100362
-0.0171053
-0.636721
0.64379
0.0250788
-0.0323878
-0.74351
0.750819
0.0404055
-0.0475491
-0.865811
0.872954
0.0547939
-0.0611618
-1.00456
1.01093
0.0675507
-0.072561
-1.16081
1.16582
0.0767033
-0.0791311
-1.33548
1.33791
0.0801142
-0.0789102
-1.52886
1.52765
0.0754322
-0.0701484
-1.46031
1.45503
0.0641323
-0.057003
-1.17123
1.1641
0.0499373
-0.0422077
-0.945906
0.938177
0.0351145
-0.0273889
-0.768015
0.760289
0.0208054
-0.0140798
-0.625788
0.619062
0.00858521
-0.00300448
-0.511155
0.505574
-0.00125224
0.0049475
-0.416224
0.412528
-0.0073721
0.00817348
-0.320112
0.31931
-0.00670889
0.00394118
-0.183644
0.186412
-0.00164393
-0.0309821
0.032626
-0.0917651
0.0879765
0.00378858
-0.0113798
0.0110439
-0.441323
0.441659
-0.00796145
0.00340884
-0.554398
0.558951
0.00259374
-0.00828939
-0.650526
0.656221
0.0148773
-0.0209529
-0.757827
0.763903
0.027593
-0.0335448
-0.879637
0.885589
0.0399734
-0.0452858
-1.01692
1.02223
0.0508486
-0.0548433
-1.17054
1.17454
0.0584989
-0.0606849
-1.34033
1.34251
0.0614925
-0.060245
-1.52639
1.52514
0.0573984
-0.0530774
-1.44976
1.44544
0.048124
-0.0420218
-1.15739
1.15129
0.0363468
-0.0302593
-0.93089
0.924802
0.0246006
-0.0188169
-0.753319
0.747536
0.0136042
-0.00853711
-0.612322
0.607255
0.00442733
-0.000637334
-0.499271
0.495481
-0.00208485
0.00437521
-0.406416
0.404125
-0.00578919
0.00581882
-0.31444
0.314411
-0.00466002
0.00273468
-0.183792
0.185717
-0.00117254
-0.0318879
0.0330604
-0.0887487
0.0857501
0.00299868
-0.0106592
0.0114521
-0.447068
0.446275
-0.00903336
0.00549689
-0.564762
0.568298
-0.00078305
-0.00414783
-0.661857
0.666788
0.00947271
-0.0146423
-0.769557
0.774727
0.0202033
-0.0252175
-0.891162
0.896176
0.030592
-0.0352405
-1.02743
1.03208
0.0399072
-0.0436173
-1.17849
1.1822
0.0468486
-0.0488256
-1.34453
1.3465
0.0496582
-0.0486935
-1.52405
1.52308
0.0463907
-0.0426688
-1.44094
1.43722
0.0385572
-0.0336349
-1.14566
1.14074
0.0289762
-0.0238896
-0.918963
0.913877
0.0193784
-0.0146803
-0.741995
0.737297
0.0106486
-0.00663985
-0.602265
0.598256
0.00348865
-0.000621531
-0.490758
0.487891
-0.0015703
0.0032654
-0.399632
0.397937
-0.00408999
0.00430205
-0.310397
0.310185
-0.0035787
0.0020354
-0.182733
0.184276
-0.000927809
-0.0321044
0.0330322
-0.0866027
0.0842364
0.00236636
-0.00910828
0.0099993
-0.450756
0.449865
-0.00864548
0.00571918
-0.572608
0.575534
-0.00149588
-0.00250129
-0.671192
0.675189
0.00687891
-0.0111952
-0.779327
0.783643
0.0159563
-0.0202936
-0.900886
0.905223
0.0250922
-0.0290892
-1.03648
1.04048
0.0332701
-0.0366516
-1.18572
1.1891
0.0396059
-0.041473
-1.34839
1.35026
0.0423519
-0.0419779
-1.52228
1.52191
0.0400633
-0.0370664
-1.43342
1.43043
0.0335453
-0.0293141
-1.13599
1.13176
0.0255313
-0.0210631
-0.909012
0.904543
0.017159
-0.0132368
-0.732791
0.728869
0.00980692
-0.00638076
-0.594341
0.590914
0.00362942
-0.00094903
-0.484144
0.481464
-0.000784886
0.00223584
-0.394233
0.392782
-0.00321324
0.00345439
-0.306613
0.306372
-0.00285149
0.00168363
-0.18128
0.182447
-0.00075118
-0.0319827
0.0327339
-0.0852519
0.083484
0.00176798
-0.00728653
0.00823542
-0.453441
0.452492
-0.00703789
0.00483284
-0.579308
0.581513
-0.00121047
-0.00220018
-0.678942
0.682353
0.00619155
-0.00973253
-0.787721
0.791262
0.013742
-0.0174523
-0.909554
0.913264
0.0219091
-0.0254702
-1.04451
1.04807
0.0291442
-0.0323647
-1.19235
1.19557
0.0355402
-0.0373852
-1.35227
1.35411
0.0385145
-0.0383353
-1.52135
1.52117
0.0370925
-0.034341
-1.42746
1.42471
0.0314302
-0.0278462
-1.1276
1.12402
0.0243837
-0.020561
-0.900302
0.896479
0.0170193
-0.0133072
-0.724846
0.721133
0.0104038
-0.00718189
-0.587374
0.584152
0.0045126
-0.00213669
-0.478188
0.475812
0.000332465
0.00125082
-0.38959
0.388007
-0.002137
0.00249623
-0.30327
0.302911
-0.00213263
0.00129827
-0.179663
0.180498
-0.000605469
-0.0316709
0.0322764
-0.0846158
0.083238
0.00137786
-0.00570659
0.00661884
-0.455585
0.454672
-0.00547413
0.00344127
-0.58488
0.586913
-0.000325984
-0.00254766
-0.685579
0.688453
0.00578099
-0.00908401
-0.794859
0.798162
0.0126443
-0.0163995
-0.916806
0.920561
0.020094
-0.0234246
-1.05172
1.05505
0.0271828
-0.0301727
-1.1987
1.20169
0.0329395
-0.035262
-1.35596
1.35828
0.0367026
-0.0369513
-1.52121
1.52145
0.036016
-0.0339441
-1.42229
1.42022
0.0314099
-0.0281594
-1.12025
1.117
0.0250441
-0.0214633
-0.89262
0.889039
0.0181419
-0.0147652
-0.717512
0.714135
0.0116962
-0.00864532
-0.580786
0.577735
0.00613363
-0.00358287
-0.472813
0.470262
0.00162709
-0.000170631
-0.384975
0.383519
-0.000852
0.00148606
-0.299922
0.299287
-0.00146356
0.000923653
-0.177846
0.178386
-0.000469638
-0.0312322
0.0317018
-0.0845665
0.0833776
0.00118889
-0.00424659
0.00484246
-0.457596
0.457
-0.00392246
0.00201039
-0.589739
0.591651
0.000628838
-0.00328459
-0.691445
0.694101
0.00627254
-0.00912923
-0.801352
0.804209
0.012721
-0.0156638
-0.923788
0.926731
0.0192506
-0.0223483
-1.05852
1.06162
0.0259461
-0.0290933
-1.20468
1.20783
0.0321394
-0.0343003
-1.36044
1.3626
0.0361655
-0.036914
-1.52176
1.52251
0.0366831
-0.0349529
-1.41815
1.41642
0.0328083
-0.0298383
-1.11388
1.11091
0.0269381
-0.0234442
-0.885272
0.881778
0.0202989
-0.016846
-0.710537
0.707084
0.0137894
-0.0106441
-0.574477
0.571332
0.00794839
-0.00549368
-0.467284
0.464829
0.00335084
-0.00166913
-0.38038
0.378699
0.000350205
0.000474121
-0.296371
0.295546
-0.000708918
0.000615867
-0.175679
0.175772
-0.000330257
-0.030619
0.0309493
-0.0847297
0.0838217
0.000907931
-0.00314493
0.00324994
-0.459795
0.45969
-0.00255187
0.000723807
-0.593746
0.595574
0.0014847
-0.00393976
-0.696637
0.699092
0.00669521
-0.00960448
-0.806994
0.809903
0.012546
-0.0155655
-0.929869
0.932889
0.0190323
-0.0218597
-1.06511
1.06794
0.0254741
-0.0285366
-1.2108
1.21387
0.0316254
-0.0343193
-1.3652
1.3679
0.0367271
-0.0378678
-1.52341
1.52455
0.0379809
-0.0369785
-1.41495
1.41395
0.0353235
-0.0325859
-1.10785
1.10511
0.0297467
-0.0265113
-0.878192
0.874957
0.023038
-0.0196766
-0.703368
0.700007
0.0165443
-0.0131976
-0.568165
0.564818
0.0104983
-0.00773081
-0.461608
0.458841
0.00546979
-0.00333895
-0.375781
0.373651
0.00186711
-0.000721978
-0.292581
0.291436
8.11719e-06
0.000282264
-0.173139
0.172849
-0.000246603
-0.0297584
0.030005
-0.0851933
0.0843916
0.000801679
-0.00235221
0.00247729
-0.462144
0.462019
-0.00131715
-0.000170788
-0.597687
0.599175
0.00243312
-0.00470084
-0.701214
0.703482
0.00724546
-0.00971649
-0.812534
0.815005
0.0126964
-0.0153446
-0.935897
0.938545
0.0186735
-0.0218292
-1.07118
1.07434
0.0250203
-0.0283388
-1.21698
1.2203
0.0317985
-0.0345983
-1.37056
1.37336
0.0374386
-0.0394508
-1.52603
1.52804
0.0401411
-0.0398608
-1.41296
1.41268
0.0384397
-0.0360759
-1.10244
1.10008
0.0334904
-0.0301832
-0.871316
0.868009
0.0268171
-0.0232673
-0.696133
0.692583
0.019987
-0.0163794
-0.561276
0.557668
0.0133585
-0.01041
-0.455597
0.452649
0.00774285
-0.00533523
-0.3706
0.368192
0.00351499
-0.00201672
-0.288285
0.286787
0.000987808
-0.000188471
-0.17021
0.169411
-9.86091e-05
-0.0287293
0.0288279
-0.0857927
0.0851208
0.000671915
-0.00155402
0.00150902
-0.464549
0.464594
-0.000548625
-0.00112153
-0.601082
0.602752
0.00319885
-0.00524861
-0.705441
0.70749
0.00779763
-0.0100597
-0.817463
0.819725
0.0128132
-0.0154899
-0.941608
0.944285
0.018628
-0.0216601
-1.07733
1.08036
0.024969
-0.0282447
-1.22356
1.22683
0.0318382
-0.0353586
-1.37652
1.38004
0.038699
-0.0411369
-1.53014
1.53258
0.0426849
-0.0429216
-1.41245
1.41268
0.0421615
-0.0403532
-1.09774
1.09593
0.0377687
-0.0345269
-0.864447
0.861206
0.0311298
-0.0272951