/*--------------------------------*- C++ -*----------------------------------*\
  =========                 |
  \\      /  F ield         | OpenFOAM: The Open Source CFD Toolbox
   \\    /   O peration     | Website:  https://openfoam.org
    \\  /    A nd           | Version:  9
     \\/     M anipulation  |
\*---------------------------------------------------------------------------*/
FoamFile
{
    format      ascii;
    class       volScalarField;
    location    "36";
    object      p;
}
// * * * * * * * * * * * * * * * * * * * * * * * * * * * * * * * * * * * * * //

dimensions      [0 2 -2 0 0 0 0];

internalField   nonuniform List<scalar> 
918
(
0.631851
1.28467
0.0118222
0.631181
0.00951638
1.25171
-0.425737
0.797378
0.611994
-0.0165901
0.0432126
0.607062
1.1123
0.877922
-1.05231
0.0816733
0.748138
-0.305236
0.611007
0.0443887
0.83299
0.618582
0.621615
0.612202
0.674543
0.858947
0.992993
0.0188106
-0.0102033
-0.00449653
0.0587738
0.0359235
0.0417691
1.13536
1.18643
1.20911
0.580334
0.405757
-0.285994
-0.355797
-0.348223
-0.472486
0.789266
0.791349
-0.0959546
0.798786
0.808361
0.599199
0.611356
0.612242
0.61334
0.612288
0.613683
0.487826
-0.0216946
-0.0544032
0.00345879
0.0149908
0.142548
0.0465512
0.0450749
0.045739
0.05105
0.531318
0.602922
0.600116
0.61214
0.620414
1.22422
1.19615
1.22228
1.13591
1.15243
1.0903
1.06285
0.899049
0.920527
0.862348
0.850828
-1.49042
-2.45352
-0.456035
-0.20165
-0.0123977
0.0812748
0.0908082
0.739168
0.737811
0.749559
0.761758
1.15816
-0.300424
-0.422564
0.61113
0.609926
0.618323
0.619018
0.615031
0.614126
0.0501705
0.0549538
0.0282593
0.041269
0.0413361
0.822303
0.820636
0.612745
0.609765
0.627715
0.648465
0.640345
0.363592
0.678532
0.690846
0.680424
0.847968
0.842777
0.851414
0.966571
0.929297
1.03027
1.05361
-0.00710091
-0.0067984
0.0625545
0.0575682
0.0743534
0.576281
0.569041
0.595168
0.58369
0.586108
0.321449
0.186473
0.491339
0.51654
-0.197096
-0.258854
-0.359397
-0.378904
-0.493794
0.680999
0.779828
0.779433
-0.116332
-0.0382699
-0.172208
0.0346813
-0.0251702
0.589615
0.596521
0.591579
0.606957
0.601463
0.60341
0.615584
0.612658
0.61422
0.551275
0.675469
0.414066
0.379634
-0.165705
-0.0739399
-0.167911
0.0269662
0.0318734
0.154963
0.182121
0.132373
0.120235
0.0383027
0.0453419
0.0424858
0.0577397
0.056715
0.52451
0.513989
0.54358
0.550878
0.593265
0.594368
0.597571
0.596132
1.01372
1.03609
1.04353
1.01734
-3.45539
-6.25964
0.127932
0.267195
-0.0169179
-0.00266378
-0.0156261
0.0484091
0.00718108
0.00701796
0.0940996
0.0914669
0.0917317
0.0925918
0.723884
0.723116
1.07595
1.07491
1.05872
1.00767
0.599197
0.601323
0.606898
0.602736
0.0561291
0.0564179
0.0598586
0.808775
0.816277
0.815238
0.32689
0.240704
0.412372
0.439896
0.710268
0.695043
0.707834
0.742043
0.777679
1.06103
1.07921
1.07753
1.08586
1.12993
1.14637
1.11162
0.556438
0.566015
0.56118
0.598359
0.596061
0.597001
0.592519
0.593978
0.591765
0.0343569
-0.349337
0.569517
0.586741
0.565329
0.572495
0.759893
0.834977
0.761774
0.771297
0.770039
0.100188
0.0436049
0.338149
0.303799
0.466778
0.501629
0.481549
0.984813
0.945338
0.995302
0.968846
0.93018
0.956204
-0.300969
-1.81524
-0.92591
0.62246
0.433672
0.522193
0.106976
0.0956155
0.102933
1.06948
1.1484
0.732005
0.898672
0.908002
0.816506
0.847852
0.902201
0.826417
0.862032
0.898243
0.880475
0.637207
0.582616
0.592574
0.903908
0.959279
0.214685
0.160136
0.115785
0.201562
0.255682
0.229971
1.1129
1.01547
1.08693
0.609514
0.610209
0.00393396
0.037446
0.614346
0.614395
0.0479987
0.0739688
0.504781
-0.762269
0.203777
0.602831
0.593071
0.610005
0.00203182
0.445206
0.0427221
0.142946
0.0959785
0.604695
0.541639
0.502593
0.0561014
0.0674991
0.049641
-0.127856
0.607186
0.605496
0.609465
0.610449
0.611107
0.0485553
0.0279189
0.0170874
0.048068
0.0450139
0.0431069
0.574718
0.591968
-0.0818123
0.609587
0.611714
0.611527
0.604692
0.61039
0.60859
0.0690436
0.0742269
0.0599549
0.311329
0.432764
0.75188
0.846772
0.717921
0.490838
0.251772
0.651468
0.717243
0.619478
0.777963
0.772752
0.791692
0.267171
0.119939
0.275422
0.217126
0.600697
0.599343
0.591312
0.588417
0.60485
0.602958
0.607513
0.604471
0.607458
0.608863
0.0394479
0.017546
0.0042256
-0.0586123
0.401446
0.66255
0.33955
0.370932
0.231
0.0511406
0.0506817
0.0430254
0.0407524
0.0915682
0.0806874
0.137047
0.141356
0.116425
0.0952674
0.0848927
0.0796832
0.0744968
0.598323
0.596776
0.603051
0.611741
0.550964
0.554744
0.521036
0.540735
0.526902
0.467595
0.502039
0.477672
0.0556329
0.0635539
0.0372561
0.0739912
0.0856122
0.0640051
0.0608986
0.0540567
0.055968
0.0544698
0.0601154
0.0602827
-0.0862716
-0.198948
1.06326
0.999681
0.20586
0.596376
0.6028
0.599584
0.604389
0.607504
0.608344
0.606103
0.602685
0.59252
0.594294
0.590731
0.591424
-0.0199832
-0.15699
0.0170112
-0.0512036
0.215578
0.703379
0.445379
0.385308
0.379757
0.60187
1.00353
0.798528
0.792362
0.814558
-0.266484
0.13039
-0.19943
0.419822
0.24146
0.750197
0.800627
0.823093
0.770035
0.721504
-0.0358566
0.624871
0.0277987
0.0735637
0.267294
0.157891
0.793339
0.756067
0.761851
0.779727
0.799123
0.761628
0.742184
0.737736
0.775347
0.778888
0.577957
0.344294
0.299324
0.260111
0.739232
0.618532
0.675797
0.587896
0.595632
0.598418
0.596996
0.579394
0.586731
0.582442
0.588248
0.591502
0.600601
0.600953
0.596351
0.598543
0.0382273
0.0372072
0.0548499
-0.0523484
-0.0413293
-0.101219
0.0163358
0.155798
0.118664
0.314107
0.42018
0.133204
0.0170801
0.0462345
0.0798887
0.259027
0.28357
0.160074
0.250735
0.235146
0.221548
0.325074
0.332327
0.0680589
0.0594513
0.059973
0.0587281
0.113137
0.180932
0.193266
0.0920958
0.0838168
0.0532178
0.0566705
0.0651828
0.0630175
0.0643466
0.101656
0.0238947
0.07097
0.0917785
0.0961075
0.0904045
0.0845148
0.591384
0.593348
0.593129
0.600953
0.617604
0.633034
0.592214
0.572719
0.563654
0.566635
0.540239
0.550162
0.546131
0.559232
0.579516
0.588373
0.586462
0.589019
0.572332
0.573725
0.560843
0.564712
0.540736
0.522481
0.510895
0.0543511
0.0570137
0.0729011
0.0384817
0.0735718
0.0788418
0.0961128
0.108973
0.092255
0.0902785
0.0869452
0.0713312
0.0748248
0.00649223
0.0852177
-0.102265
-0.134363
-0.203467
0.967303
1.08759
0.891516
0.667541
0.680996
0.919854
1.00569
0.629619
0.814266
0.837556
0.65362
0.91976
0.601205
0.600798
0.598394
0.597883
0.599121
0.0691804
0.170282
0.178914
0.233285
0.347583
0.460699
0.386255
0.263224
0.396266
0.400544
0.698714
0.714115
0.662893
0.686118
0.683821
0.511427
0.589899
0.644649
0.59716
0.643793
0.666381
0.626925
0.657547
0.603107
0.559157
0.557245
0.505005
0.526087
0.504175
0.48598
0.590841
0.568636
0.578901
0.56999
0.589338
0.61451
0.610369
0.63956
0.650568
0.573903
0.533058
0.542852
0.571631
0.532286
0.545918
0.561621
0.298598
0.197818
0.282305
-0.00944178
0.0714655
0.0563061
0.00923076
0.0547201
0.340635
-0.357583
-0.330354
-0.963096
0.564176
1.03417
0.74664
0.719226
0.794904
0.773701
0.776638
0.799622
0.806404
0.728782
0.747207
0.750476
0.708027
0.73128
0.754558
0.751992
0.598595
0.472311
0.464131
0.423087
0.297129
0.331254
0.533643
0.456237
0.382251
0.385224
0.547936
0.436268
0.502613
0.541282
0.472916
0.428016
0.632146
0.698356
0.688398
0.663313
0.579866
0.593494
0.618538
0.654516
0.681615
0.713804
0.588046
0.593847
0.595123
0.592583
0.58982
0.592734
0.592836
0.595351
0.596194
0.599107
0.598095
0.0473743
0.059046
0.0477174
0.0395075
0.0640501
0.0593364
0.105072
0.0922031
0.0786991
0.0852523
0.0581411
0.0549133
0.0604303
0.0693574
0.178566
0.19325
0.179793
0.139695
0.326332
0.458614
0.528462
0.405293
0.298986
0.324034
0.346876
0.0737391
0.103124
0.0884779
0.128471
0.119096
0.0641546
0.0578912
0.060639
0.06549
0.078137
0.0602246
0.0684959
0.0773026
0.0661166
0.0587225
0.0565424
0.574821
0.56838
0.569523
0.563767
0.562781
0.576226
0.580593
0.582351
0.587684
0.589649
0.580254
0.585649
0.589194
0.0927958
0.0735214
0.069168
0.0784701
0.0783808
0.0797635
0.077737
0.198091
0.125093
0.130798
0.085673
-0.040405
0.0163535
0.561013
0.558382
0.555572
0.790054
0.641103
0.559992
0.655897
0.762295
0.347511
0.545748
0.379244
0.959327
0.85247
0.998213
0.615564
0.31226
0.466653
0.517087
0.326178
0.398513
0.403878
0.292991
0.324623
0.356423
0.457073
0.335047
0.30943
0.0678769
0.256226
0.372261
0.353393
0.480827
0.543201
0.332821
0.252274
0.207712
0.690737
0.709933
0.729718
0.69988
0.72438
0.650099
0.640206
0.658175
0.666051
0.661653
-0.691552
-0.399736
-1.34344
-0.658713
-0.20942
0.593506
0.557107
0.836253
0.723674
0.787927
0.773142
0.732655
0.698997
0.710858
0.743262
0.441148
0.552189
0.526273
0.53241
0.433805
0.366967
0.667106
0.661217
0.697188
0.721279
0.68883
0.72192
0.585793
0.585411
0.585101
0.581531
0.579885
0.582034
0.141975
0.112407
0.145553
0.128074
0.105481
0.0937861
0.0886075
0.0820552
0.0767477
0.075831
0.0858018
0.0853206
0.23911
0.181077
0.10393
0.134902
0.0732987
0.00708718
-0.0114296
0.0892035
0.181923
0.171991
0.478155
0.72901
0.550383
0.718608
0.558487
0.613954
0.545747
0.537173
0.564955
0.450827
0.530909
0.292879
-0.209704
-0.118594
0.850953
0.869507
0.650813
0.464772
0.23613
0.425185
0.624758
0.560652
0.599088
0.668062
0.660241
0.0796349
0.147016
0.405524
0.633412
0.302877
0.294673
0.289576
0.463422
0.388399
)
;

boundaryField
{
    wall-4
    {
        type            zeroGradient;
    }
    velocity-inlet-5
    {
        type            zeroGradient;
    }
    velocity-inlet-6
    {
        type            zeroGradient;
    }
    pressure-outlet-7
    {
        type            fixedValue;
        value           uniform 0;
    }
    wall-8
    {
        type            zeroGradient;
    }
    frontAndBackPlanes
    {
        type            empty;
    }
}


// ************************************************************************* //
