/*--------------------------------*- C++ -*----------------------------------*\
  =========                 |
  \\      /  F ield         | OpenFOAM: The Open Source CFD Toolbox
   \\    /   O peration     | Website:  https://openfoam.org
    \\  /    A nd           | Version:  9
     \\/     M anipulation  |
\*---------------------------------------------------------------------------*/
FoamFile
{
    format      ascii;
    class       surfaceScalarField;
    location    "36";
    object      phi;
}
// * * * * * * * * * * * * * * * * * * * * * * * * * * * * * * * * * * * * * //

dimensions      [0 3 -1 0 0 0 0];

internalField   nonuniform List<scalar> 
1300
(
3.75095
5.62643
-3.02672
3.75095
-6.63233
5.62643
-4.4347
4.4347
-0.938152
0.938152
1.87642
1.87453
-2.93055
2.93055
-2.349
2.349
-2.55696
2.55696
-5.24641
5.24641
-5.06889
5.06889
4.66717
-4.66717
-6.04244
6.04244
-1.29467
1.29467
-3.80467
3.80467
3.16978
-3.16978
-2.28571
2.28571
-0.248281
0.248281
-0.55352
4.30447
3.19743
3.19743
-2.03935
2.03935
-4.86315
4.86315
6.21803
-6.21803
4.64517
-4.64517
-1.61846
-2.12556
1.18489
-10.8242
-5.44745
-5.44745
-8.44038
8.44038
-2.81395
2.81248
2.94397
-2.94397
-1.77861
1.77861
-4.37267
-0.0620225
-4.37267
4.42596
0.0087381
4.42596
-1.03312
0.0949717
-1.03312
3.91035
-3.91035
0.810363
0.127789
0.810363
3.06483
-3.06483
-1.87705
3.75348
1.8739
-1.87186
6.17633
-1.8791
3.75363
-5.96654
5.96654
-3.15152
0.220968
-3.15152
2.75608
0.174476
2.75608
-6.75725
6.75725
-2.40468
0.0556847
-2.40468
2.33738
0.0116228
2.33738
2.86854
-2.86854
-2.657
0.100047
-2.657
2.44732
0.109639
2.44732
0.353533
5.2729
-5.97996
8.79244
-5.2729
0.0264884
5.20834
0.0380669
5.20834
-5.10606
0.0371689
-5.10606
5.01201
0.0568841
5.01201
4.75815
-0.0909749
4.75815
-4.78222
0.115048
-4.78222
-3.83744
-4.70975
-6.2436
0.201159
-6.2436
-1.29531
0.000645609
-1.29531
1.25153
0.0431378
1.25153
-3.61568
3.61568
-4.19611
0.391446
-4.19611
3.12421
0.0455741
3.12421
1.8685
1.88245
5.61945
-5.61945
2.44967
-2.32415
0.0384409
-2.32415
-2.32531
-2.31986
2.32531
-0.0396027
-0.507731
0.25945
-0.507731
3.15929
0.0381417
3.15929
2.28954
0.157777
-2.28954
0.250188
3.22087
-3.22087
1.3856
0.653751
1.3856
-5.56664
5.56664
4.95396
0.0580496
-4.95396
0.0908127
6.15689
0.0611382
6.15689
-6.19957
-0.018457
-6.19957
2.4435
-4.56906
-2.47336
5.79756
0.244882
-5.79756
0.350111
2.91436
0.0296088
2.91436
-2.92078
2.92078
-2.98319
0.0392188
-2.98319
-2.18112
0.402515
-2.18112
1.47645
0.302152
1.47645
-4.23809
-0.134585
-4.23809
-4.34241
0.146296
4.34241
0.083551
1.0952
-1.0952
-1.14382
0.110695
-1.14382
-4.06487
-0.173219
4.06487
-0.154522
-3.78298
-0.127371
-3.78298
-3.02356
0.040372
3.02356
0.0412685
3.11262
0.0466711
-3.11262
0.047795
-1.87083
3.75328
-1.88012
3.75403
-5.58272
-0.383818
-5.58272
6.27423
-0.307689
6.27423
3.49458
0.310086
-3.49458
0.343061
2.62007
0.136005
2.62007
-6.7302
-0.027046
-6.7302
6.72815
0.0290994
6.72815
2.50511
0.114964
-2.50511
0.100424
2.33277
0.00460068
2.33277
2.88313
-0.0145894
2.88313
-2.86625
-0.00228447
-2.86625
2.8001
-2.8001
2.73244
0.0676659
-2.73244
0.0754346
-11.1329
11.1144
-0.0350541
-11.0978
5.17329
5.17329
4.18737
0.570777
4.18737
-4.99761
0.215391
-4.99761
3.16557
-5.63893
3.50914
-7.34658
5.11218
-15.9364
4.22005
-8.9298
6.56423
-6.56423
6.41964
0.144589
-6.41964
0.176038
-1.32376
0.028446
-1.32376
-3.00901
-0.606672
-3.00901
4.26839
-0.652708
4.26839
-3.02886
3.02886
-3.07788
0.0490159
3.07788
0.0463311
2.35189
-0.0191171
-2.35189
0.0277405
0.664385
0.145978
-0.664385
0.156654
3.40708
-0.186207
3.40708
-3.04053
-0.180346
-3.04053
-1.35245
0.0286901
1.35245
0.0331503
-5.81448
0.247841
-5.81448
-11.1908
0.0930128
-11.1527
-6.10656
-6.10656
2.33382
11.1263
-2.88739
0.0211331
2.88739
0.0269707
2.97592
0.0529397
-2.97592
0.0551424
-2.86245
0.0623427
2.86245
0.058332
-2.55925
0.378126
-2.55925
-1.06672
1.06672
-1.23966
0.172946
1.23966
0.236792
1.35164
-0.256444
1.35164
1.21099
0.0405454
-1.21099
0.0671663
-3.67472
-0.108256
-3.67472
6.49763
-0.223394
6.49763
-2.9383
-0.10223
2.9383
-0.0551695
-0.0333425
11.1477
-5.13994
0.0338835
5.13994
-11.2089
11.2428
-3.23371
0.674468
3.23371
0.953654
5.28885
0.277786
-5.28885
0.291243
6.66769
0.0604523
-6.66769
0.103466
-2.51955
-0.489459
-2.51955
-4.99913
-0.583596
4.99913
-0.730736
-11.4743
-0.204905
11.6792
-11.4174
6.01939
0.137506
-6.01939
11.3803
-1.00865
-0.0865435
1.00865
0.0580626
1.67018
-0.318535
1.67018
3.57965
-0.172567
-3.57965
-0.0950746
-6.64419
-0.0860095
6.64419
-0.146564
-2.08062
-0.438932
2.08062
-0.410446
-4.26698
4.30512
1.90935
-2.42529
-2.14377
-4.74514
1.85194
1.90134
4.30162
-10.1369
-5.79944
-9.78681
7.2663
-6.97505
-9.27018
9.1792
7.645
-7.77237
-5.78527
5.8316
6.4823
-6.44103
1.87866
1.87482
7.90202
-7.68106
-15.6878
15.304
7.48596
-7.43027
15.8274
-15.8545
-17.8681
17.9285
-5.7164
5.81645
-6.72599
6.72371
-6.94866
6.89349
-3.48124
-3.86534
13.0886
-12.8875
8.18627
-8.14783
-8.51848
8.90992
3.38248
0.922639
3.42915
-1.88227
3.76093
-1.87136
3.78071
2.68184
-6.16308
2.95709
-5.10086
3.81694
4.36933
-3.77734
-0.967803
-5.91944
5.94905
-5.82091
5.87924
8.97915
-9.04117
-1.88519
3.76001
-1.86884
3.77017
-3.42517
-2.3601
3.37959
0.922023
7.9618
5.12683
-8.20668
-1.58013
-7.89454
7.72197
-8.16906
7.98871
-0.44088
5.81955
-5.37867
4.42227
-1.55893
7.37847
5.70737
5.92276
5.86671
-5.58892
1.10834
-6.48701
-6.3962
-2.52271
2.63341
2.45096
-2.32317
5.99429
1.65071
5.83977
-5.59762
-2.17476
-5.70587
3.82112
2.01048
3.87014
4.0768
2.4055
4.11717
3.03086
-3.03575
0.00489147
-3.05635
6.08721
0.724259
-5.41646
-4.49443
4.94302
2.959
5.1175
-5.47996
-2.20109
-5.1369
-9.57014
-6.11763
-10.1537
10.1262
5.17779
9.81848
-12.0065
11.8599
4.77041
2.71554
4.78203
-4.9246
-2.50567
-4.82418
11.6605
-2.5845
-9.07597
-10.3363
-7.53181
10.3072
5.52025
10.9464
6.98211
11.0499
4.42849
7.23198
-9.94874
2.41693
-3.86713
-1.84927
-3.7917
3.68825
2.1282
3.79789
-4.21309
-2.5129
-4.19196
-4.28751
-2.66115
4.3021
2.42161
-4.40231
-3.76675
4.50454
2.38895
4.42192
-10.2214
4.50788
-8.37322
-9.19157
-3.69591
-9.01553
3.62307
2.90432
-6.52738
-2.54002
8.60868
-4.23935
7.64088
-4.97803
-3.1698
-4.95029
-6.81246
-1.70601
-6.66617
-8.8922
8.40274
-9.20288
8.55017
12.6299
-5.70376
-6.92617
-3.96822
-2.47281
3.92043
-0.491274
-3.71094
3.71583
0.0499854
3.83069
4.75333
4.26206
-3.88694
-1.93397
-3.8318
3.83187
2.04737
3.89421
6.76125
2.2179
6.76999
-6.47064
-2.57053
-6.60522
9.07026
-8.66775
2.89125
-2.86256
5.31578
2.67293
-5.12957
-2.76496
6.20565
-3.16443
-3.04122
-12.2082
10.5567
1.65146
-4.82973
-0.407464
-0.159183
-5.49865
-3.77153
5.3836
0.53916
11.0959
7.32438
-5.51333
5.76117
6.1659
6.22395
-0.172247
5.83272
-5.15825
5.31756
-2.43896
-2.8786
5.32568
-5.4989
-1.27954
-5.3601
4.08056
0.340868
1.71835
-1.4589
-1.97902
-0.543695
-1.91185
1.47447
0.97649
1.62045
0.959338
1.67407
-2.95625
0.554131
2.40212
-1.99692
-1.76904
-3.69715
-1.05997
4.75712
5.60616
2.11581
-5.51109
-0.194785
2.66839
-2.62526
-0.757596
-2.93955
2.15301
-2.91061
-3.66144
-1.90026
5.5617
-3.37065
-0.461148
3.31771
0.552432
-3.82558
-2.09386
3.78636
0.330812
-3.125
6.19049
-3.06549
-5.05897
2.52865
3.55857
4.53912
-4.78986
2.44652
2.34335
-1.2313
4.22425
0.893248
4.36025
-6.76984
4.56875
5.74896
3.16097
-6.05904
0.922139
-5.8477
8.45968
-7.28527
-1.17441
4.07615
4.38353
7.14289
5.48704
-5.71146
12.8543
-1.163
-6.12226
7.01071
-3.84974
4.78907
-8.6388
-10.2761
4.15384
-9.22634
11.0056
-1.77931
-3.62915
-8.37734
12.8555
-1.21774
-11.6377
8.60073
-4.17685
-4.2564
8.43325
-6.76135
6.76207
-1.95089
-4.81118
-10.1435
-5.71099
10.2295
1.63044
-9.83249
12.2494
-2.60051
4.09029
0.691741
4.09489
3.24097
-5.39184
2.15087
3.52039
-5.47127
2.06301
-7.45485
-6.7975
12.1436
-5.34605
-10.4934
-9.5671
-0.926313
2.50011
9.74931
-9.48222
7.38815
2.09408
3.30916
0.585057
-3.37682
-0.414877
0.256646
4.53241
-4.78906
4.05453
4.21231
3.34489
1.18751
3.84042
2.10863
-3.86739
-0.324574
-4.15567
1.49452
-1.73406
-3.67249
5.16701
-4.06316
0.390667
-2.73515
-3.5096
6.24475
-4.58442
3.03948
3.15102
5.08684
-4.91291
1.40331
-2.40029
-2.51262
2.65985
-4.39392
1.96874
3.19827
4.35769
0.590946
6.00147
6.14209
-8.90578
0.532564
11.2689
-9.68879
2.49999
8.5499
-9.88814
0.321041
-8.69449
1.21008
-5.44943
-5.31731
5.11517
-6.82119
-3.52363
6.153
0.616993
-6.23655
-0.429619
-6.04058
-2.85162
-6.47952
-3.05895
-6.14393
-8.7704
-1.65214
-7.11827
6.7506
-6.69661
-3.45713
7.42735
1.12282
-7.40806
7.32151
-7.48663
7.1681
0.0948608
3.62097
4.35692
1.88411
-2.38967
4.27378
-5.09679
7.31468
-8.60471
3.50792
4.05685
-6.62738
-4.54786
5.03344
4.03683
5.33559
8.92597
-10.4419
1.51598
-10.7347
12.0619
-1.3272
-16.5096
5.77492
-7.58365
2.60694
0.284309
2.63538
0.626579
2.46731
-3.09389
-2.23598
-2.20283
-2.36098
-3.45751
5.81849
1.16731
-3.45467
2.28736
-3.51404
4.68135
-0.0861218
-3.36855
5.30396
-2.83665
5.58827
-3.60016
1.98811
3.369
5.72953
-2.36053
4.37845
-1.70552
1.84402
-4.20455
-1.61349
-2.96814
5.09634
-3.27661
3.66728
-0.307282
3.97456
-4.08084
0.916415
-0.735948
3.47636
3.72655
4.28109
-3.09357
2.96468
-4.6702
-1.23987
-4.07926
-0.880988
-0.306099
-3.74638
4.05248
6.02906
-6.33516
-5.26004
9.56438
-4.30434
7.71694
-5.40314
-2.3138
-4.27048
-4.39727
3.89235
1.94037
9.65731
0.208741
-5.61188
-4.94951
-3.99586
3.20728
2.11027
-1.92036
3.57181
2.07954
-0.361193
0.549517
1.07093
1.8541
-1.30458
0.231309
1.62279
-1.22759
1.9564
0.711993
-1.99695
0.0850955
-1.35002
3.50303
1.0521
-2.02859
0.72401
1.05377
-3.49273
4.86571
-2.51017
-2.35554
5.91948
1.16333
-3.6735
4.19677
-3.85591
2.33531
-3.39529
-1.33819
-5.19409
-3.54338
-2.5691
4.85646
-3.24939
5.3652
1.19502
-5.17042
6.36543
-3.59702
1.69676
-3.08321
3.79521
-1.08433
-1.99888
2.83392
2.72777
-2.95977
0.0202168
-0.125846
2.34219
-2.46804
-0.568412
-2.56533
-4.57222
4.90303
-2.10707
4.55358
2.16672
-1.91479
6.46837
1.811
-3.72579
-3.24796
-3.70911
-1.38244
3.15668
-0.571492
-4.25269
-5.38267
4.13772
0.222533
-6.87769
7.67515
-0.797466
-3.91868
-0.650065
4.72621
-5.94603
0.474753
-3.88301
3.79214
4.68539
4.90792
-11.4268
-0.210978
-6.24897
1.13287
-7.38184
5.5164
-3.57602
7.72987
-10.4011
6.94402
-9.27832
6.55546
-0.826386
6.25967
-4.10879
2.8163
-8.52729
-6.89686
5.43839
-2.72285
6.13013
-3.10989
9.24003
-5.7104
5.20159
4.03844
-0.904926
-4.04536
-5.232
4.32707
-0.0304125
4.06448
4.97364
-2.86501
4.64907
2.25775
-4.65804
-2.13617
-6.49805
1.84001
-3.34703
-1.91706
3.75707
3.16979
3.75484
1.24445
-3.33997
7.27451
-8.20082
-1.92846
-3.38885
5.25384
-0.926769
3.36539
-6.75423
-2.08404
4.85399
-0.797346
-4.05664
0.849773
-4.37341
1.65568
-6.02909
5.1655
-5.59512
2.21354
-9.79719
-5.19452
-5.13646
-2.25055
-5.23608
-7.60391
5.35336
-1.82899
5.49252
-8.57129
7.77395
-3.49061
8.84397
-5.43247
-1.04705
5.84291
1.32518
10.1692
0.160662
-4.70852
-1.87142
3.93571
-2.06429
1.33586
-3.58572
0.349992
2.48219
3.4373
-6.56275
-0.0646346
-4.77316
-3.92101
7.95783
5.64337
11.6724
1.23048
9.14999
-1.19215
10.3805
4.14343
4.38023
-3.02512
4.5411
1.02736
4.53528
-0.838931
2.82704
1.79645
1.7971
0.82816
2.31961
1.40695
3.23602
0.142128
-2.0607
4.63813
-8.63399
-0.97375
-8.06321
1.11599
5.72662
-4.61063
3.09911
-0.988833
1.03482
0.0818446
-1.60074
1.51889
-2.79676
-1.96193
-0.339143
-1.63326
2.35727
1.86977
-2.01813
-0.778629
0.333493
-3.87688
3.06179
-3.04158
-0.313803
6.05163
-2.7599
0.291857
-1.06313
-2.27347
-2.81717
2.73207
6.17725
0.291121
3.11176
5.19415
3.10029
0.235279
3.8904
-5.66972
-3.56445
-5.8807
-0.364298
4.36192
1.7711
7.97821
5.80953
4.88277
-1.87147
-10.0723
6.56879
-2.02768
5.24159
-1.18494
-4.84415
4.99493
2.31975
-5.61193
0.0168049
-4.82734
-6.85503
-0.521868
8.29581
-9.64728
8.60023
5.74862
1.36965
-4.40774
-0.728715
4.2348
0.145429
10.5259
-1.12879
-6.81562
7.9444
-4.59783
3.62408
0.831257
2.74056
2.35015
1.36132
-5.4543
-10.0649
-1.9282
-1.56454
-4.28373
0.47339
-2.34316
6.25047
-2.62638
3.93667
5.31802
6.35284
-2.16077
-4.17439
6.46511
-2.52844
3.8244
)
;

boundaryField
{
    wall-4
    {
        type            calculated;
        value           uniform 0;
    }
    velocity-inlet-5
    {
        type            calculated;
        value           uniform -3.75095;
    }
    velocity-inlet-6
    {
        type            calculated;
        value           uniform -5.62643;
    }
    pressure-outlet-7
    {
        type            calculated;
        value           nonuniform List<scalar> 8(3.02672 6.63233 3.74402 9.63929 8.54719 4.91685 6.67471 9.33223);
    }
    wall-8
    {
        type            calculated;
        value           uniform 0;
    }
    frontAndBackPlanes
    {
        type            empty;
        value           nonuniform List<scalar> 0();
    }
}


// ************************************************************************* //
