/*--------------------------------*- C++ -*----------------------------------*\
  =========                 |
  \\      /  F ield         | OpenFOAM: The Open Source CFD Toolbox
   \\    /   O peration     | Website:  https://openfoam.org
    \\  /    A nd           | Version:  9
     \\/     M anipulation  |
\*---------------------------------------------------------------------------*/
FoamFile
{
    format      ascii;
    class       volVectorField;
    location    "36";
    object      U;
}
// * * * * * * * * * * * * * * * * * * * * * * * * * * * * * * * * * * * * * //

dimensions      [0 1 -1 0 0 0 0];

internalField   nonuniform List<vector> 
918
(
(0.985164 -0.000499462 0)
(0.00501051 2.96625 0)
(-0.0161231 0.806304 0)
(0.979702 0.00214941 0)
(-0.0898724 1.76853 -3.31406e-20)
(-0.00704411 2.94879 -2.6849e-18)
(0.83066 1.17346 3.74711e-19)
(0.309884 0.142031 -1.77073e-20)
(0.999908 -0.000285122 0)
(0.0516259 0.828562 0)
(0.00380512 0.63616 0)
(0.734583 -0.0123298 0)
(0.0111379 2.93033 0)
(0.00234109 2.79517 0)
(-0.0176488 3.15678 7.10685e-19)
(-0.0120187 1.84341 -7.65627e-20)
(0.381927 0.042874 1.168e-18)
(0.190474 1.18262 2.40944e-19)
(0.962787 0.00501943 0)
(0.00124869 0.62617 0)
(0.0733828 0.188376 -8.34695e-19)
(1.00198 -0.0049821 0)
(1.00022 -0.00979519 0)
(0.975721 -0.00644383 0)
(0.585668 -0.0367117 0)
(0.0162952 2.63812 0)
(-0.0149519 2.91007 1.00255e-18)
(-0.0143869 0.828369 0)
(-0.0489177 0.998541 0)
(-0.0129582 0.805703 0)
(-0.133983 2.56871 0)
(-0.0945514 1.93124 2.63162e-20)
(-0.0506592 1.71683 0)
(-0.020602 2.9876 -9.71607e-23)
(-0.0166893 3.00529 2.08663e-18)
(0.00210194 3.00018 0)
(0.870602 -0.00944715 0)
(0.403149 0.936454 2.26778e-19)
(0.811092 1.19004 -3.63758e-19)
(0.95847 1.02861 4.34082e-19)
(0.681001 1.28332 -8.591e-20)
(0.679843 1.2683 5.04446e-19)
(0.351698 0.227916 1.7275e-20)
(0.325192 0.112383 0)
(1.13351 0.5524 0)
(0.31723 0.223387 7.89393e-20)
(0.280065 0.150676 -8.19172e-20)
(0.919721 -0.00745944 0)
(1.00027 0.000141292 0)
(0.999909 0.000328913 0)
(1.00363 -0.00777638 0)
(1.00096 -0.000931702 0)
(1.00017 2.84734e-05 0)
(0.0806291 1.80417 -9.3435e-19)
(0.0331848 1 0)
(0.0868288 0.895516 0)
(0.0136367 0.954878 0)
(0.0361487 0.76713 0)
(0.0231806 2.00074 0)
(0.0118079 0.812876 0)
(0.0240766 0.654219 0)
(-0.00371655 0.805524 0)
(-0.00777329 0.633558 0)
(0.83712 -0.0156049 0)
(0.849514 0.0280007 0)
(0.767996 -0.00235355 0)
(0.821765 0.0372682 0)
(0.702977 -0.0177791 0)
(0.0146895 3.00041 9.98307e-19)
(0.0115003 3.00804 0)
(0.00611087 3.00277 0)
(0.0135516 2.99737 1.13742e-23)
(0.00796636 2.95846 -1.48373e-18)
(0.0144984 2.98201 0)
(0.0108642 2.90357 0)
(0.024415 2.93051 2.34047e-24)
(0.00452463 2.82529 0)
(0.031111 2.9163 0)
(-0.00525694 2.74514 0)
(0.308606 3.55381 0)
(-0.131868 3.63538 0)
(0.13965 3.24726 -6.61374e-19)
(-0.0126574 2.9826 0)
(-0.0992025 2.2794 0)
(-0.0269159 2.07721 7.55062e-20)
(0.0164957 1.8979 -8.3367e-20)
(0.472766 0.145631 -4.04163e-19)
(0.379523 0.023917 -3.89989e-19)
(0.457637 0.168243 -1.21716e-18)
(0.36704 0.0627816 -8.02336e-19)
(0.219041 0.947131 0)
(0.272779 1.32345 -3.10398e-19)
(0.376551 1.26813 5.24143e-19)
(0.987496 0.00856635 0)
(0.941944 0.00588272 0)
(1.0003 0.000578427 0)
(1.00286 0.0093053 0)
(1.00302 0.00846266 -3.12393e-18)
(0.991915 0.00969521 2.35913e-18)
(-0.00242231 0.790109 0)
(-0.00885212 0.634228 0)
(0.0211702 0.854903 0)
(-0.0207994 0.791644 0)
(-0.000307986 0.629621 0)
(0.115557 0.194572 2.58044e-19)
(0.171887 0.172063 0)
(0.993536 -0.00838231 0)
(0.954405 -0.00652257 0)
(0.7734 0.0456931 0)
(0.710016 0.0561331 0)
(0.661922 -0.0301039 0)
(0.955478 -0.0106976 0)
(0.625962 0.0721199 0)
(0.45282 -0.0165322 1.70921e-18)
(-0.0365387 2.8635 7.84207e-19)
(0.0416588 2.90952 0)
(0.0547688 2.88495 0)
(-0.00457398 2.69926 0)
(-0.0130525 2.9852 9.55453e-19)
(-0.0180066 2.89518 0)
(-0.0154135 2.98806 -2.94978e-18)
(-0.0132972 2.9252 1.00805e-18)
(0.0297764 1.22992 0)
(-0.0125209 1.31087 0)
(-0.0249049 2.05038 -1.83152e-21)
(-0.0647091 1.97757 0)
(-0.0385404 1.7906 0)
(0.93782 -0.00771833 0)
(0.856143 -0.00937095 0)
(0.863499 0.00648819 0)
(0.949079 -0.00797368 0)
(0.883555 -0.00819533 0)
(0.515357 1.13038 -2.83955e-19)
(0.564938 1.18235 0)
(0.367025 0.880192 4.01524e-20)
(0.30936 0.739458 0)
(0.917807 1.06681 -1.14501e-19)
(1.0282 0.868423 2.23952e-19)
(0.371305 1.37501 0)
(0.534312 1.34533 0)
(0.545563 1.29843 0)
(0.113253 0.181946 -3.34044e-19)
(0.385849 0.214953 0)
(0.351781 0.106046 2.26279e-19)
(0.998607 0.923426 0)
(1.06268 0.771472 0)
(1.08773 0.712254 -1.51248e-19)
(1.11372 0.613255 0)
(1.15796 0.396947 5.44179e-20)
(0.957439 -0.00883064 0)
(0.962334 -0.0101327 0)
(0.901428 -0.00796705 0)
(0.984164 -0.00918073 0)
(0.974626 -0.00941218 0)
(0.937036 -0.00636641 0)
(1.00018 0.00233858 0)
(1.00091 0.00139103 0)
(0.999913 0.000854324 0)
(0.033556 2.06046 5.11101e-19)
(0.121324 1.74581 0)
(0.0124537 2.17531 8.21398e-19)
(0.056682 1.8622 -7.09082e-19)
(0.105055 1.18735 -1.95812e-19)
(0.0461831 1.07432 0)
(0.141319 1.04225 0)
(0.010456 0.906524 0)
(0.0184025 0.727994 0)
(-0.00562398 2.21739 -2.06607e-21)
(0.0302541 1.98822 0)
(-0.00657904 2.19401 -1.10015e-19)
(0.0291572 1.99999 2.08475e-19)
(0.00873674 0.868864 0)
(0.0138836 0.838233 0)
(0.0229299 0.690923 0)
(-0.00237093 0.805826 0)
(-0.0136466 0.629553 0)
(0.934787 0.00885698 0)
(0.84398 -0.0147152 0)
(0.925129 -0.000440792 0)
(0.839556 -0.0126542 0)
(0.812455 0.00190075 0)
(0.902237 0.0194975 0)
(0.879219 0.0237052 0)
(0.789283 2.60312e-05 0)
(0.00562526 3.0647 -9.43655e-21)
(0.0165695 3.05786 0)
(0.0146292 2.96906 0)
(0.00857199 2.87625 0)
(0.925597 3.97051 0)
(1.24023 3.30262 9.17926e-19)
(0.0700352 3.07485 0)
(-0.0284219 2.90604 0)
(0.0986454 1.48303 0)
(0.0183161 1.96429 0)
(-0.0271445 1.78006 0)
(-0.0964672 2.51711 3.87749e-20)
(-0.0860611 2.4085 0)
(-0.142792 2.48815 0)
(0.0206661 1.97434 1.82753e-21)
(-0.0146251 2.11886 8.1057e-20)
(-0.0230691 2.09319 8.50024e-20)
(0.0209355 1.94373 0)
(0.498483 0.120466 6.06509e-19)
(0.396843 0.00436502 -5.95882e-19)
(0.260761 1.57146 0)
(0.26749 0.723059 -3.36369e-19)
(0.177502 1.65622 -1.13481e-18)
(0.226952 1.19059 1.13773e-18)
(0.902275 0.00654857 0)
(0.967527 0.0110024 0)
(0.97462 0.0107665 0)
(0.92346 0.00651456 0)
(-0.0147489 0.813112 0)
(-0.00475525 0.803203 0)
(-0.00816275 0.634662 0)
(0.272037 0.220659 7.27141e-19)
(0.224752 0.205183 -8.60166e-19)
(0.235525 0.164116 0)
(1.07669 0.0806087 3.6046e-20)
(1.05809 0.0356484 0)
(0.998973 0.0370634 0)
(0.896796 -0.00854699 0)
(0.524149 0.0961932 0)
(0.559366 0.0764745 -2.73441e-18)
(0.418449 -0.00269462 1.02524e-18)
(0.00911334 2.98086 8.2393e-19)
(-0.03312 2.86572 4.60787e-20)
(0.00369822 3.05023 -1.98898e-20)
(0.0201359 3.0434 7.06458e-19)
(-0.0149945 2.99656 3.30152e-20)
(-0.0129826 2.94947 -1.32648e-22)
(-0.0172807 3.01194 -6.07457e-19)
(0.0148909 3.02375 4.39741e-19)
(0.00738813 3.03686 -6.99536e-19)
(0.932351 -0.00190505 0)
(0.938391 -0.00389346 0)
(0.843988 -0.00886134 0)
(0.956763 0.0116707 0)
(0.943142 0.0128693 0)
(0.881844 0.00617826 0)
(0.918394 0.0160601 0)
(0.926737 0.0145727 0)
(0.838834 0.00420763 0)
(0.719109 1.40986 -1.83801e-20)
(0.752902 1.51933 0)
(0.189295 0.327377 8.18218e-20)
(0.216654 0.654892 6.60031e-19)
(0.258739 0.716823 -3.81832e-19)
(0.265769 0.534971 7.61081e-19)
(0.331469 0.78364 1.74462e-18)
(0.130952 0.220294 4.01221e-19)
(0.432274 0.189493 8.51193e-19)
(0.410177 0.206013 2.21176e-19)
(0.363255 0.0876268 4.22536e-19)
(1.14787 0.455435 -3.00483e-20)
(1.15951 0.249953 -3.90207e-20)
(0.00250306 2.21788 3.33601e-19)
(0.0533386 1.92321 0)
(0.962594 0.0273907 0)
(0.938011 0.0126982 0)
(0.861179 -0.0185873 0)
(0.0112957 3.07455 0)
(0.0198096 2.94404 1.3104e-18)
(0.0164556 2.95642 0)
(0.00623395 2.85065 -1.30013e-18)
(0.0061575 3.09098 3.19594e-19)
(0.00719894 3.08236 0)
(0.786048 1.8224 -1.44538e-19)
(1.24788 2.5014 3.59081e-19)
(0.768315 1.96245 -1.19166e-18)
(0.0203596 2.98215 -7.24222e-19)
(0.0359077 3.00249 0)
(-0.0335359 2.87928 0)
(-0.00822878 2.17326 -7.17762e-21)
(-0.00961723 2.14782 -1.7069e-19)
(0.0226721 1.99123 -4.95624e-21)
(0.274378 1.37783 1.09594e-18)
(0.223195 0.508862 -7.51305e-19)
(0.0624787 1.98527 8.51371e-19)
(0.137301 1.87466 -1.0003e-18)
(0.179505 1.48499 9.09171e-20)
(0.00195098 3.11913 -2.01339e-18)
(0.0140046 3.11874 2.17378e-18)
(-0.00885606 2.98123 8.87688e-19)
(-0.00389029 2.97764 -8.47201e-19)
(-0.0211197 2.88129 -9.04091e-19)
(0.00865559 3.10024 -2.38542e-18)
(0.00235176 3.10519 2.34676e-18)
(0.272981 0.68026 0)
(0.235367 0.669346 -1.36245e-18)
(0.0967921 0.221627 6.02855e-19)
(0.346825 0.90877 1.19251e-18)
(0.186006 0.264 -1.84019e-18)
(1.1559 0.169017 1.01993e-19)
(1.16157 0.304306 0)
(1.14229 0.117656 -5.14142e-20)
(-0.00211775 2.22825 -2.74489e-21)
(-0.00125881 2.22947 0)
(0.035924 1.9626 0)
(0.338312 1.28635 -3.95126e-19)
(0.365495 1.11885 -8.52006e-19)
(0.199333 0.359932 1.5215e-18)
(1.00587 -0.0108711 0)
(1.00766 -0.00765501 5.7705e-19)
(0.0550068 1.23249 0)
(0.0127422 1.10933 0)
(1.00222 0.00350208 1.80506e-21)
(1.00365 0.00943035 1.17688e-18)
(-0.0849022 2.52784 -4.95904e-20)
(-0.0651861 2.54333 0)
(0.0361549 3.17933 5.01568e-19)
(0.395872 3.49257 0)
(1.14048 0.652728 -1.0242e-19)
(1.01291 0.013072 -2.1312e-21)
(1.02122 -0.0104224 0)
(1.00168 9.50902e-05 6.52785e-23)
(0.0981898 1.35284 0)
(0.148973 2.58196 0)
(0.0166773 1.30265 0)
(-0.000987617 2.63069 1.12056e-19)
(-0.0254502 2.58272 8.20746e-20)
(1.0027 0.0273997 2.47328e-21)
(1.06145 0.00333042 0)
(1.09438 0.0222516 0)
(-0.0118978 1.90798 0)
(-0.0315134 2.57292 0)
(0.0356832 1.2492 0)
(0.288525 1.46675 -9.38598e-20)
(1.01125 -0.00965842 0)
(1.00939 -0.0149371 0)
(1.00233 0.000687786 7.36847e-19)
(1.00547 -0.00484759 -8.66684e-19)
(1.00119 -0.000993138 0)
(0.0917515 1.60864 0)
(0.0871307 1.33749 0)
(0.0572551 1.51274 0)
(0.0353999 1.22671 0)
(0.0270681 1.1392 0)
(-0.000622432 1.09065 0)
(1.0343 -0.00652768 0)
(1.02074 0.0157031 -9.25027e-22)
(0.796867 1.26405 1.84849e-19)
(1.00228 0.000245131 -7.36406e-19)
(1.00406 0.00523969 8.59296e-19)
(1.00118 0.00205805 0)
(1.01286 0.0102603 7.3185e-19)
(1.00803 0.00826988 -8.84977e-19)
(1.0086 0.0146652 0)
(-0.0444097 2.59154 0)
(-0.0557038 2.55882 7.73356e-20)
(-0.0469821 2.57535 -5.32872e-20)
(1.2189 0.253024 7.79665e-19)
(1.1537 0.0792512 0)
(0.044853 3.07735 -1.05913e-18)
(0.0658197 2.85338 -7.65448e-20)
(0.142278 3.19355 1.59992e-18)
(0.136917 3.22251 -2.59703e-19)
(0.135448 3.23523 0)
(0.0204797 3.13786 2.77925e-19)
(0.0770679 3.16049 1.04651e-18)
(0.0695516 3.18686 -5.22587e-19)
(0.0234271 3.12926 0)
(0.653022 0.301128 0)
(0.575093 0.346524 0)
(1.11 0.685504 2.70575e-19)
(1.10587 0.813997 -2.98216e-19)
(1.16886 0.572172 0)
(1.19867 0.511277 0)
(1.01617 0.0132933 -1.36542e-18)
(1.015 0.0142632 1.71409e-18)
(1.02515 -0.0100148 0)
(1.02318 -0.0120065 0)
(1.00648 0.00257288 0)
(1.01042 0.00367311 0)
(1.00462 0.00182296 0)
(1.00986 0.00615416 0)
(1.0078 0.00598088 0)
(1.00452 0.00459571 0)
(0.0878015 1.34931 0)
(0.0801926 1.32396 0)
(0.118837 1.38562 0)
(0.128455 1.39905 0)
(0.146557 2.60606 0)
(0.187091 2.67175 -4.90693e-19)
(0.099873 2.6637 0)
(0.08856 2.66651 2.65122e-19)
(0.0385936 2.68766 -2.63361e-19)
(0.0363105 1.31419 0)
(0.0118627 1.23815 0)
(0.0341417 1.3237 0)
(0.037719 1.267 0)
(-0.00417013 1.98939 -7.00514e-20)
(-0.0266746 2.61079 7.31353e-20)
(-0.0138613 2.67343 1.16133e-19)
(-0.0216796 2.68418 0)
(-0.03021 2.61466 -1.94473e-19)
(-0.028567 2.60687 -1.19897e-19)
(0.00620238 1.98934 5.38731e-20)
(-0.0179956 2.41357 -9.80951e-20)
(-0.0203481 2.43102 -1.31681e-19)
(1.01153 0.0355854 1.38684e-18)
(1.00799 0.0167112 -1.71789e-18)
(1.00405 0.0417136 -1.39139e-18)
(0.982672 0.0217643 1.76871e-18)
(1.06256 0.00706606 0)
(1.04802 -0.00904605 0)
(1.09103 0.0327215 0)
(1.07224 0.0112282 0)
(1.06987 -0.00146159 0)
(1.13575 0.0757057 0)
(1.10748 0.0406265 0)
(1.10996 0.0284422 0)
(-0.104481 2.46447 -1.08319e-20)
(0.0086621 2.16596 0)
(-0.0703363 2.33997 0)
(-0.0369924 2.59178 4.28106e-20)
(-0.0294557 2.60144 -1.99562e-21)
(0.0473411 1.68948 7.16158e-20)
(0.0439921 1.61146 -7.27816e-20)
(0.0500593 1.41169 0)
(0.0506189 1.41974 0)
(0.0574149 1.42226 0)
(0.0407035 1.27415 0)
(0.0239684 1.15586 0)
(0.378229 1.48154 1.28482e-19)
(0.416645 1.48721 9.7033e-20)
(0.59673 2.45031 -2.56209e-19)
(0.403454 2.54572 7.64001e-19)
(0.354957 2.06918 9.83235e-20)
(1.02094 -0.00825297 0)
(1.01544 -0.00982157 0)
(1.01487 -0.0155479 0)
(1.00747 -0.0012165 0)
(1.0049 -0.000973815 0)
(1.00776 -0.00477504 0)
(1.00924 -0.00374454 0)
(1.01414 -0.00453281 0)
(1.02143 0.0159619 1.33823e-18)
(1.01813 0.0157561 -1.71579e-18)
(1.02191 0.0179186 -1.34749e-18)
(1.01977 0.016557 1.69068e-18)
(0.764424 1.31219 0)
(0.699624 1.36557 1.49787e-19)
(0.872601 1.2094 1.88329e-20)
(0.914932 1.16382 -2.5048e-20)
(1.15585 2.60816 4.51408e-19)
(0.809514 0.100545 6.72058e-19)
(1.15554 0.0978563 0)
(1.1988 0.180655 -6.26168e-19)
(1.18256 0.145243 -2.64765e-20)
(1.0047 0.141822 0)
(0.137627 2.96192 6.40039e-19)
(0.114638 2.86763 -1.33427e-18)
(0.0258087 2.37071 8.9991e-19)
(0.0924599 -0.00474549 -4.06231e-19)
(0.340588 3.42142 -1.60231e-19)
(0.1946 3.31396 0)
(0.237506 3.35625 2.08674e-19)
(0.246529 3.03508 -2.05251e-18)
(0.341326 3.19433 0)
(0.00737043 3.1208 5.30243e-20)
(0.0168894 3.12979 -6.19538e-19)
(0.0155479 3.12581 9.11863e-19)
(0.0363104 3.13979 0)
(0.0347453 3.15083 0)
(1.21488 2.60803 0)
(0.532375 0.8402 -5.92165e-19)
(1.03516 0.988728 5.89102e-20)
(0.971873 1.06367 0)
(0.819651 0.964328 -1.52735e-19)
(1.05818 0.877692 2.93316e-20)
(0.369384 0.405122 -1.0428e-18)
(0.699069 0.323778 -2.26202e-20)
(0.668643 0.242363 4.7951e-19)
(0.591354 0.37996 3.53485e-20)
(0.508614 0.355491 -1.42272e-18)
(0.667884 0.342066 0)
(0.702757 0.427343 8.14304e-19)
(0.710137 0.424022 0)
(0.626676 0.369604 0)
(0.602767 0.29569 0)
(0.79369 0.616246 4.9601e-19)
(1.216 0.276139 -6.59272e-19)
(1.20974 0.41568 0)
(1.2216 0.358335 0)
(0.750983 0.190072 7.1456e-19)
(0.839926 0.535902 -4.47009e-19)
(0.742506 0.510674 7.94318e-19)
(0.943056 0.422655 -8.87048e-19)
(1.01982 0.0145909 9.20196e-19)
(1.0179 0.0141832 -9.25086e-19)
(1.01595 0.015586 0)
(1.03578 -0.00615009 0)
(1.0295 -0.00865485 -8.69908e-19)
(1.02747 -0.0121857 8.61466e-19)
(1.02514 0.00957696 0)
(1.0237 0.0132345 0)
(1.01141 0.00402571 0)
(1.0143 0.00894689 0)
(1.0151 0.00392686 0)
(1.0142 0.00272924 0)
(0.0586198 1.33267 0)
(0.0621164 1.2942 0)
(0.145528 1.35597 -8.01265e-20)
(0.266242 1.46387 4.27229e-20)
(0.157558 1.43455 8.46086e-20)
(0.187721 1.44295 -1.4094e-19)
(0.160127 1.38066 0)
(0.129873 1.58955 -1.59705e-19)
(0.115542 1.55982 0)
(0.354587 2.02286 -1.42922e-19)
(0.348634 2.35554 7.16771e-19)
(0.185842 1.44311 1.39235e-19)
(0.260933 1.3769 -1.557e-20)
(0.198947 1.36153 1.26382e-20)
(0.273038 1.31793 -1.93462e-19)
(0.242392 1.57415 0)
(0.261377 1.6156 1.82252e-19)
(0.0317363 2.27499 -6.70521e-20)
(0.0411157 2.67832 0)
(0.0643945 2.41242 2.199e-19)
(0.0577057 2.43432 0)
(0.0699876 2.67947 -2.93263e-19)
(0.0500624 2.70687 0)
(0.0240319 1.40623 -6.37287e-20)
(0.0327638 1.45787 0)
(0.03273 1.37455 0)
(0.0230533 1.37897 7.19069e-20)
(-0.00347076 2.65973 -2.00366e-20)
(0.0276243 2.70563 3.08557e-19)
(0.00873522 2.72815 2.18826e-21)
(-0.00661506 1.83779 7.01275e-20)
(-0.0151737 1.67945 3.14729e-20)
(0.0090257 1.29317 0)
(0.00429458 1.20734 0)
(0.0457531 1.56505 9.37692e-20)
(0.0284437 1.43976 8.87407e-20)
(0.0347775 1.50604 -1.11431e-19)
(0.038033 1.5899 0)
(-0.0438681 2.28647 -1.06409e-19)
(-0.0526149 2.54721 4.64137e-20)
(-0.0195446 2.45229 -2.4067e-20)
(-0.0215406 1.85294 -8.49124e-20)
(-0.0361012 2.49951 -3.15089e-20)
(-0.0289828 2.44588 1.38712e-19)
(1.01994 0.0206535 -9.15809e-19)
(1.01621 0.0259319 9.18535e-19)
(1.01526 0.0162378 0)
(1.01181 0.0660133 1.28917e-18)
(0.992398 0.0556392 -1.43931e-18)
(0.954232 0.042688 1.60727e-18)
(1.01546 0.102056 -1.72352e-19)
(1.04195 -0.0062119 0)
(1.05005 -0.00201834 8.33921e-19)
(1.0383 -0.0101578 -8.34746e-19)
(1.0698 0.0402865 -4.99262e-20)
(1.06337 0.0220024 4.29493e-19)
(1.06432 0.0525857 0)
(1.05159 0.0475585 -1.53884e-19)
(1.03329 0.0395857 0)
(1.02621 0.0359067 0)
(1.02777 0.0126265 0)
(1.02442 0.0154904 0)
(1.03945 0.0301919 3.16526e-19)
(1.03943 0.0255702 -6.97097e-19)
(1.05021 0.0321221 -3.36355e-19)
(1.04731 0.0323247 -3.69838e-19)
(1.06804 0.0607991 7.27889e-19)
(1.09342 0.0482013 0)
(1.10118 0.090531 0)
(-0.0531542 2.28074 -5.85254e-20)
(-0.0109899 2.12168 -1.03015e-20)
(-0.0034524 2.08156 0)
(-0.0520101 2.46217 5.88095e-20)
(-0.0438653 2.43994 2.06788e-20)
(-0.0699491 2.45977 -2.23747e-20)
(-0.0292155 2.61743 1.03755e-19)
(-0.0426155 2.55673 -8.37238e-21)
(-0.0313535 2.51517 3.29403e-20)
(-0.0266162 2.60828 -5.51355e-20)
(-0.0296251 2.61087 6.79922e-20)
(0.0615846 1.5634 1.04637e-21)
(0.0271031 1.70756 8.62314e-20)
(0.367506 1.42133 -3.8259e-20)
(0.365692 1.36546 1.28263e-19)
(0.646552 1.41187 -1.44852e-19)
(0.514261 1.4762 -9.40785e-20)
(0.566765 1.44902 0)
(0.592191 2.42593 2.29638e-19)
(0.658994 2.41766 3.61522e-19)
(0.41112 2.52049 8.32258e-20)
(0.405341 2.54809 -7.26854e-19)
(0.513798 2.49294 6.8798e-19)
(0.551811 2.46404 0)
(0.489061 2.51998 -6.08305e-19)
(0.2491 2.59633 1.30366e-18)
(0.353946 2.56969 -8.32598e-20)
(0.28508 2.65816 -1.76736e-18)
(0.942418 2.37829 8.19067e-19)
(0.834501 2.3824 0)
(1.01091 0.000378969 2.99594e-20)
(1.0152 -0.00556041 -2.43324e-20)
(1.01765 -0.00366883 -4.44759e-19)
(1.01491 -0.00100606 4.46807e-19)
(1.01229 0.00100628 0)
(0.634576 1.28133 0)
(0.652272 1.17637 0)
(0.754493 1.08379 0)
(0.643963 1.14263 0)
(1.18536 2.62261 5.92449e-20)
(1.07362 2.36653 0)
(0.837091 2.1883 4.88985e-21)
(0.825736 2.44858 0)
(0.921745 2.53901 -5.15724e-19)
(0.957129 2.4951 3.4334e-19)
(0.818134 0.151336 0)
(0.787258 0.128087 1.83552e-19)
(0.925295 0.135415 1.06979e-18)
(0.840403 0.130393 -4.00634e-19)
(0.819637 0.0728263 -1.22676e-18)
(1.0753 0.221805 -1.07615e-18)
(0.996201 0.279879 -1.52777e-20)
(0.920675 0.276223 1.00019e-18)
(1.00576 0.209323 8.41505e-19)
(0.952796 0.177109 -1.42938e-18)
(0.918363 0.177902 1.78416e-19)
(0.950762 0.237944 -3.85683e-19)
(0.929702 0.200237 0)
(0.995373 0.175358 7.06653e-19)
(1.04594 0.174587 0)
(1.04519 0.200961 0)
(1.1026 0.108308 3.42644e-19)
(1.0715 0.162723 -1.37467e-20)
(1.06926 0.223935 -1.86513e-19)
(1.09889 0.190378 0)
(1.02303 0.0437685 7.1182e-19)
(1.041 0.0560706 8.89665e-19)
(1.03363 0.0416564 -7.0569e-19)
(1.04142 0.0618874 -5.96316e-19)
(1.01745 0.0693135 -9.07206e-19)
(0.989698 0.148797 0)
(0.999153 0.098769 0)
(0.970037 0.0638926 -5.71914e-19)
(0.921903 0.0854797 2.24323e-19)
(1.03734 0.0976117 8.24761e-19)
(1.06783 0.111247 -9.85893e-19)
(1.07134 0.143323 8.78841e-19)
(1.03046 0.135262 0)
(1.07335 0.101942 0)
(1.05607 0.0842596 -4.00154e-19)
(1.04438 0.0909299 -6.76327e-19)
(0.577993 1.07695 1.83855e-19)
(0.611652 1.41416 -8.65536e-20)
(1.15595 2.74174 -2.88508e-19)
(1.22275 3.08258 1.43032e-20)
(1.2482 2.72243 -2.65499e-19)
(1.27837 2.70651 2.89953e-20)
(1.20628 2.34553 -1.00552e-20)
(1.20989 2.98627 -1.45376e-19)
(1.22922 2.95124 3.16527e-19)
(1.21382 3.23619 -1.21843e-19)
(1.375 2.96765 1.68527e-19)
(1.36567 2.8857 0)
(0.538067 0.847997 -5.65689e-20)
(0.138711 1.25888 6.17885e-19)
(0.53097 0.462403 6.72706e-19)
(0.366687 0.213467 7.44735e-19)
(0.529885 0.388852 8.03026e-19)
(0.543315 0.480081 -1.31202e-18)
(0.545846 0.484589 1.07135e-18)
(0.497681 0.409926 -4.05557e-19)
(0.423155 0.345721 9.19913e-19)
(0.75422 0.248654 -4.09411e-19)
(0.717751 0.284163 0)
(0.707435 0.210991 9.80413e-21)
(0.727561 0.514603 4.29319e-19)
(0.698455 0.482588 -1.56356e-18)
(0.614498 0.475448 1.63104e-20)
(0.625176 0.458415 0)
(0.668338 0.733903 4.55037e-19)
(0.819353 0.771464 4.84443e-19)
(0.744863 0.853868 -5.64574e-19)
(0.860926 0.803616 -1.96449e-19)
(0.894296 0.847957 -5.3168e-20)
(0.902565 0.849292 5.44401e-20)
(0.833812 0.643146 -8.22766e-19)
(0.911432 0.69946 1.82453e-19)
(0.968392 0.714041 0)
(0.95916 0.69041 -2.53779e-19)
(1.02157 0.319379 2.60188e-19)
(1.13291 0.289337 3.7775e-19)
(1.06158 0.258587 4.40034e-19)
(1.00654 0.354683 -5.18935e-19)
(1.04548 0.421062 0)
(1.09748 0.405879 0)
(0.90852 0.349777 5.47659e-21)
(0.841128 0.283008 0)
(0.869785 0.275603 4.67602e-19)
(0.904045 0.282165 -5.4641e-21)
(0.934878 0.425704 2.47641e-18)
(0.890766 0.486788 6.402e-19)
(0.895915 0.450611 -6.71473e-19)
(0.818153 0.433773 7.19408e-19)
(0.8007 0.430118 4.27655e-19)
(0.77114 0.417343 -4.20341e-19)
(1.02729 -0.000426517 7.42017e-19)
(1.01999 -0.000212705 0)
(1.01849 0.000736095 4.8326e-19)
(1.02163 -0.00199822 -1.09503e-18)
(1.02226 0.00408701 5.3193e-19)
(1.02042 0.0109971 -1.11416e-18)
(1.02138 0.0103943 0)
(1.02076 0.0106513 -2.31922e-19)
(1.016 0.00756891 5.81825e-19)
(1.01678 0.0102989 -2.90208e-19)
(1.01747 0.00964234 2.13828e-19)
(0.030507 1.30918 0)
(0.0381508 1.34353 0)
(0.0414258 1.31028 0)
(0.0492571 1.27561 0)
(0.0692925 1.36897 1.31625e-19)
(0.0772993 1.34165 -3.17336e-20)
(0.110579 1.49817 -6.11913e-20)
(0.092624 1.34305 4.26048e-20)
(0.0324446 1.44242 -1.16858e-19)
(0.03655 1.43392 9.04468e-20)
(0.061509 1.35105 -5.35944e-21)
(0.0546354 1.352 -7.38911e-20)
(0.0499515 1.3314 -1.11702e-20)
(0.0401576 1.35291 -1.3776e-20)
(0.108269 2.3839 -2.43125e-19)
(0.0962266 2.42773 0)
(0.173719 2.05687 1.46685e-19)
(0.11086 1.70781 8.06565e-20)
(0.232824 2.04978 -1.18118e-19)
(0.207988 2.44501 0)
(0.26782 2.3961 -7.0959e-19)
(0.306981 2.39396 5.03025e-19)
(0.234508 2.00833 -3.30813e-19)
(0.155001 2.17273 2.08153e-19)
(0.146239 2.28999 0)
(0.0128031 1.88062 -1.28375e-19)
(-0.00774876 2.41081 -2.00811e-19)
(-0.000812739 2.16318 0)
(0.00896201 2.46952 -1.38438e-20)
(0.0206164 2.31619 7.50864e-20)
(0.0173594 1.39262 1.11615e-20)
(0.011906 1.38068 -1.78036e-19)
(0.0116909 1.38579 4.59032e-20)
(0.0150751 1.38479 6.14426e-20)
(0.0223156 1.41047 0)
(0.013155 1.36775 0)
(0.0314235 1.27623 7.36803e-20)
(0.0208264 1.36623 -2.50273e-20)
(0.0102226 1.35854 0)
(0.0268641 1.27475 4.74502e-20)
(0.00359028 1.17263 -9.91252e-20)
(1.03983 0.0108759 0)
(1.04618 0.00718691 -7.82429e-20)
(1.03864 0.0203184 -5.62318e-19)
(1.04778 0.0191195 0)
(1.05111 0.0193135 0)
(1.03653 0.0108624 -6.64124e-21)
(1.03101 0.0106167 9.01629e-19)
(1.03201 0.0157947 1.09412e-18)
(1.02601 0.019723 0)
(1.02328 0.0201812 0)
(1.03522 0.0239187 5.61344e-19)
(1.02635 0.0252801 0)
(1.02468 0.0253222 0)
(-0.0436176 2.02073 0)
(0.0144954 1.69852 -1.72356e-21)
(-0.0198698 1.78933 1.08211e-20)
(0.0373412 1.36512 0)
(0.00218232 1.57472 5.06133e-20)
(0.0329796 1.48708 -3.25329e-20)
(0.0721769 1.42055 0)
(0.394473 1.67432 0)
(0.367672 1.295 -2.27655e-19)
(0.306977 1.34161 0)
(0.424518 1.29487 2.01662e-19)
(0.467043 1.4505 0)
(0.448323 1.39587 -6.19105e-20)
(1.03461 2.68625 -1.76127e-20)
(0.96417 2.40865 -1.02929e-18)
(0.913744 2.18779 1.18812e-18)
(0.847869 2.37426 2.66683e-19)
(0.846183 2.4973 0)
(0.916337 2.49325 0)
(0.925816 2.37158 0)
(0.903759 2.35838 -1.03735e-18)
(0.690668 2.46645 -4.74883e-19)
(0.801406 2.45707 -1.1487e-19)
(0.811963 2.43027 8.76487e-20)
(0.693867 2.39187 0)
(0.797685 2.38691 0)
(0.75666 2.39977 -3.94911e-19)
(0.769019 2.4879 0)
(0.611398 1.09865 0)
(0.481633 0.928326 -5.93013e-19)
(0.54864 0.963813 -3.7575e-20)
(0.518443 1.05524 0)
(0.518709 1.00501 8.9041e-19)
(0.768614 0.880396 -1.6504e-19)
(0.779058 1.01422 0)
(0.752586 0.972611 2.4968e-19)
(0.640279 1.03499 0)
(0.644429 0.944137 0)
(1.16396 2.76261 -2.89753e-19)
(1.14147 2.8264 -1.40523e-19)
(0.930952 2.34711 1.7436e-19)
(0.898888 2.32532 -1.06809e-19)
(1.12878 2.73496 0)
(1.0823 2.70496 1.28555e-19)
(1.08864 2.48636 -3.66466e-19)
(0.98304 2.23346 -3.03299e-20)
(0.496801 1.35683 0)
(0.509472 1.07531 -1.62168e-19)
(0.561728 1.1632 0)
(0.861016 0.214444 0)
(0.794603 0.167144 0)
(0.744312 0.13912 0)
(0.855726 0.219404 -7.36018e-19)
(0.770924 0.210104 4.29804e-19)
(0.936145 0.0724555 -4.63343e-19)
(0.950115 0.11768 0)
(0.928918 0.127075 1.98753e-19)
(0.870202 0.103605 7.96222e-19)
(0.845917 0.0622379 -4.98388e-19)
(1.16145 3.36167 -6.7704e-19)
(1.20888 3.28101 0)
(1.16016 3.3896 -1.40965e-18)
(0.647942 3.55046 1.19501e-18)
(0.872649 3.11788 2.03198e-20)
(0.511943 0.854165 6.69072e-19)
(0.429648 0.847043 0)
(0.339887 0.497223 -1.6733e-19)
(0.447661 0.683356 9.60438e-19)
(0.534265 0.46864 -2.32584e-19)
(0.508573 0.520582 2.63211e-19)
(0.659956 0.53325 5.77188e-19)
(0.688712 0.553025 0)
(0.640053 0.616499 0)
(0.598639 0.553774 0)
(0.971904 0.599433 1.37588e-19)
(0.892299 0.535874 -6.23059e-19)
(0.915994 0.569325 4.87132e-19)
(0.952475 0.504589 -4.84561e-19)
(1.05555 0.480342 0)
(1.06319 0.569779 -1.27925e-19)
(0.84194 0.385639 -9.78019e-19)
(0.845771 0.371243 -1.21375e-18)
(0.793833 0.381824 7.62185e-19)
(0.790706 0.350994 -7.7511e-19)
(0.840622 0.306738 -6.07557e-19)
(0.794013 0.306115 7.46485e-19)
(1.02672 0.00542942 -5.71329e-19)
(1.02646 0.00566722 1.16682e-18)
(1.02904 -0.000432951 7.2051e-19)
(1.03332 0.000573637 -8.67536e-19)
(1.03311 0.00807722 0)
(1.03004 0.00865874 -1.4111e-18)
(0.0627603 1.64286 4.425e-20)
(0.0436756 1.56705 0)
(0.0865949 1.69404 2.93924e-19)
(0.0943412 1.67397 -2.64374e-19)
(0.0914233 1.51747 1.14848e-19)
(0.0864154 1.49681 0)
(0.00424892 1.69084 0)
(-0.00884836 1.49615 -2.62642e-20)
(-0.00599847 1.43523 2.365e-20)
(0.00252273 1.56939 2.0442e-21)
(-0.00992942 1.89057 -4.72099e-20)
(-0.0310875 1.94464 2.55201e-20)
(0.496208 1.37363 -4.14718e-19)
(0.491398 1.37753 4.52978e-19)
(0.446675 1.29091 -1.33298e-19)
(0.436776 1.29396 1.51623e-20)
(0.626037 1.29566 0)
(0.544177 1.38273 2.65401e-21)
(0.560989 1.39093 -2.58378e-21)
(0.456496 1.2774 1.28473e-19)
(0.510804 1.23212 0)
(0.56345 1.19802 0)
(0.65779 2.42602 6.97568e-19)
(0.670722 2.46303 1.42283e-18)
(0.716435 2.47507 -9.79682e-19)
(0.615703 2.4517 -2.23939e-19)
(0.563048 2.54325 3.23898e-19)
(0.51209 2.51665 -8.55789e-19)
(0.975443 2.37764 -6.66182e-19)
(1.01171 2.39209 0)
(0.921121 2.16632 -7.65482e-19)
(1.05242 2.68399 0)
(1.05452 2.67057 0)
(0.612814 2.27797 -1.69257e-19)
(1.04175 3.16464 8.08658e-20)
(0.913053 3.03489 1.89502e-20)
(0.282401 0.918087 0)
(0.323925 0.780043 -3.49232e-19)
(0.481042 0.734393 -3.62603e-19)
(0.392264 2.02537 0)
(0.467973 2.78677 -1.41453e-20)
(0.424845 2.55092 0)
(0.682004 0.681157 -9.66977e-19)
(0.764415 0.680957 1.32911e-18)
(0.78437 0.623046 -1.3176e-18)
(0.664715 0.64335 -1.24435e-19)
(0.721644 0.597301 -5.17846e-19)
(1.00367 2.76834 -6.14867e-20)
(1.04056 2.825 -2.44149e-19)
(0.641278 2.15573 7.54532e-19)
(0.59644 1.71974 -5.32849e-19)
(0.699417 1.91035 -4.97417e-19)
(0.989255 2.45132 -1.22892e-19)
(0.993981 2.44574 3.80891e-19)
(0.661176 1.85151 3.38767e-20)
(0.450897 1.33716 1.85582e-19)
)
;

boundaryField
{
    wall-4
    {
        type            noSlip;
    }
    velocity-inlet-5
    {
        type            fixedValue;
        value           uniform (1 0 0);
    }
    velocity-inlet-6
    {
        type            fixedValue;
        value           uniform (0 3 0);
    }
    pressure-outlet-7
    {
        type            zeroGradient;
    }
    wall-8
    {
        type            noSlip;
    }
    frontAndBackPlanes
    {
        type            empty;
    }
}


// ************************************************************************* //
