/*--------------------------------*- C++ -*----------------------------------*\
  =========                 |
  \\      /  F ield         | OpenFOAM: The Open Source CFD Toolbox
   \\    /   O peration     | Website:  https://openfoam.org
    \\  /    A nd           | Version:  9
     \\/     M anipulation  |
\*---------------------------------------------------------------------------*/
FoamFile
{
    format      ascii;
    class       volScalarField;
    location    "11";
    object      p;
}
// * * * * * * * * * * * * * * * * * * * * * * * * * * * * * * * * * * * * * //

dimensions      [0 2 -2 0 0 0 0];

internalField   nonuniform List<scalar> 
2200
(
0.434043
0.412584
0.396811
0.381213
0.366861
0.35475
0.344738
0.33699
0.331525
0.328714
0.328934
0.332181
0.337948
0.34592
0.356094
0.368321
0.382751
0.398395
0.414197
0.43567
0.366294
0.363113
0.360403
0.35659
0.351563
0.345357
0.339033
0.333417
0.329108
0.32671
0.326956
0.329813
0.334445
0.340297
0.346786
0.353095
0.358197
0.362066
0.364813
0.368006
0.325345
0.325813
0.328401
0.330357
0.331377
0.331009
0.329533
0.327167
0.324769
0.323128
0.323457
0.325574
0.328306
0.330926
0.332584
0.333084
0.332161
0.330269
0.327721
0.32727
0.302178
0.30377
0.306918
0.309927
0.312963
0.3156
0.317435
0.318183
0.318237
0.317981
0.318305
0.319094
0.319454
0.319007
0.317396
0.314916
0.311986
0.309056
0.305967
0.304386
0.289143
0.29089
0.294092
0.297453
0.300557
0.303599
0.306243
0.308406
0.30997
0.310928
0.311277
0.310997
0.309992
0.30819
0.30578
0.302899
0.299896
0.296601
0.293453
0.291717
0.285412
0.286682
0.289145
0.292084
0.295066
0.297728
0.299883
0.301865
0.303537
0.304797
0.305254
0.304832
0.303792
0.302269
0.300392
0.297924
0.295087
0.292227
0.289801
0.288541
0.286748
0.287397
0.288801
0.291001
0.29342
0.295545
0.297345
0.298979
0.300366
0.30144
0.301969
0.301818
0.301152
0.30009
0.298703
0.296874
0.294657
0.292581
0.291217
0.290568
0.288181
0.288405
0.288988
0.290124
0.291552
0.293046
0.294603
0.296073
0.297381
0.298463
0.299115
0.299158
0.29874
0.297965
0.29694
0.295806
0.294605
0.293617
0.293094
0.292868
0.286819
0.286883
0.286981
0.287335
0.287916
0.288669
0.289766
0.291097
0.292446
0.293715
0.294651
0.294962
0.294775
0.294235
0.293677
0.293286
0.29294
0.292735
0.2927
0.292653
0.283527
0.283504
0.283551
0.283734
0.284069
0.284527
0.285237
0.286219
0.287427
0.28877
0.289965
0.290694
0.290888
0.290876
0.290849
0.290827
0.29079
0.290791
0.290835
0.290843
0.280016
0.280004
0.280135
0.280411
0.280826
0.281355
0.282063
0.282977
0.284137
0.285538
0.286897
0.28796
0.288603
0.288963
0.289163
0.289262
0.289258
0.289233
0.289228
0.289229
0.276478
0.276512
0.276619
0.276856
0.277389
0.277961
0.278778
0.279842
0.281199
0.282844
0.284516
0.285839
0.286806
0.287412
0.287753
0.287938
0.28801
0.288035
0.288045
0.288044
0.27236
0.272372
0.272502
0.272729
0.273119
0.273713
0.274595
0.275815
0.277442
0.279486
0.281667
0.283418
0.284685
0.285526
0.286072
0.286426
0.286647
0.286784
0.286854
0.286856
0.267525
0.267521
0.267672
0.267925
0.268339
0.268992
0.269973
0.271381
0.273326
0.275854
0.278647
0.280961
0.282587
0.283763
0.284561
0.285095
0.285442
0.285658
0.285766
0.285773
0.26209
0.262093
0.262263
0.262597
0.26313
0.26394
0.265145
0.266873
0.269266
0.272413
0.275918
0.27888
0.281036
0.282571
0.283598
0.284282
0.284719
0.284981
0.285108
0.285115
0.256018
0.256027
0.256243
0.256671
0.257359
0.258395
0.25992
0.262094
0.265099
0.269056
0.273467
0.277225
0.279976
0.281885
0.283181
0.284042
0.284592
0.28492
0.285076
0.285079
0.249182
0.249199
0.249468
0.249983
0.250826
0.252126
0.254047
0.2568
0.2606
0.265598
0.271153
0.275873
0.279311
0.281709
0.283343
0.284422
0.285111
0.285519
0.285713
0.285718
0.241114
0.241137
0.241497
0.242182
0.243283
0.244949
0.247396
0.250892
0.255709
0.262022
0.269002
0.274906
0.279195
0.282194
0.284237
0.285592
0.286465
0.28699
0.28724
0.287244
0.231756
0.231783
0.232223
0.233069
0.234461
0.23661
0.239765
0.244259
0.250406
0.258391
0.267139
0.274495
0.279826
0.283555
0.28609
0.287766
0.288834
0.289465
0.289761
0.289764
0.22031
0.220375
0.221006
0.22218
0.224038
0.226846
0.230938
0.236734
0.244595
0.254687
0.265605
0.274721
0.28131
0.285916
0.289047
0.291123
0.292461
0.293266
0.293651
0.293657
0.206597
0.206645
0.207424
0.208944
0.211416
0.21517
0.220593
0.228167
0.238258
0.250986
0.264542
0.275767
0.28387
0.289549
0.293423
0.295997
0.297642
0.29861
0.299058
0.299048
0.189234
0.189415
0.1906
0.192776
0.196171
0.201208
0.208449
0.218386
0.231349
0.247326
0.264022
0.277728
0.287617
0.294568
0.299332
0.302507
0.30456
0.3058
0.306388
0.306393
0.167531
0.167686
0.16927
0.17235
0.177201
0.184299
0.194168
0.207296
0.223903
0.243814
0.264197
0.280781
0.292755
0.30124
0.307135
0.311138
0.313744
0.31529
0.316
0.315961
0.138605
0.13926
0.141925
0.146638
0.153863
0.163972
0.17758
0.194966
0.216109
0.240679
0.265274
0.285099
0.299434
0.30969
0.316918
0.321894
0.325224
0.327284
0.328269
0.328219
0.100563
0.101495
0.105868
0.113764
0.125043
0.139926
0.158715
0.181483
0.208107
0.238039
0.267297
0.29066
0.307599
0.319863
0.328726
0.33507
0.339459
0.342259
0.343671
0.343471
0.0498185
0.0505728
0.0588832
0.0723132
0.0904551
0.112222
0.13781
0.167284
0.200323
0.236223
0.270501
0.297613
0.317359
0.331869
0.342555
0.350455
0.356229
0.359996
0.3615
0.361144
-0.0210167
-0.0162322
0.00218826
0.0254456
0.0523742
0.0822929
0.11579
0.152838
0.192933
0.235485
0.275457
0.307031
0.330357
0.347944
0.361394
0.37176
0.379893
0.386233
0.388996
0.389089
-0.105868
-0.0887584
-0.0567582
-0.0226578
0.0134475
0.0519822
0.0938258
0.13854
0.185893
0.235511
0.281824
0.318627
0.346275
0.367652
0.384625
0.398389
0.40943
0.418027
0.425439
0.426599
-0.170186
-0.152081
-0.111303
-0.0694603
-0.0246573
0.0227326
0.0727527
0.12492
0.179418
0.235823
0.28807
0.329509
0.360664
0.384787
0.403835
0.419241
0.431882
0.441121
0.447624
0.448652
-0.218022
-0.201684
-0.15696
-0.110614
-0.0590043
-0.00417093
0.0528901
0.111986
0.173189
0.235837
0.293347
0.338507
0.372042
0.397632
0.417477
0.432981
0.445751
0.454946
0.461166
0.462293
-0.257288
-0.240961
-0.194287
-0.145316
-0.088505
-0.0282531
0.0344621
0.0996153
0.166707
0.234867
0.296883
0.344961
0.380118
0.4065
0.426694
0.442189
0.454811
0.463915
0.470429
0.471274
-0.290869
-0.274215
-0.22525
-0.174151
-0.113595
-0.0497127
0.0174517
0.087655
0.159808
0.232949
0.299107
0.349841
0.386442
0.413538
0.434098
0.449766
0.462311
0.471393
0.477656
0.478788
-0.320214
-0.303616
-0.252142
-0.198664
-0.135237
-0.06887
0.0018272
0.0761868
0.152758
0.230511
0.300621
0.353959
0.392099
0.420059
0.44104
0.456933
0.469414
0.478499
0.484606
0.485709
-0.346608
-0.330219
-0.277043
-0.220893
-0.154881
-0.0862788
-0.0125451
0.0652925
0.145774
0.227831
0.301872
0.357991
0.39774
0.426542
0.447926
0.464022
0.47646
0.48554
0.49151
0.49252
-0.370894
-0.354475
-0.300715
-0.242184
-0.173803
-0.102792
-0.0261669
0.0547325
0.138771
0.224884
0.30281
0.361674
0.403111
0.432921
0.454791
0.471075
0.483528
0.492585
0.498441
0.499389
-0.393587
-0.37664
-0.322932
-0.262675
-0.192503
-0.119096
-0.0397163
0.044015
0.131359
0.221249
0.302964
0.364891
0.408376
0.439337
0.461812
0.47846
0.490951
0.500027
0.505778
0.506664
-0.414613
-0.397641
-0.343561
-0.282203
-0.210824
-0.135375
-0.0535642
0.0328049
0.123293
0.216918
0.302747
0.368019
0.413718
0.446072
0.469279
0.486151
0.49873
0.507705
0.513429
0.514378
-0.434614
-0.417621
-0.363066
-0.300883
-0.228561
-0.151493
-0.0676632
0.0211047
0.114564
0.211781
0.30149
0.370163
0.41862
0.452739
0.476984
0.494491
0.507268
0.516262
0.52193
0.522742
-0.454299
-0.436808
-0.381926
-0.318968
-0.245731
-0.167331
-0.081836
0.00902581
0.105135
0.205626
0.299232
0.371907
0.423588
0.460087
0.485561
0.503547
0.516385
0.525296
0.530856
0.531666
-0.473792
-0.45552
-0.400378
-0.336623
-0.262469
-0.182905
-0.0960017
-0.00334395
0.0951205
0.198763
0.29649
0.373038
0.427953
0.466905
0.494208
0.513052
0.526319
0.535284
0.54056
0.541197
-0.492876
-0.473925
-0.418452
-0.353907
-0.278896
-0.198293
-0.110165
-0.0159469
0.0845947
0.191037
0.292127
0.372651
0.431693
0.474271
0.503894
0.523992
0.537281
0.545669
0.550715
0.551185
-0.511356
-0.491951
-0.436074
-0.3708
-0.295038
-0.213531
-0.124339
-0.0287811
0.0734964
0.182276
0.286745
0.371373
0.434415
0.48078
0.513643
0.535521
0.549246
0.557629
0.561841
0.561785
-0.52916
-0.509451
-0.453144
-0.387242
-0.310846
-0.228583
-0.138496
-0.0418189
0.061947
0.17287
0.280551
0.368743
0.435866
0.486479
0.523513
0.548827
0.563817
0.570388
0.572426
0.57163
-0.546265
-0.52632
-0.469583
-0.403152
-0.326232
-0.243362
-0.152559
-0.0549581
0.0500834
0.162807
0.272745
0.364302
0.435762
0.491347
0.533594
0.563529
0.580905
0.58615
0.584072
0.580746
-0.562641
-0.54251
-0.485341
-0.418467
-0.341116
-0.257774
-0.166416
-0.0680756
0.0379694
0.152072
0.263997
0.358275
0.433206
0.493921
0.542246
0.57891
0.60237
0.607172
0.598659
0.602456
-0.578246
-0.558
-0.500389
-0.43314
-0.355431
-0.271728
-0.179961
-0.0810882
0.0257325
0.140916
0.254439
0.350617
0.428799
0.493636
0.547858
0.592557
0.627454
0.63374
0.595902
0.539522
-0.593026
-0.572774
-0.514771
-0.447249
-0.369287
-0.285358
-0.193371
-0.0941989
0.0131258
0.129087
0.243515
0.340819
0.421104
0.489584
0.549231
0.602622
0.652357
0.692243
0.726831
0.780788
-0.607051
-0.586862
-0.528584
-0.460936
-0.382861
-0.298894
-0.206911
-0.107715
-0.000247221
0.116052
0.230653
0.327979
0.408954
0.480329
0.540527
0.5913
0.629907
0.661142
0.655759
0.658258
-0.620345
-0.60028
-0.541804
-0.474164
-0.396088
-0.312246
-0.220463
-0.121502
-0.0141946
0.101995
0.216183
0.312824
0.39144
0.46085
0.518901
0.560259
0.569453
0.541194
0.493572
0.488211
-0.632912
-0.613079
-0.55444
-0.486942
-0.408965
-0.325412
-0.234005
-0.135505
-0.0287305
0.0868802
0.19998
0.294699
0.370178
0.432169
0.482623
0.49764
0.465988
0.39928
0.327929
0.322246
-0.644744
-0.625263
-0.566509
-0.499292
-0.421505
-0.338392
-0.247524
-0.149715
-0.0438029
0.0708099
0.18197
0.273763
0.342664
0.391395
0.415901
0.400805
0.35308
0.247408
0.155419
0.141161
-0.656235
-0.637207
-0.578369
-0.511541
-0.434027
-0.351471
-0.261286
-0.164363
-0.0595023
0.0538971
0.162612
0.250464
0.310841
0.342346
0.33023
0.283982
0.173132
0.0415815
-0.0743872
-0.0963434
-0.66816
-0.64957
-0.590635
-0.524224
-0.447044
-0.365089
-0.275671
-0.179727
-0.0761028
0.0357466
0.14172
0.2243
0.276531
0.284173
0.230161
0.129651
-0.0472595
-0.214467
-0.351155
-0.376011
-0.680948
-0.662694
-0.603539
-0.537521
-0.460694
-0.379341
-0.29076
-0.19592
-0.0937284
0.0162474
0.119203
0.195145
0.233865
0.213552
0.125327
-0.0490449
-0.284757
-0.525604
-0.723933
-0.772797
-0.694596
-0.676571
-0.617065
-0.551424
-0.474922
-0.394182
-0.306508
-0.212895
-0.112201
-0.00416966
0.0953636
0.164997
0.184211
0.124198
-0.0039218
-0.238254
-0.523371
-0.868681
-1.23565
-1.37415
-0.709113
-0.69127
-0.631221
-0.565991
-0.489732
-0.409616
-0.322924
-0.230631
-0.131513
-0.0257644
0.0705189
0.133152
0.13237
0.0289487
-0.159075
-0.437115
-0.7432
-1.17153
-1.84419
-2.46143
-0.724434
-0.706741
-0.645964
-0.581254
-0.50506
-0.425602
-0.339933
-0.249137
-0.151707
-0.0481333
0.0453487
0.0999658
0.0815796
-0.0609381
-0.315016
-0.646693
-0.938729
-1.27569
-1.98951
-3.79613
-0.74052
-0.723009
-0.661243
-0.597307
-0.520931
-0.442269
-0.357708
-0.26853
-0.17293
-0.0713118
0.0194963
0.066429
0.0265012
-0.138177
-0.441018
-0.804332
-1.05862
-1.18553
-1.25947
-1.73453
-0.757273
-0.739944
-0.677081
-0.614385
-0.537465
-0.459959
-0.37668
-0.289382
-0.19605
-0.0965127
-0.00758125
0.0349625
-0.0320522
-0.199348
-0.517735
-0.862342
-1.08652
-1.15408
-1.1196
-1.16967
-0.774633
-0.757258
-0.693455
-0.632406
-0.554507
-0.478684
-0.396857
-0.311951
-0.221431
-0.124033
-0.0361223
0.00585973
-0.0839234
-0.247224
-0.565599
-0.873179
-1.0759
-1.15711
-1.16859
-1.196
-0.792125
-0.774446
-0.710558
-0.650976
-0.571927
-0.498327
-0.418022
-0.336096
-0.248719
-0.153923
-0.0650661
-0.0188956
-0.131814
-0.305037
-0.614071
-0.870959
-1.04176
-1.0935
-1.12539
-1.1053
-0.80956
-0.791275
-0.728173
-0.669144
-0.589804
-0.518553
-0.439736
-0.362054
-0.277955
-0.186159
-0.0925773
-0.0279529
-0.155661
-0.363513
-0.664404
-0.881128
-1.016
-1.00146
-1.0381
-1.02704
-0.826232
-0.807612
-0.746097
-0.685849
-0.608363
-0.538766
-0.46138
-0.390228
-0.309283
-0.221226
-0.122986
-0.0338367
-0.16693
-0.433474
-0.73173
-0.872882
-0.918938
-0.941053
-0.958636
-0.970994
-0.841832
-0.822623
-0.763289
-0.700889
-0.62666
-0.557659
-0.485032
-0.418165
-0.344303
-0.262471
-0.163624
-0.0638615
-0.197034
-0.507336
-0.811476
-0.923298
-0.909507
-0.95368
-0.977364
-0.990789
-0.855723
-0.836207
-0.778051
-0.714694
-0.643128
-0.575227
-0.506957
-0.445861
-0.387723
-0.317017
-0.224737
-0.118324
-0.23305
-0.579055
-0.915915
-1.15294
-1.21214
-1.20763
-1.20086
-1.19464
-0.866738
-0.847167
-0.789495
-0.726313
-0.656247
-0.590293
-0.526324
-0.472034
-0.429403
-0.388716
-0.3017
-0.226334
-0.297758
-0.67006
-1.05925
-1.46897
-1.65643
-1.6091
-1.51814
-1.47352
-0.873878
-0.854321
-0.79697
-0.734286
-0.665269
-0.60164
-0.542873
-0.498494
-0.474199
-0.481271
-0.44711
-0.414977
-0.438135
-0.73141
-1.02429
-1.41919
-1.64941
-1.59854
-1.42857
-1.3797
-0.876341
-0.856998
-0.799621
-0.737674
-0.669432
-0.60806
-0.555139
-0.52351
-0.532947
-0.599135
-0.688083
-0.664182
-0.567181
-0.648056
-0.706091
-0.822277
-0.914367
-0.878297
-0.804742
-0.740758
-0.872438
-0.853524
-0.79598
-0.735212
-0.667426
-0.608006
-0.560462
-0.542911
-0.591743
-0.739363
-0.972107
-0.898178
-0.605542
-0.393836
-0.182361
-0.0429299
-0.0139835
0.0224552
0.0599857
0.0853845
-0.861203
-0.843433
-0.785863
-0.726008
-0.657885
-0.59986
-0.555607
-0.548356
-0.627304
-0.846151
-1.23262
-1.10429
-0.566603
-0.0873883
0.332723
0.632241
0.740525
0.763522
0.790188
0.803192
-0.84211
-0.825651
-0.765132
-0.712135
-0.637917
-0.583009
-0.538339
-0.532881
-0.616105
-0.831774
-1.32352
-1.19344
-0.375197
0.22777
0.718574
1.01943
1.17571
1.22414
1.24242
1.2485
-0.813811
-0.796955
-0.738593
-0.682811
-0.613699
-0.555079
-0.506802
-0.492575
-0.549633
-0.724156
-1.08456
-0.835211
-0.100703
0.450378
0.887149
1.15309
1.2825
1.33107
1.35216
1.35805
-0.774262
-0.75885
-0.703019
-0.647382
-0.57917
-0.516969
-0.46197
-0.428691
-0.439631
-0.522377
-0.663012
-0.321909
0.205894
0.618152
0.931768
1.11789
1.21241
1.26505
1.29373
1.30318
-0.725597
-0.712579
-0.661111
-0.604352
-0.535793
-0.471502
-0.408791
-0.354388
-0.317543
-0.301537
-0.255235
0.0788572
0.423385
0.709522
0.90672
1.02859
1.10418
1.15338
1.18397
1.19467
-0.670086
-0.660536
-0.610708
-0.55372
-0.48766
-0.422209
-0.352957
-0.282827
-0.211237
-0.126436
0.00354629
0.274013
0.51097
0.701871
0.827275
0.913688
0.974686
1.01875
1.04946
1.06044
-0.609421
-0.600205
-0.551902
-0.497476
-0.435912
-0.370077
-0.29862
-0.221237
-0.133363
-0.0173081
0.119052
0.317948
0.487209
0.613507
0.700989
0.765398
0.814289
0.851582
0.879165
0.889766
-0.521235
-0.513387
-0.475545
-0.429633
-0.374774
-0.314393
-0.248777
-0.173744
-0.0871301
0.02221
0.151157
0.304712
0.426007
0.51674
0.582212
0.630597
0.666861
0.693655
0.713032
0.720199
-0.396615
-0.393115
-0.37226
-0.34268
-0.30019
-0.254057
-0.198997
-0.13383
-0.0561182
0.0411898
0.153776
0.274768
0.368189
0.437937
0.488382
0.524529
0.550839
0.567138
0.579351
0.581759
-0.272286
-0.271156
-0.262786
-0.246388
-0.220215
-0.188171
-0.147132
-0.0953024
-0.0302453
0.0523801
0.146669
0.240777
0.312502
0.36513
0.402231
0.42765
0.444622
0.454694
0.459676
0.461117
-0.167949
-0.167143
-0.163167
-0.155288
-0.142012
-0.123167
-0.0953652
-0.0570403
-0.00612936
0.0602096
0.136636
0.208817
0.263149
0.302249
0.329021
0.346612
0.357876
0.364047
0.368135
0.369962
-0.0875813
-0.0881679
-0.0865032
-0.0827253
-0.076164
-0.0654637
-0.0482081
-0.0218737
0.0157123
0.0668069
0.126656
0.181459
0.22234
0.251297
0.270743
0.283323
0.291371
0.296457
0.299499
0.300262
-0.0323178
-0.0333593
-0.0341373
-0.0331102
-0.0286533
-0.0224377
-0.0114153
0.00682732
0.0339852
0.0726543
0.118384
0.159859
0.190524
0.212067
0.226468
0.235662
0.241335
0.244329
0.245433
0.245371
0.00284019
0.00197849
-6.77977e-05
-0.00121167
0.000226296
0.00455534
0.0137869
0.0276515
0.0480193
0.0771882
0.111797
0.143083
0.166093
0.182192
0.192816
0.199198
0.202591
0.203769
0.20383
0.203515
0.0235941
0.0229182
0.0210971
0.0194406
0.0196043
0.0224109
0.029158
0.040143
0.0563367
0.0788814
0.105373
0.129122
0.146545
0.158597
0.166275
0.170527
0.172432
0.17274
0.172462
0.172131
0.0356491
0.0351404
0.0341151
0.0331311
0.0330101
0.0343405
0.0387366
0.0468211
0.059541
0.0773877
0.0981826
0.116545
0.129847
0.138799
0.14425
0.14709
0.148312
0.148497
0.148318
0.148034
0.0434749
0.0430974
0.0425825
0.0421636
0.0422365
0.0431741
0.0460143
0.0515408
0.0609157
0.0746781
0.0909245
0.105117
0.115181
0.121754
0.125682
0.12775
0.128688
0.128913
0.128851
0.128629
0.0493075
0.0490385
0.0487545
0.0484786
0.048625
0.0495417
0.0516074
0.0554515
0.062044
0.0721483
0.0843767
0.0950711
0.102543
0.10739
0.110318
0.111902
0.112601
0.112757
0.112727
0.112553
0.0529713
0.0527646
0.052505
0.0521157
0.0520996
0.0527983
0.0544065
0.0573857
0.0621786
0.0695091
0.0784498
0.0863343
0.091861
0.0954923
0.0976831
0.0988513
0.0993061
0.0993454
0.099294
0.099152
0.0540703
0.0538981
0.0536352
0.0531778
0.0530178
0.0534033
0.0545218
0.0568483
0.060529
0.0660814
0.0727225
0.0785725
0.0827024
0.0854234
0.087017
0.0878363
0.0881124
0.0880817
0.0880166
0.0878991
0.0531591
0.0530249
0.0528074
0.0524101
0.052239
0.0524362
0.0531463
0.0548418
0.0576124
0.0618964
0.0669658
0.071404
0.0745049
0.0765191
0.0776619
0.078235
0.078411
0.0783634
0.0783039
0.0782102
0.0510484
0.0509538
0.0507989
0.0505102
0.050393
0.05053
0.0510079
0.0522167
0.0542193
0.0574424
0.0612862
0.0646483
0.066963
0.0684478
0.0692751
0.069686
0.0698048
0.0697587
0.069709
0.0696368
0.0481925
0.0481281
0.0480154
0.047809
0.0477299
0.04784
0.0481932
0.0490858
0.0505322
0.0529081
0.055762
0.0582615
0.0599705
0.0610615
0.0616651
0.0619604
0.0620381
0.061994
0.0619507
0.0618942
0.0447304
0.0446836
0.0445938
0.0444414
0.0443778
0.0444572
0.0447181
0.0453887
0.0464554
0.0482098
0.0503117
0.0521596
0.0534205
0.0542228
0.0546599
0.0548656
0.0549098
0.0548645
0.0548245
0.0547803
0.0407994
0.0407635
0.0406898
0.0405769
0.0405238
0.0405777
0.0407655
0.041262
0.0420558
0.0433642
0.044922
0.046288
0.0472147
0.0477989
0.0481111
0.0482508
0.0482726
0.0482297
0.0481937
0.0481585
0.036534
0.0365072
0.0364489
0.0363659
0.0363218
0.0363566
0.0364899
0.0368498
0.0374333
0.0384033
0.0395605
0.0405679
0.0412446
0.041667
0.0418899
0.0419851
0.041994
0.0419563
0.0419257
0.0418974
0.032022
0.0320008
0.0319561
0.0318965
0.0318627
0.0318861
0.0319815
0.0322395
0.0326645
0.0333728
0.0342246
0.0349633
0.0354567
0.0357613
0.0359179
0.0359795
0.0359778
0.0359431
0.0359167
0.0358947
0.0273484
0.0273326
0.0272974
0.0272516
0.0272236
0.0272382
0.0273072
0.0274923
0.0278018
0.0283156
0.0289307
0.0294622
0.0298142
0.030028
0.0301349
0.0301727
0.0301654
0.0301346
0.0301123
0.030095
0.0225444
0.022532
0.0225041
0.0224682
0.0224435
0.0224488
0.0224947
0.0226227
0.022842
0.0232077
0.0236475
0.0240232
0.02427
0.0244194
0.0244918
0.0245138
0.0245036
0.0244769
0.0244582
0.0244443
0.0176423
0.0176324
0.0176093
0.0175796
0.0175583
0.0175576
0.017585
0.0176684
0.0178175
0.0180679
0.0183745
0.0186358
0.0188055
0.0189039
0.0189471
0.0189554
0.0189417
0.018917
0.0189007
0.01889
0.0126649
0.0126583
0.0126421
0.0126196
0.0126021
0.0125983
0.0126145
0.0126669
0.0127618
0.0129222
0.0131198
0.0132879
0.0133952
0.0134544
0.0134782
0.013479
0.0134655
0.0134453
0.0134328
0.0134252
0.00763905
0.00763338
0.00762014
0.00760279
0.00758872
0.00758302
0.00758774
0.00761366
0.00766636
0.00775729
0.00787076
0.00796485
0.00802372
0.00805435
0.00806465
0.00806242
0.00805096
0.00803484
0.00802458
0.00801811
0.00256894
0.00256579
0.00255681
0.0025455
0.00253739
0.00253375
0.00253391
0.00254259
0.00255825
0.00258497
0.00261949
0.00264804
0.0026669
0.00267821
0.00268103
0.00267875
0.00267182
0.00266137
0.00265517
0.00265156
-1.70444
-0.730291
-0.449434
-0.133483
0.0839522
0.273384
0.435044
0.599227
0.773437
0.854087
-0.610331
-0.141339
-0.094969
0.11684
0.270725
0.408566
0.529815
0.635975
0.676269
0.62814
-0.158167
0.0897306
0.151908
0.299412
0.408116
0.505764
0.587012
0.647361
0.656925
0.665806
0.117215
0.285706
0.328902
0.446931
0.516592
0.585614
0.638864
0.675953
0.687966
0.70995
0.325709
0.443903
0.472777
0.559565
0.606196
0.65547
0.692386
0.719057
0.730711
0.761243
0.484971
0.56606
0.596268
0.650298
0.689179
0.723224
0.750307
0.77217
0.788259
0.815475
0.616244
0.672898
0.700282
0.733335
0.76424
0.790173
0.811862
0.832031
0.847318
0.873219
0.726818
0.767756
0.790761
0.813551
0.836412
0.857307
0.87558
0.894093
0.909076
0.932657
0.826425
0.856897
0.874738
0.89075
0.907803
0.924539
0.940668
0.95848
0.972454
0.994808
0.917547
0.938927
0.954298
0.967707
0.981756
0.99621
1.01033
1.02556
1.03741
1.05714
1.0049
1.02079
1.03495
1.04733
1.05975
1.07165
1.0829
1.09454
1.10229
1.11913
1.09123
1.10441
1.11822
1.13009
1.14081
1.15049
1.15911
1.16709
1.1706
1.18195
1.18047
1.19119
1.20507
1.21453
1.22208
1.22935
1.23654
1.24313
1.24421
1.25153
1.27894
1.28383
1.29201
1.29685
1.30011
1.30455
1.31055
1.31836
1.32214
1.33194
1.39264
1.37923
1.37171
1.3658
1.3631
1.36447
1.37095
1.38344
1.39817
1.42781
1.51336
1.45747
1.42659
1.40946
1.40138
1.40149
1.41026
1.42962
1.46156
1.53072
)
;

boundaryField
{
    wall-4
    {
        type            zeroGradient;
    }
    pressure-outlet-7
    {
        type            fixedValue;
        value           uniform 0;
    }
    velocity-inlet-6
    {
        type            zeroGradient;
    }
    velocity-inlet-5
    {
        type            zeroGradient;
    }
    frontAndBackPlanes
    {
        type            empty;
    }
}


// ************************************************************************* //
