/*--------------------------------*- C++ -*----------------------------------*\
  =========                 |
  \\      /  F ield         | OpenFOAM: The Open Source CFD Toolbox
   \\    /   O peration     | Website:  https://openfoam.org
    \\  /    A nd           | Version:  9
     \\/     M anipulation  |
\*---------------------------------------------------------------------------*/
FoamFile
{
    format      ascii;
    class       volScalarField;
    location    "16";
    object      p;
}
// * * * * * * * * * * * * * * * * * * * * * * * * * * * * * * * * * * * * * //

dimensions      [0 2 -2 0 0 0 0];

internalField   nonuniform List<scalar> 
2200
(
0.391692
0.370223
0.354357
0.338746
0.324224
0.311837
0.301617
0.293567
0.287892
0.284893
0.285189
0.288665
0.294686
0.302995
0.313395
0.325914
0.340522
0.356185
0.372083
0.393569
0.324027
0.320777
0.317911
0.313862
0.308479
0.302123
0.295644
0.289843
0.285444
0.283001
0.283255
0.286227
0.291002
0.297083
0.303759
0.310249
0.315729
0.319849
0.322759
0.326022
0.28388
0.284165
0.286317
0.287792
0.288372
0.287658
0.285748
0.28319
0.280715
0.279154
0.279453
0.281574
0.28447
0.287327
0.289452
0.29032
0.289849
0.288453
0.28636
0.286099
0.261154
0.262634
0.265504
0.268254
0.270919
0.273135
0.274457
0.274805
0.274378
0.273896
0.274289
0.275396
0.276281
0.27628
0.275207
0.27317
0.270633
0.267969
0.265155
0.263693
0.247101
0.249055
0.252007
0.254965
0.257957
0.260948
0.26365
0.265761
0.267094
0.267787
0.268227
0.268261
0.267492
0.265793
0.263389
0.26061
0.257771
0.254918
0.252032
0.250087
0.240095
0.241656
0.243896
0.246564
0.249361
0.252086
0.25465
0.257073
0.259218
0.260737
0.261222
0.260583
0.259151
0.257234
0.255021
0.252545
0.249926
0.247383
0.245214
0.243657
0.237131
0.238064
0.239533
0.24194
0.24452
0.246916
0.249025
0.251033
0.252961
0.254515
0.255129
0.254675
0.253617
0.252223
0.250521
0.248429
0.246053
0.243776
0.24237
0.241442
0.236108
0.236547
0.23755
0.239635
0.241949
0.24416
0.246115
0.247905
0.249493
0.250807
0.251575
0.251588
0.251004
0.249985
0.248573
0.246757
0.244705
0.242797
0.241869
0.241442
0.235951
0.236087
0.236697
0.238109
0.239771
0.241554
0.243365
0.245138
0.246728
0.248073
0.249012
0.249282
0.24887
0.248046
0.246986
0.245704
0.244374
0.24318
0.242665
0.242525
0.234887
0.2349
0.235182
0.235851
0.236716
0.237827
0.239211
0.240849
0.242543
0.244173
0.245403
0.245929
0.245808
0.2453
0.244748
0.244183
0.243693
0.243278
0.243098
0.243089
0.232208
0.232199
0.232354
0.232698
0.233212
0.233916
0.234861
0.236197
0.237799
0.239601
0.241177
0.242187
0.24269
0.242758
0.242651
0.24261
0.242558
0.242509
0.24249
0.242487
0.228889
0.228835
0.22902
0.229379
0.229974
0.230707
0.231646
0.232913
0.234489
0.23638
0.238238
0.239685
0.240657
0.241254
0.241559
0.241707
0.241724
0.241712
0.24171
0.241716
0.225352
0.22535
0.225532
0.225957
0.22658
0.227463
0.228693
0.230174
0.232013
0.234232
0.236497
0.238291
0.239534
0.240383
0.240952
0.241224
0.24132
0.24135
0.241366
0.241373
0.221332
0.221343
0.221492
0.221876
0.222534
0.223455
0.224756
0.22648
0.228725
0.231504
0.234431
0.236761
0.238413
0.239548
0.240327
0.240814
0.241109
0.24128
0.241362
0.241359
0.216539
0.216525
0.216719
0.217092
0.21772
0.218668
0.220069
0.222035
0.22471
0.228145
0.231894
0.234996
0.237227
0.238777
0.239869
0.240602
0.241082
0.241375
0.241514
0.24151
0.210825
0.210808
0.211056
0.211515
0.212273
0.213444
0.215124
0.217487
0.220726
0.224948
0.22963
0.233613
0.236483
0.238543
0.239973
0.240936
0.241569
0.241951
0.242128
0.242122
0.204277
0.204257
0.204545
0.205164
0.206145
0.207611
0.209736
0.212719
0.216774
0.222044
0.22788
0.232857
0.236487
0.239086
0.240851
0.242038
0.2428
0.243245
0.243446
0.243434
0.196578
0.196568
0.196946
0.197753
0.199021
0.200878
0.203557
0.207316
0.21243
0.219059
0.226353
0.232533
0.237052
0.24024
0.242424
0.243902
0.244865
0.245442
0.2457
0.245685
0.187588
0.187567
0.188023
0.188977
0.190552
0.192922
0.19633
0.201102
0.207562
0.215893
0.224991
0.232649
0.238243
0.242196
0.244928
0.246779
0.247979
0.248682
0.248989
0.248961
0.176588
0.176591
0.177233
0.178509
0.180547
0.183565
0.187924
0.194021
0.202219
0.212682
0.223973
0.233415
0.240292
0.245148
0.248498
0.250756
0.252236
0.253122
0.253514
0.253487
0.163314
0.163288
0.16408
0.165706
0.168369
0.172371
0.178056
0.185917
0.196355
0.209465
0.223398
0.234958
0.243359
0.249303
0.253427
0.25623
0.258055
0.259123
0.259583
0.259532
0.146421
0.146493
0.147664
0.149919
0.153528
0.15886
0.166389
0.176663
0.189991
0.206357
0.223436
0.237481
0.247668
0.254895
0.259909
0.263311
0.265552
0.266879
0.267455
0.267399
0.125328
0.125338
0.126926
0.130092
0.135115
0.142518
0.152675
0.166143
0.183117
0.203404
0.224134
0.241016
0.253245
0.261963
0.268096
0.272321
0.275112
0.276767
0.277458
0.277347
0.097325
0.0977349
0.100277
0.105
0.112348
0.122816
0.136674
0.154372
0.175861
0.200775
0.225691
0.245779
0.260339
0.270803
0.278233
0.283428
0.286909
0.288953
0.289839
0.289705
0.0599962
0.0606669
0.0648943
0.0728404
0.0842625
0.0993743
0.118445
0.141577
0.168503
0.198746
0.228292
0.251857
0.268939
0.281337
0.290304
0.296716
0.30118
0.303939
0.305103
0.304811
0.0103093
0.0109411
0.0189239
0.032348
0.0503736
0.0723763
0.0983041
0.128046
0.161324
0.197501
0.231983
0.259212
0.279017
0.293557
0.304308
0.312238
0.317875
0.321301
0.322493
0.322089
-0.0577987
-0.0539216
-0.0368206
-0.0139898
0.0129042
0.0432279
0.0769882
0.114203
0.154577
0.19739
0.237528
0.26919
0.292543
0.310079
0.323389
0.333599
0.341385
0.346604
0.348355
0.348201
-0.13819
-0.124484
-0.0950541
-0.0618215
-0.0251977
0.0136463
0.0556128
0.100677
0.148405
0.198266
0.244737
0.281554
0.309086
0.330285
0.347047
0.360399
0.371149
0.378825
0.383418
0.38409
-0.20376
-0.186688
-0.149228
-0.107787
-0.0625445
-0.0151388
0.0351024
0.0878058
0.142631
0.19926
0.251616
0.293071
0.324232
0.348311
0.36739
0.382686
0.394648
0.403708
0.408139
0.408576
-0.252578
-0.237434
-0.195102
-0.148525
-0.0965676
-0.0418338
0.0157084
0.0753463
0.136893
0.199953
0.257783
0.303246
0.337074
0.362911
0.382971
0.398821
0.411173
0.420056
0.424438
0.425039
-0.292658
-0.278005
-0.233204
-0.183509
-0.126282
-0.0658532
-0.002311
0.0634393
0.131158
0.200047
0.262615
0.311107
0.346631
0.373354
0.393748
0.40965
0.421976
0.430828
0.435456
0.436075
-0.32701
-0.31209
-0.265312
-0.213317
-0.152039
-0.087302
-0.0189131
0.0520871
0.125156
0.19904
0.265616
0.316664
0.353523
0.380884
0.401652
0.417651
0.430144
0.438905
0.443895
0.444259
-0.357143
-0.342218
-0.293295
-0.238974
-0.174569
-0.106625
-0.0343322
0.0410891
0.118742
0.197167
0.267653
0.321195
0.359397
0.387518
0.408669
0.424708
0.437137
0.446114
0.450599
0.451046
-0.384311
-0.369581
-0.318666
-0.261854
-0.194803
-0.124331
-0.0488368
0.0303217
0.112016
0.194678
0.268886
0.324895
0.364688
0.393605
0.415246
0.431548
0.443849
0.452815
0.457164
0.457561
-0.409206
-0.394607
-0.342414
-0.283185
-0.213687
-0.140911
-0.0626315
0.0197505
0.105047
0.191717
0.269738
0.328737
0.370234
0.400093
0.421986
0.438253
0.45048
0.459252
0.463682
0.464152
-0.43268
-0.41765
-0.365021
-0.303763
-0.231974
-0.156853
-0.0759501
0.00932313
0.0979426
0.188525
0.270552
0.332257
0.375308
0.405986
0.428481
0.445085
0.457431
0.466102
0.470495
0.470909
-0.4547
-0.43945
-0.386537
-0.323836
-0.250083
-0.17262
-0.0891537
-0.00117162
0.0905401
0.18471
0.270284
0.334925
0.380289
0.412388
0.435409
0.452236
0.464571
0.473042
0.477464
0.477911
-0.475486
-0.460318
-0.406979
-0.343277
-0.268045
-0.18848
-0.102625
-0.012121
0.0823831
0.179852
0.269151
0.337427
0.385144
0.418643
0.442471
0.459641
0.472151
0.480673
0.484881
0.485256
-0.49562
-0.480308
-0.42651
-0.361971
-0.285662
-0.204416
-0.116521
-0.0237513
0.0733907
0.174165
0.267514
0.339109
0.389492
0.42497
0.449961
0.467669
0.48025
0.488381
0.492617
0.492949
-0.515478
-0.499551
-0.445321
-0.379972
-0.30278
-0.22025
-0.130692
-0.0359104
0.0637321
0.167564
0.26445
0.339812
0.393975
0.431971
0.458247
0.47633
0.488861
0.49709
0.500954
0.501087
-0.534987
-0.518268
-0.463639
-0.397425
-0.319373
-0.235787
-0.144865
-0.0483642
0.0534537
0.159944
0.26027
0.339869
0.39739
0.438559
0.466912
0.485928
0.498387
0.505811
0.509342
0.50936
-0.553981
-0.536573
-0.481569
-0.414467
-0.335529
-0.250985
-0.158905
-0.0609921
0.0426298
0.151524
0.255256
0.338693
0.400282
0.444961
0.476175
0.496576
0.508827
0.515485
0.518118
0.51782
-0.572371
-0.554501
-0.499111
-0.431143
-0.351348
-0.265908
-0.172829
-0.073739
0.0314057
0.142332
0.248789
0.33588
0.401783
0.450969
0.486163
0.509047
0.521463
0.525678
0.525914
0.525651
-0.590139
-0.571947
-0.51617
-0.447405
-0.366855
-0.280617
-0.186669
-0.0865728
0.0198531
0.132395
0.241109
0.331827
0.402024
0.455896
0.495915
0.52319
0.537267
0.539321
0.534835
0.532035
-0.607264
-0.588804
-0.532632
-0.463169
-0.382002
-0.295096
-0.200404
-0.0994611
0.00799488
0.121876
0.232505
0.326095
0.400131
0.459166
0.505255
0.53916
0.558857
0.558001
0.549871
0.554485
-0.623717
-0.604991
-0.548412
-0.478347
-0.396694
-0.309252
-0.213965
-0.112369
-0.00412314
0.110793
0.222797
0.3182
0.39569
0.459684
0.512221
0.554203
0.585187
0.580636
0.537127
0.486093
-0.639423
-0.620507
-0.563532
-0.492992
-0.41099
-0.323176
-0.227484
-0.12544
-0.0166606
0.098981
0.211895
0.308668
0.38866
0.456653
0.515212
0.566967
0.613211
0.641847
0.668684
0.719747
-0.654332
-0.635438
-0.578105
-0.507239
-0.42504
-0.337045
-0.241182
-0.138954
-0.0299828
0.0859636
0.199103
0.296015
0.376948
0.44782
0.50806
0.559019
0.596194
0.616583
0.601292
0.606315
-0.668408
-0.649734
-0.592103
-0.521049
-0.438765
-0.350747
-0.254912
-0.152787
-0.0439896
0.0716356
0.184326
0.280658
0.359973
0.429243
0.486981
0.530356
0.538817
0.506701
0.456569
0.450621
-0.681712
-0.663382
-0.605539
-0.534437
-0.452171
-0.364287
-0.268672
-0.166895
-0.0586536
0.0561725
0.167973
0.262468
0.338577
0.401226
0.451005
0.4681
0.438836
0.372906
0.302961
0.296206
-0.694301
-0.676356
-0.618424
-0.54743
-0.465292
-0.377692
-0.28246
-0.181253
-0.0738935
0.0396613
0.14964
0.241066
0.310194
0.360018
0.386028
0.374706
0.328512
0.227518
0.139555
0.124936
-0.706623
-0.689099
-0.631151
-0.560386
-0.478474
-0.391266
-0.296545
-0.196105
-0.0898846
0.0218314
0.128977
0.216411
0.278617
0.313836
0.304152
0.264011
0.158479
0.0332393
-0.0768552
-0.0987487
-0.719504
-0.702359
-0.644384
-0.5739
-0.492272
-0.405476
-0.311337
-0.211779
-0.106895
0.0026159
0.106574
0.188859
0.244368
0.254981
0.209534
0.1179
-0.0476619
-0.206363
-0.33727
-0.36195
-0.733429
-0.716573
-0.658426
-0.588181
-0.50685
-0.420436
-0.326893
-0.228308
-0.124915
-0.0179363
0.0813531
0.157773
0.203799
0.186415
0.113117
-0.0476915
-0.267139
-0.495006
-0.684076
-0.731312
-0.748422
-0.73175
-0.673305
-0.603231
-0.522168
-0.4361
-0.34317
-0.245629
-0.143874
-0.0396498
0.0549637
0.12596
0.156548
0.104777
-0.00535896
-0.220713
-0.483649
-0.805284
-1.15232
-1.29261
-0.764547
-0.748
-0.689109
-0.619106
-0.538254
-0.452508
-0.360179
-0.263765
-0.163791
-0.0625506
0.026602
0.092179
0.106627
0.015652
-0.150087
-0.397611
-0.675093
-1.06951
-1.70849
-2.30735
-0.781782
-0.765265
-0.705868
-0.635851
-0.555109
-0.469617
-0.377861
-0.282579
-0.184463
-0.0861485
-0.00266784
0.0543818
0.0513059
-0.0690526
-0.295264
-0.585748
-0.841238
-1.13817
-1.78834
-3.48328
-0.800178
-0.783577
-0.723589
-0.653607
-0.572864
-0.487585
-0.396415
-0.302298
-0.206175
-0.111195
-0.0327306
0.0159699
-0.00666472
-0.140926
-0.411008
-0.7199
-0.925517
-1.01407
-1.06033
-1.49899
-0.819667
-0.802868
-0.742411
-0.672704
-0.591828
-0.506801
-0.416341
-0.323532
-0.229706
-0.138643
-0.064871
-0.026314
-0.0676277
-0.192708
-0.475879
-0.759065
-0.927921
-0.968609
-0.927765
-0.978844
-0.840185
-0.823012
-0.762381
-0.693142
-0.611971
-0.527318
-0.437739
-0.346311
-0.255005
-0.168325
-0.098402
-0.0675747
-0.130055
-0.246626
-0.520773
-0.760469
-0.897794
-0.938357
-0.969063
-0.987484
-0.861389
-0.843995
-0.783619
-0.714782
-0.633161
-0.549094
-0.460512
-0.370585
-0.281979
-0.200031
-0.134646
-0.109196
-0.182194
-0.306929
-0.558614
-0.762691
-0.881014
-0.872085
-0.898741
-0.896306
-0.883084
-0.865578
-0.806104
-0.737336
-0.655218
-0.571943
-0.484492
-0.396026
-0.310055
-0.232892
-0.171252
-0.151569
-0.235763
-0.382373
-0.599226
-0.766172
-0.869608
-0.871559
-0.876386
-0.881371
-0.904945
-0.887521
-0.829233
-0.76036
-0.677924
-0.595659
-0.509297
-0.422325
-0.339057
-0.266636
-0.209336
-0.191435
-0.290067
-0.464172
-0.640689
-0.756331
-0.831555
-0.893468
-0.855213
-0.865751
-0.926766
-0.90961
-0.852187
-0.783336
-0.701011
-0.61987
-0.534407
-0.449156
-0.368349
-0.300065
-0.249121
-0.233086
-0.343318
-0.553057
-0.69565
-0.766075
-0.756372
-0.847124
-0.825432
-0.83774
-0.947834
-0.931209
-0.874442
-0.805695
-0.724053
-0.644082
-0.559147
-0.475652
-0.396826
-0.331412
-0.289401
-0.268416
-0.408108
-0.654329
-0.76376
-0.754759
-0.697977
-0.763391
-0.80222
-0.812095
-0.967636
-0.951655
-0.895426
-0.826669
-0.746871
-0.667404
-0.582725
-0.501712
-0.424615
-0.35926
-0.327468
-0.291333
-0.467081
-0.764169
-0.904275
-0.893666
-0.876069
-0.87943
-0.912381
-0.911667
-0.98503
-0.969979
-0.914711
-0.846342
-0.768479
-0.68851
-0.604702
-0.526623
-0.450765
-0.383377
-0.3675
-0.312923
-0.519217
-0.889848
-1.24417
-1.43656
-1.46355
-1.39884
-1.3577
-1.32244
-0.999153
-0.985151
-0.931445
-0.863694
-0.786783
-0.706971
-0.625157
-0.547059
-0.473101
-0.401941
-0.401892
-0.342342
-0.561931
-0.979959
-1.55465
-2.15505
-2.32738
-2.24481
-2.07245
-1.95819
-1.00863
-0.995934
-0.944203
-0.877031
-0.800724
-0.72171
-0.641774
-0.563326
-0.491039
-0.419126
-0.408771
-0.35627
-0.543495
-0.913956
-1.42616
-1.91839
-2.01534
-1.9152
-1.77662
-1.70685
-1.01199
-1.00051
-0.951174
-0.884846
-0.809334
-0.731579
-0.653036
-0.575447
-0.500352
-0.427235
-0.397243
-0.34705
-0.423338
-0.50068
-0.567985
-0.621886
-0.583841
-0.509163
-0.429236
-0.336948
-1.00729
-0.99731
-0.950887
-0.885754
-0.81163
-0.735821
-0.658487
-0.5826
-0.503324
-0.419476
-0.358726
-0.28151
-0.179292
0.0437014
0.305901
0.530554
0.701332
0.824132
0.889808
0.911327
-0.992594
-0.984113
-0.94178
-0.878725
-0.806428
-0.733157
-0.658265
-0.584082
-0.503107
-0.406647
-0.296984
-0.176399
0.0717998
0.436068
0.837644
1.18024
1.44034
1.58886
1.64054
1.65477
-0.966199
-0.959374
-0.921475
-0.861604
-0.792466
-0.722682
-0.652402
-0.581312
-0.503306
-0.404947
-0.260815
-0.0926197
0.198713
0.563674
0.985036
1.32849
1.59927
1.74695
1.79958
1.81012
-0.927471
-0.922627
-0.88928
-0.833885
-0.769437
-0.704593
-0.641365
-0.577193
-0.510285
-0.428718
-0.271736
-0.073025
0.177703
0.50894
0.874951
1.18927
1.44268
1.58185
1.63571
1.65082
-0.875033
-0.870897
-0.843567
-0.795226
-0.737538
-0.680425
-0.628611
-0.580356
-0.539888
-0.498788
-0.398766
-0.243614
0.00387342
0.323858
0.659088
0.947682
1.1604
1.28334
1.33209
1.35005
-0.811656
-0.807726
-0.785934
-0.74594
-0.698181
-0.653468
-0.618811
-0.59865
-0.611327
-0.658472
-0.701806
-0.571073
-0.289974
0.0333838
0.369508
0.624928
0.801947
0.897986
0.941092
0.957927
-0.733146
-0.731672
-0.715942
-0.687097
-0.652178
-0.622024
-0.605083
-0.613014
-0.678233
-0.829174
-1.03341
-0.911764
-0.585001
-0.256494
0.134449
0.348511
0.485908
0.544758
0.572902
0.581118
-0.636364
-0.638167
-0.630409
-0.613562
-0.593085
-0.576084
-0.572098
-0.595935
-0.687734
-0.880472
-1.16607
-1.06715
-0.722004
-0.371744
-0.0703952
0.117221
0.228999
0.274761
0.297146
0.304064
-0.53821
-0.538535
-0.534585
-0.527025
-0.516869
-0.509867
-0.512201
-0.539662
-0.627424
-0.798152
-1.05485
-0.943458
-0.623354
-0.339236
-0.138766
-0.0132566
0.0585884
0.0896233
0.106258
0.111843
-0.433231
-0.434391
-0.432697
-0.4293
-0.425522
-0.423229
-0.427595
-0.44966
-0.51289
-0.637531
-0.791034
-0.647939
-0.401257
-0.239157
-0.11549
-0.0437716
-0.0145711
0.000530494
0.0095491
0.012219
-0.329031
-0.330438
-0.330197
-0.328706
-0.327223
-0.32625
-0.32841
-0.339712
-0.37372
-0.442221
-0.511412
-0.359792
-0.218845
-0.142974
-0.0709658
-0.0471701
-0.0358667
-0.0297114
-0.026345
-0.0257127
-0.232059
-0.233183
-0.233646
-0.232947
-0.231715
-0.230349
-0.229039
-0.230042
-0.238449
-0.259617
-0.260876
-0.163797
-0.0990635
-0.0593976
-0.0367553
-0.0321816
-0.0289365
-0.0279492
-0.0278228
-0.0283905
-0.149627
-0.150477
-0.151441
-0.151165
-0.149599
-0.146934
-0.142278
-0.135895
-0.12673
-0.111961
-0.0767514
-0.0331828
-0.0133409
-0.000693778
-0.00198876
-0.00545084
-0.00756886
-0.00988638
-0.0115788
-0.0128481
-0.0849192
-0.0855105
-0.0866812
-0.0870284
-0.0857994
-0.0826503
-0.0762807
-0.0664115
-0.050439
-0.0220997
0.0155079
0.0413066
0.0411012
0.0371544
0.0272073
0.0201646
0.015257
0.011412
0.00903689
0.00762403
-0.0373295
-0.0377345
-0.0387996
-0.0396639
-0.0391721
-0.0366854
-0.0307241
-0.0205677
-0.00428481
0.0221364
0.0545012
0.0691338
0.063835
0.055817
0.0451167
0.0375901
0.0321524
0.0282206
0.0259378
0.0247259
-0.00449979
-0.00476749
-0.00561347
-0.00659635
-0.00666058
-0.0052709
-0.000926446
0.00755222
0.0214319
0.0428253
0.066205
0.0764106
0.0703292
0.0626138
0.0536677
0.0471799
0.0424118
0.0390951
0.0372222
0.0362945
0.0166269
0.0164464
0.0158318
0.0150293
0.0148403
0.0155104
0.0182109
0.0241793
0.0344373
0.0503031
0.0662286
0.073851
0.0688784
0.0628786
0.05625
0.0512952
0.047637
0.0451042
0.0436902
0.0430127
0.0296327
0.0294866
0.0290742
0.0285114
0.0284474
0.0289145
0.030641
0.0344241
0.0411363
0.0518497
0.0623167
0.0673751
0.064029
0.0598954
0.0553819
0.0518619
0.0492176
0.0473403
0.0463146
0.0458316
0.0377218
0.0375871
0.0372796
0.0367984
0.0367002
0.0370265
0.0382995
0.0407412
0.0449576
0.0515954
0.0579283
0.0608438
0.0586251
0.0558543
0.0528368
0.0503101
0.0483198
0.0468556
0.0460925
0.0457505
0.0425154
0.0423886
0.0420678
0.0414718
0.0410785
0.0410346
0.0418148
0.0434177
0.0462082
0.0502797
0.0538876
0.0553181
0.0537273
0.0517476
0.0495953
0.0476404
0.0460188
0.044802
0.0441965
0.0439488
0.0443842
0.0442646
0.0438944
0.0431641
0.042479
0.0420192
0.0421709
0.0429923
0.0448122
0.0474481
0.049633
0.0503041
0.0491237
0.0475976
0.0459435
0.0443738
0.0430391
0.042031
0.0415423
0.041357
0.0437219
0.0436198
0.0432529
0.0425251
0.0417677
0.0411248
0.0408129
0.0409614
0.0419142
0.0435353
0.0449385
0.0452788
0.0444143
0.043227
0.0419498
0.0407316
0.039689
0.0388957
0.0385168
0.0383783
0.0414351
0.0413582
0.0410516
0.0404313
0.0397628
0.0391537
0.0386782
0.038464
0.0387517
0.0395188
0.0402618
0.0403359
0.0396597
0.0387452
0.0377808
0.0368708
0.0360883
0.035487
0.0352056
0.0351046
0.0382862
0.0382352
0.037995
0.0374861
0.0369264
0.0363963
0.035914
0.035594
0.035514
0.0356988
0.0358893
0.0357004
0.0351031
0.0343812
0.0336416
0.0329534
0.0323605
0.031902
0.0316928
0.0316183
0.0345952
0.0345638
0.0343665
0.0339292
0.0334423
0.0329551
0.0324808
0.0321324
0.0318913
0.0318001
0.031681
0.0313433
0.0307963
0.0301989
0.0296
0.0290526
0.0285835
0.0282196
0.0280579
0.0280021
0.0304585
0.0304375
0.0302739
0.0299012
0.0294846
0.0290354
0.0285769
0.0282114
0.0278927
0.0276952
0.0274599
0.0270921
0.0266064
0.0261059
0.025613
0.0251725
0.0248002
0.0245123
0.0243867
0.0243442
0.0260184
0.0260036
0.0258724
0.0255672
0.0252297
0.0248414
0.0244296
0.0240728
0.0237178
0.0234725
0.0232019
0.0228599
0.0224469
0.02204
0.0216463
0.0213005
0.0210114
0.0207876
0.0206904
0.0206573
0.021409
0.0213996
0.0213029
0.0210685
0.0208099
0.0204964
0.0201561
0.019845
0.0195018
0.0192391
0.0189564
0.0186505
0.0183103
0.0179884
0.017681
0.0174144
0.0171937
0.0170244
0.0169523
0.0169284
0.0167252
0.016718
0.0166485
0.0164751
0.0162842
0.0160459
0.0157839
0.015539
0.0152469
0.0150104
0.0147471
0.014485
0.0142111
0.0139641
0.0137321
0.0135323
0.0133675
0.0132412
0.0131871
0.0131691
0.0120046
0.0120014
0.0119535
0.0118289
0.011691
0.0115189
0.0113274
0.0111492
0.0109267
0.0107467
0.0105399
0.0103435
0.0101412
0.00996335
0.00979691
0.00965313
0.00953448
0.009444
0.00940594
0.00939447
0.00724275
0.00724115
0.00721225
0.00713203
0.0070471
0.00693931
0.00681848
0.00671275
0.00656334
0.00645476
0.00632143
0.00620232
0.00607822
0.00597278
0.00587078
0.00578177
0.00570733
0.00564974
0.00562638
0.00561886
0.00245068
0.00245062
0.00243887
0.00240162
0.00236783
0.0023274
0.00227748
0.00224701
0.00218147
0.00215439
0.00210565
0.00206989
0.00202245
0.00198923
0.00195161
0.00191903
0.00188829
0.00186053
0.00185072
0.00184718
-1.63495
-0.711873
-0.435476
-0.135373
0.069558
0.248026
0.399847
0.554234
0.71811
0.796083
-0.584109
-0.139078
-0.102259
0.100372
0.244898
0.374296
0.48766
0.586976
0.622317
0.576245
-0.158208
0.0773238
0.129823
0.273291
0.374633
0.466337
0.542437
0.5991
0.60596
0.616771
0.100479
0.261076
0.29977
0.413968
0.478207
0.543899
0.594301
0.629748
0.640932
0.663509
0.299457
0.410635
0.439898
0.520928
0.566065
0.613292
0.648616
0.674528
0.68571
0.716263
0.451894
0.528852
0.559365
0.609693
0.647447
0.680707
0.70706
0.728483
0.743634
0.771202
0.579007
0.633771
0.660597
0.691868
0.721675
0.747015
0.768225
0.788037
0.803552
0.829668
0.68756
0.727237
0.749349
0.771397
0.793704
0.814157
0.832265
0.850913
0.866151
0.889673
0.785001
0.814656
0.832348
0.848389
0.865448
0.88218
0.89818
0.915529
0.929121
0.951376
0.875009
0.896247
0.911717
0.925404
0.939474
0.953649
0.967253
0.981846
0.993322
1.01302
0.961994
0.978033
0.992191
1.00435
1.01653
1.02823
1.03934
1.05104
1.05875
1.0756
1.0478
1.06082
1.07469
1.08643
1.09707
1.10687
1.1157
1.12404
1.12765
1.1389
1.13733
1.14828
1.16182
1.17107
1.17857
1.18579
1.19305
1.19967
1.20065
1.20804
1.23595
1.24072
1.24877
1.25327
1.25653
1.26097
1.26693
1.27469
1.27856
1.28845
1.34936
1.33564
1.32818
1.32247
1.31974
1.32112
1.32768
1.34016
1.35485
1.38449
1.47
1.41441
1.38349
1.36643
1.35832
1.35836
1.367
1.38639
1.41844
1.4876
)
;

boundaryField
{
    wall-4
    {
        type            zeroGradient;
    }
    pressure-outlet-7
    {
        type            fixedValue;
        value           uniform 0;
    }
    velocity-inlet-6
    {
        type            zeroGradient;
    }
    velocity-inlet-5
    {
        type            zeroGradient;
    }
    frontAndBackPlanes
    {
        type            empty;
    }
}


// ************************************************************************* //
