/*--------------------------------*- C++ -*----------------------------------*\
  =========                 |
  \\      /  F ield         | OpenFOAM: The Open Source CFD Toolbox
   \\    /   O peration     | Website:  https://openfoam.org
    \\  /    A nd           | Version:  9
     \\/     M anipulation  |
\*---------------------------------------------------------------------------*/
FoamFile
{
    format      ascii;
    class       volVectorField;
    location    "16";
    object      U;
}
// * * * * * * * * * * * * * * * * * * * * * * * * * * * * * * * * * * * * * //

dimensions      [0 1 -1 0 0 0 0];

internalField   nonuniform List<vector> 
2200
(
(0.878472 -0.0303148 0)
(1.00564 -0.0512804 0)
(1.0029 -0.0352766 0)
(0.999937 -0.0242365 0)
(0.999456 -0.0163541 0)
(0.99976 -0.0104602 0)
(1.00011 -0.00655371 0)
(1.00032 -0.00389763 0)
(1.00031 -0.00205025 0)
(1.00014 -0.000646516 0)
(1.00009 0.000771832 0)
(1.00033 0.0022678 0)
(1.00035 0.00409801 0)
(1.00014 0.00673702 0)
(0.999764 0.0105745 0)
(0.999453 0.0164434 0)
(0.999949 0.0243005 0)
(1.00294 0.0353317 0)
(1.00564 0.0512945 0)
(0.878466 0.0303345 0)
(0.712882 -0.0327401 0)
(0.996813 -0.0627024 0)
(1.03415 -0.0559252 0)
(1.02565 -0.0461578 0)
(1.01643 -0.0357323 0)
(1.00968 -0.0257705 0)
(1.00554 -0.0178251 0)
(1.00324 -0.0115698 0)
(1.00205 -0.00631998 0)
(1.00193 -0.00185268 0)
(1.00184 0.00254155 0)
(1.00202 0.00688644 0)
(1.00316 0.012033 0)
(1.00538 0.0181499 0)
(1.00954 0.0260926 0)
(1.01632 0.0360021 0)
(1.02553 0.0463811 0)
(1.03398 0.0560707 0)
(0.996692 0.0628479 0)
(0.712734 0.0327666 0)
(0.536106 -0.0238807 0)
(0.970504 -0.0566651 0)
(1.05593 -0.0541922 0)
(1.05215 -0.0485845 0)
(1.03669 -0.0405303 0)
(1.0248 -0.0323652 0)
(1.01604 -0.024027 0)
(1.01039 -0.0159398 0)
(1.00725 -0.00880703 0)
(1.00588 -0.00245373 0)
(1.0059 0.00344539 0)
(1.00715 0.00972135 0)
(1.01019 0.0167152 0)
(1.01589 0.0247993 0)
(1.02466 0.032996 0)
(1.03654 0.0410717 0)
(1.05197 0.0490239 0)
(1.05572 0.0545689 0)
(0.970053 0.0568786 0)
(0.53546 0.023948 0)
(0.394428 -0.0131229 0)
(0.913044 -0.0453989 0)
(1.05823 -0.0459001 0)
(1.06874 -0.0425684 0)
(1.05407 -0.0367357 0)
(1.03909 -0.0306352 0)
(1.02756 -0.0241387 0)
(1.0192 -0.0169991 0)
(1.01399 -0.00974449 0)
(1.01146 -0.00261258 0)
(1.01131 0.00410512 0)
(1.01366 0.0112008 0)
(1.01887 0.0183337 0)
(1.02716 0.0252333 0)
(1.03861 0.031601 0)
(1.05356 0.0375014 0)
(1.06814 0.0431621 0)
(1.05744 0.0463316 0)
(0.911945 0.0456517 0)
(0.393167 0.0131912 0)
(0.314122 -0.00392023 0)
(0.852107 -0.030834 0)
(1.05124 -0.0372847 0)
(1.07951 -0.0354189 0)
(1.06749 -0.0304624 0)
(1.05138 -0.0254307 0)
(1.03791 -0.0206845 0)
(1.0274 -0.0154402 0)
(1.02026 -0.00944726 0)
(1.01645 -0.00255793 0)
(1.01632 0.00456623 0)
(1.01992 0.0112746 0)
(1.0268 0.0170347 0)
(1.03716 0.0220968 0)
(1.05054 0.0265384 0)
(1.06658 0.0314056 0)
(1.0785 0.036189 0)
(1.04999 0.0378699 0)
(0.85026 0.0311432 0)
(0.312277 0.00398235 0)
(0.273559 0.000428019 0)
(0.797349 -0.0185215 0)
(1.03733 -0.0289979 0)
(1.08484 -0.0292183 0)
(1.07702 -0.0253789 0)
(1.06037 -0.0206712 0)
(1.04718 -0.0164139 0)
(1.03669 -0.0121484 0)
(1.02864 -0.00740903 0)
(1.02391 -0.00183457 0)
(1.02374 0.00450952 0)
(1.02812 0.0097576 0)
(1.03584 0.0141794 0)
(1.04613 0.0181339 0)
(1.05922 0.0222227 0)
(1.07587 0.0266838 0)
(1.08346 0.030314 0)
(1.03531 0.0298232 0)
(0.794334 0.0188987 0)
(0.271006 -0.000348753 0)
(0.25317 0.00147801 0)
(0.751146 -0.00993262 0)
(1.01905 -0.0213288 0)
(1.08531 -0.0228976 0)
(1.08252 -0.0206829 0)
(1.06644 -0.0169296 0)
(1.05297 -0.0133443 0)
(1.04249 -0.00963795 0)
(1.03465 -0.00543422 0)
(1.03025 -0.0009193 0)
(1.02989 0.00439741 0)
(1.03372 0.00869039 0)
(1.04118 0.0125786 0)
(1.05146 0.0159482 0)
(1.06477 0.0190201 0)
(1.08064 0.0223928 0)
(1.08308 0.0242384 0)
(1.01585 0.0222456 0)
(0.746594 0.0103383 0)
(0.249785 -0.00136057 0)
(0.245439 0.00130702 0)
(0.718672 -0.00370508 0)
(1.00089 -0.0129141 0)
(1.08183 -0.0150318 0)
(1.08372 -0.0147122 0)
(1.06862 -0.0128682 0)
(1.05472 -0.0108559 0)
(1.04407 -0.00797431 0)
(1.03657 -0.00425181 0)
(1.03265 -0.000112162 0)
(1.03216 0.00446694 0)
(1.03533 0.00835758 0)
(1.04226 0.0116182 0)
(1.05239 0.0137357 0)
(1.06606 0.015262 0)
(1.0809 0.0166635 0)
(1.07845 0.0165141 0)
(0.996282 0.0138765 0)
(0.712852 0.0041375 0)
(0.241084 -0.00119421 0)
(0.244979 0.00095512 0)
(0.701949 -9.43788e-05 0)
(0.986811 -0.00566898 0)
(1.07638 -0.00784654 0)
(1.08223 -0.00882776 0)
(1.0687 -0.0087693 0)
(1.05515 -0.00823209 0)
(1.04518 -0.00622065 0)
(1.03806 -0.00320354 0)
(1.03417 0.000685952 0)
(1.0336 0.00474387 0)
(1.03655 0.00819452 0)
(1.04305 0.0105836 0)
(1.05237 0.0118996 0)
(1.06562 0.0118538 0)
(1.07853 0.0112437 0)
(1.07191 0.00971133 0)
(0.980744 0.00693033 0)
(0.694348 0.000692499 0)
(0.239551 -0.00077477 0)
(0.247223 0.000511579 0)
(0.696103 0.000749547 0)
(0.978196 -0.0021184 0)
(1.07202 -0.00422598 0)
(1.08096 -0.00558328 0)
(1.06985 -0.00627931 0)
(1.05777 -0.00601271 0)
(1.0484 -0.00456888 0)
(1.04147 -0.00211636 0)
(1.03739 0.00148162 0)
(1.0365 0.00512514 0)
(1.03909 0.0082388 0)
(1.04503 0.010057 0)
(1.05399 0.0108815 0)
(1.06515 0.0102152 0)
(1.07583 0.00874067 0)
(1.06605 0.00665353 0)
(0.970448 0.00373338 0)
(0.686404 -1.3284e-05 0)
(0.240287 -0.000272968 0)
(0.249084 6.78645e-05 0)
(0.694528 0.000557085 0)
(0.973857 -0.000979769 0)
(1.06864 -0.00305918 0)
(1.07944 -0.00456062 0)
(1.07027 -0.00522098 0)
(1.06043 -0.00496617 0)
(1.05247 -0.00331169 0)
(1.04644 -0.000854879 0)
(1.04252 0.00268129 0)
(1.04126 0.00607602 0)
(1.0431 0.00895314 0)
(1.04765 0.0104528 0)
(1.05409 0.0110009 0)
(1.06407 0.0101865 0)
(1.07257 0.00853645 0)
(1.06053 0.00614875 0)
(0.963045 0.00305229 0)
(0.682112 0.000451668 0)
(0.24021 5.84909e-05 0)
(0.250114 5.8952e-05 0)
(0.694491 0.000627643 0)
(0.969724 -0.000189579 0)
(1.06455 -0.0022094 0)
(1.07676 -0.00382939 0)
(1.06963 -0.00466289 0)
(1.06113 -0.00419792 0)
(1.05424 -0.00240681 0)
(1.04892 0.000298203 0)
(1.04527 0.00395065 0)
(1.04388 0.00735261 0)
(1.045 0.0101598 0)
(1.04823 0.0113631 0)
(1.05369 0.0114127 0)
(1.06174 0.0106196 0)
(1.06771 0.00853021 0)
(1.0539 0.0057788 0)
(0.956129 0.00264371 0)
(0.6781 0.000651505 0)
(0.238995 0.000137637 0)
(0.251686 0.00029502 0)
(0.695139 0.000897186 0)
(0.966379 0.000992049 0)
(1.06015 -0.000504553 0)
(1.07348 -0.00195461 0)
(1.06848 -0.00293607 0)
(1.06133 -0.00239999 0)
(1.05526 -0.0007802 0)
(1.05025 0.00183406 0)
(1.04649 0.00526873 0)
(1.04478 0.00851225 0)
(1.04539 0.011 0)
(1.04798 0.0119025 0)
(1.0525 0.0118919 0)
(1.05807 0.0106314 0)
(1.06181 0.00812904 0)
(1.04647 0.00512535 0)
(0.949397 0.0021287 0)
(0.6744 0.000581244 0)
(0.237459 0.000138102 0)
(0.253949 0.000328845 0)
(0.697048 0.00113816 0)
(0.965834 0.0019907 0)
(1.05711 0.000920211 0)
(1.0716 1.83713e-05 0)
(1.06841 -0.000622056 0)
(1.06296 4.80822e-05 0)
(1.05776 0.00161533 0)
(1.05304 0.00413292 0)
(1.04901 0.00722693 0)
(1.04667 0.0101047 0)
(1.0465 0.0119377 0)
(1.04803 0.0124813 0)
(1.05117 0.0118314 0)
(1.05479 0.0101442 0)
(1.0564 0.00759089 0)
(1.03974 0.00468946 0)
(0.943734 0.00203839 0)
(0.671358 0.000703082 0)
(0.236115 0.000180595 0)
(0.256978 0.000324552 0)
(0.701243 0.00145867 0)
(0.966522 0.00246218 0)
(1.05597 0.00247181 0)
(1.0707 0.00212758 0)
(1.06898 0.00207221 0)
(1.06499 0.00289872 0)
(1.06068 0.00448249 0)
(1.05627 0.00685734 0)
(1.05199 0.00961058 0)
(1.04881 0.0120281 0)
(1.04755 0.0131547 0)
(1.04777 0.0131804 0)
(1.04949 0.0119869 0)
(1.05141 0.0101578 0)
(1.05137 0.00767253 0)
(1.03374 0.0050159 0)
(0.938439 0.00258635 0)
(0.667683 0.00110988 0)
(0.234075 0.000287841 0)
(0.259951 0.000358928 0)
(0.705019 0.00161612 0)
(0.968329 0.00290974 0)
(1.05661 0.00340486 0)
(1.07123 0.00372396 0)
(1.07019 0.00443437 0)
(1.06693 0.00585055 0)
(1.06307 0.00780139 0)
(1.05875 0.0102684 0)
(1.05414 0.0128063 0)
(1.0502 0.0146633 0)
(1.04786 0.0150638 0)
(1.04701 0.0142803 0)
(1.04728 0.0126773 0)
(1.04793 0.0104245 0)
(1.04665 0.00783514 0)
(1.02834 0.00528822 0)
(0.933447 0.00303754 0)
(0.663553 0.00141756 0)
(0.231402 0.000347427 0)
(0.264333 0.000520393 0)
(0.711669 0.00216669 0)
(0.972319 0.00413474 0)
(1.05827 0.00533585 0)
(1.07287 0.00639611 0)
(1.0723 0.00765109 0)
(1.06937 0.00935083 0)
(1.06556 0.0115367 0)
(1.06092 0.0140439 0)
(1.05558 0.0163918 0)
(1.05053 0.017688 0)
(1.04687 0.0174107 0)
(1.04492 0.0158672 0)
(1.04391 0.0138692 0)
(1.04351 0.0113547 0)
(1.0414 0.00875495 0)
(1.02263 0.0062304 0)
(0.927668 0.00385889 0)
(0.657899 0.00180216 0)
(0.227803 0.000431383 0)
(0.268978 0.000668083 0)
(0.717749 0.00260186 0)
(0.977067 0.0050319 0)
(1.06181 0.00683429 0)
(1.07594 0.00880217 0)
(1.07534 0.0109273 0)
(1.07235 0.0134889 0)
(1.06829 0.0162157 0)
(1.06305 0.0189516 0)
(1.05671 0.0211522 0)
(1.05036 0.0218329 0)
(1.04542 0.0207482 0)
(1.04236 0.0184651 0)
(1.04047 0.015695 0)
(1.03925 0.0126285 0)
(1.0364 0.00964834 0)
(1.01694 0.00684642 0)
(0.921364 0.00436179 0)
(0.651588 0.00210728 0)
(0.223708 0.000503788 0)
(0.276415 0.000891487 0)
(0.728699 0.00364186 0)
(0.985008 0.00699893 0)
(1.06716 0.00973346 0)
(1.08063 0.0121091 0)
(1.07987 0.0149384 0)
(1.07657 0.0180243 0)
(1.0719 0.0213694 0)
(1.06572 0.0245465 0)
(1.05798 0.0267736 0)
(1.04996 0.0269596 0)
(1.04348 0.0250362 0)
(1.03909 0.0219683 0)
(1.03609 0.0184872 0)
(1.03397 0.0150301 0)
(1.03047 0.0117616 0)
(1.01052 0.00874074 0)
(0.914237 0.00576812 0)
(0.643651 0.00273305 0)
(0.218423 0.00063412 0)
(0.284325 0.00118225 0)
(0.739478 0.00432281 0)
(0.993721 0.00840653 0)
(1.07426 0.0118644 0)
(1.08697 0.0156304 0)
(1.0857 0.0196227 0)
(1.08167 0.0238418 0)
(1.07595 0.028062 0)
(1.0683 0.031734 0)
(1.05867 0.0340011 0)
(1.04859 0.0336194 0)
(1.04038 0.0307394 0)
(1.03466 0.0267412 0)
(1.03072 0.0223406 0)
(1.02792 0.0180228 0)
(1.02379 0.0139835 0)
(1.00274 0.0101734 0)
(0.904635 0.00668885 0)
(0.633435 0.00323574 0)
(0.212053 0.000770844 0)
(0.296882 0.00155854 0)
(0.756762 0.00626517 0)
(1.00671 0.0117057 0)
(1.08378 0.0164232 0)
(1.09523 0.0206052 0)
(1.09317 0.0256162 0)
(1.08807 0.030852 0)
(1.08091 0.0359812 0)
(1.07137 0.0403514 0)
(1.05945 0.042681 0)
(1.04697 0.0416983 0)
(1.0368 0.0377698 0)
(1.02956 0.0325938 0)
(1.02449 0.0271213 0)
(1.02086 0.0219368 0)
(1.01605 0.0172357 0)
(0.994276 0.0130244 0)
(0.89491 0.00874738 0)
(0.622186 0.00416397 0)
(0.204265 0.000932324 0)
(0.310993 0.00216987 0)
(0.776322 0.00732126 0)
(1.02215 0.0142933 0)
(1.09616 0.0202416 0)
(1.10633 0.026568 0)
(1.10284 0.0333814 0)
(1.0961 0.0400432 0)
(1.0867 0.0464923 0)
(1.07455 0.0515845 0)
(1.05961 0.0539053 0)
(1.04415 0.0521045 0)
(1.03157 0.0469071 0)
(1.02254 0.0404194 0)
(1.01617 0.0336789 0)
(1.0116 0.0272882 0)
(1.00594 0.0212786 0)
(0.982334 0.0155411 0)
(0.879585 0.010231 0)
(0.605537 0.00485505 0)
(0.194395 0.00112737 0)
(0.332539 0.00310589 0)
(0.803356 0.0115252 0)
(1.04301 0.0202686 0)
(1.11205 0.0281965 0)
(1.12005 0.0352819 0)
(1.11478 0.043824 0)
(1.10562 0.0520818 0)
(1.09341 0.059688 0)
(1.07795 0.0652389 0)
(1.05946 0.0672361 0)
(1.04066 0.0642727 0)
(1.0255 0.0574635 0)
(1.01463 0.0492706 0)
(1.00696 0.0409375 0)
(1.00137 0.0330578 0)
(0.994711 0.0261005 0)
(0.969903 0.0198066 0)
(0.865511 0.0133206 0)
(0.589556 0.00631624 0)
(0.18326 0.00133882 0)
(0.361893 0.00429131 0)
(0.841045 0.0137605 0)
(1.06982 0.026533 0)
(1.13211 0.0364485 0)
(1.13806 0.0472217 0)
(1.12941 0.0582158 0)
(1.11687 0.0682223 0)
(1.10084 0.0768976 0)
(1.08129 0.0827602 0)
(1.05863 0.084016 0)
(1.03595 0.0794977 0)
(1.01772 0.0708371 0)
(1.00455 0.0608692 0)
(0.995109 0.0509234 0)
(0.988201 0.0415815 0)
(0.980132 0.0326156 0)
(0.95217 0.0240699 0)
(0.841233 0.0158165 0)
(0.562509 0.00719065 0)
(0.168004 0.00151515 0)
(0.397836 0.00846513 0)
(0.885229 0.023749 0)
(1.10461 0.0386652 0)
(1.15848 0.0518842 0)
(1.15969 0.0655899 0)
(1.14658 0.0782674 0)
(1.1294 0.0897635 0)
(1.10845 0.0989754 0)
(1.08403 0.104257 0)
(1.05648 0.104039 0)
(1.02953 0.0973475 0)
(1.00809 0.0863042 0)
(0.992625 0.074105 0)
(0.981431 0.0619853 0)
(0.972957 0.0505648 0)
(0.96325 0.0402957 0)
(0.932979 0.0304171 0)
(0.820602 0.0204767 0)
(0.540622 0.0096887 0)
(0.154254 0.00162302 0)
(0.482997 0.012024 0)
(0.959579 0.0333581 0)
(1.15065 0.0580155 0)
(1.19057 0.074775 0)
(1.18541 0.092205 5.14061e-35)
(1.16559 0.106613 -3.99386e-35)
(1.14237 0.118651 0)
(1.11569 0.12708 0)
(1.0857 0.130722 0)
(1.05293 0.128136 0)
(1.02164 0.118468 0)
(0.996849 0.1046 0)
(0.978764 0.0900939 0)
(0.965446 0.0762438 0)
(0.955127 0.0632811 0)
(0.942955 0.0509443 0)
(0.907567 0.0390037 0)
(0.78267 0.0261062 0)
(0.491826 0.0108865 0)
(0.127985 0.00150765 0)
(0.546397 0.0273762 -9.71639e-21)
(1.04403 0.0582096 6.65615e-21)
(1.20183 0.090237 0)
(1.22643 0.110807 -1.45604e-22)
(1.21167 0.131024 1.17978e-22)
(1.18438 0.144911 4.21365e-35)
(1.15466 0.155533 0)
(1.12161 0.162271 4.33261e-21)
(1.08535 0.163771 -1.57095e-20)
(1.04663 0.158279 3.50768e-21)
(1.00997 0.145519 0)
(0.980878 0.128965 -1.18277e-20)
(0.959328 0.112158 -1.48818e-20)
(0.942968 0.0959769 2.61922e-20)
(0.92966 0.0809438 -2.11025e-20)
(0.913549 0.0667406 0)
(0.870013 0.0515433 -8.17688e-21)
(0.732674 0.0352583 0)
(0.447671 0.0188836 -4.42159e-20)
(0.110798 0.00293835 5.25117e-20)
(0.569373 0.0541395 6.21502e-25)
(1.09067 0.103727 -5.18838e-20)
(1.24385 0.14258 1.29237e-20)
(1.2591 0.16054 2.08536e-20)
(1.2352 0.179184 1.05294e-21)
(1.20116 0.190596 -9.82737e-22)
(1.16466 0.199608 0)
(1.12486 0.204554 0)
(1.08221 0.203816 2.44502e-20)
(1.03724 0.195763 0)
(0.994794 0.180475 4.02925e-20)
(0.960671 0.161661 1.2689e-20)
(0.934534 0.143262 3.8826e-22)
(0.913956 0.126265 -2.94424e-20)
(0.896614 0.110499 0)
(0.876746 0.0962922 0)
(0.832234 0.0812759 -1.3893e-19)
(0.703804 0.0629527 3.49852e-19)
(0.436496 0.034917 -2.07954e-19)
(0.112989 0.0109208 -2.48244e-19)
(0.570756 0.0841869 8.61684e-20)
(1.11779 0.163037 -2.52959e-20)
(1.27485 0.207325 -6.88065e-21)
(1.28536 0.22122 -3.9534e-20)
(1.25446 0.235455 1.35903e-20)
(1.21421 0.242759 8.09495e-21)
(1.17124 0.248875 1.42141e-21)
(1.12527 0.250694 0)
(1.07675 0.246763 -5.02499e-20)
(1.02562 0.235611 5.7814e-20)
(0.977235 0.217471 -1.10239e-19)
(0.938027 0.19705 5.40037e-20)
(0.908131 0.178241 -4.04631e-20)
(0.88434 0.161462 8.83795e-20)
(0.864073 0.146645 0)
(0.842154 0.132646 -3.49911e-20)
(0.799218 0.11886 0)
(0.68212 0.095878 2.01421e-19)
(0.436753 0.0599119 -4.78196e-19)
(0.126864 0.0186977 3.00418e-19)
(0.556236 0.115198 -3.99642e-19)
(1.12986 0.223732 1.59894e-19)
(1.29364 0.276795 2.57164e-20)
(1.30306 0.28636 0)
(1.26738 0.296339 2.26146e-20)
(1.22226 0.299364 -2.50407e-20)
(1.17406 0.301495 -1.29241e-21)
(1.123 0.299333 0)
(1.06921 0.291746 3.53561e-20)
(1.01276 0.277369 -3.95509e-20)
(0.959971 0.256781 9.67074e-20)
(0.917288 0.23474 0)
(0.883643 0.214852 -8.49934e-20)
(0.856696 0.197847 4.6801e-20)
(0.834901 0.183583 1.27983e-19)
(0.81307 0.170016 -1.12529e-19)
(0.773357 0.155165 1.8741e-19)
(0.667831 0.12991 -4.17303e-19)
(0.441615 0.0849321 2.65358e-19)
(0.136868 0.0279074 -3.33743e-19)
(0.536409 0.139705 2.43971e-19)
(1.12897 0.279719 -1.79699e-19)
(1.30264 0.345024 8.04867e-20)
(1.3128 0.352022 -1.11983e-19)
(1.27355 0.358783 7.65907e-20)
(1.22505 0.357668 -1.34844e-20)
(1.17303 0.355591 3.73917e-21)
(1.11783 0.349301 -1.97746e-20)
(1.05936 0.338008 -3.4684e-20)
(0.998003 0.320166 -8.45947e-20)
(0.940097 0.296217 -2.08488e-19)
(0.893173 0.27209 -7.08345e-20)
(0.858782 0.251784 2.83246e-21)
(0.832404 0.23412 -1.68398e-19)
(0.810474 0.219416 -6.28075e-21)
(0.789565 0.206268 1.6488e-19)
(0.753398 0.190729 -5.13575e-20)
(0.657205 0.163794 -3.02519e-20)
(0.442068 0.109088 0)
(0.141162 0.0363033 7.12123e-19)
(0.516301 0.162233 0)
(1.11992 0.331885 5.50643e-20)
(1.30401 0.409673 3.83644e-20)
(1.31566 0.415942 -1.20881e-20)
(1.27374 0.420678 -9.20301e-20)
(1.22312 0.415697 2.22839e-20)
(1.16833 0.409688 -2.52122e-21)
(1.10986 0.399442 3.6771e-20)
(1.04763 0.384371 -2.10933e-20)
(0.982832 0.362647 3.6578e-20)
(0.923025 0.335625 1.12361e-19)
(0.876343 0.309521 1.57046e-19)
(0.839774 0.286948 -9.83275e-20)
(0.810983 0.268278 1.8241e-19)
(0.788749 0.252561 -1.46723e-19)
(0.768302 0.240504 0)
(0.734734 0.223225 -3.93623e-19)
(0.644627 0.195198 5.29178e-19)
(0.438031 0.130491 4.02108e-20)
(0.140837 0.0434119 -7.50037e-19)
(0.499056 0.183192 -5.89451e-21)
(1.10844 0.381561 -3.74982e-19)
(1.29997 0.471014 -2.88682e-19)
(1.31301 0.476973 2.4194e-19)
(1.26911 0.480309 -5.54727e-20)
(1.21727 0.472022 3.16483e-20)
(1.16057 0.46264 -1.84156e-20)
(1.09966 0.448786 6.91877e-23)
(1.03472 0.430149 -7.14796e-20)
(0.967148 0.404867 1.0636e-21)
(0.90379 0.374541 -1.22095e-19)
(0.852834 0.344835 -1.66891e-19)
(0.816842 0.320893 1.11087e-19)
(0.790157 0.30108 -6.55284e-20)
(0.768022 0.285 1.5972e-19)
(0.747634 0.271743 0)
(0.716472 0.253953 -2.43887e-19)
(0.629791 0.222041 3.6087e-19)
(0.428525 0.149549 6.93027e-19)
(0.137662 0.0486946 -8.11955e-19)
(0.484337 0.202161 -7.10764e-19)
(1.09422 0.428261 3.59135e-19)
(1.29228 0.529507 2.80172e-19)
(1.30657 0.535231 -2.61956e-19)
(1.26125 0.53713 1.11313e-20)
(1.20864 0.525913 8.24545e-20)
(1.15052 0.513712 3.4901e-21)
(1.08767 0.496723 -1.32289e-20)
(1.02041 0.474856 -4.49397e-20)
(0.950039 0.44597 8.03726e-20)
(0.884621 0.411443 1.14128e-19)
(0.834668 0.379929 2.61227e-19)
(0.796554 0.353386 0)
(0.767184 0.331903 5.39814e-21)
(0.745329 0.313262 -4.44908e-19)
(0.726239 0.300225 1.02061e-19)
(0.69711 0.281546 5.23597e-19)
(0.613785 0.245264 -1.53191e-19)
(0.416037 0.164922 3.29442e-19)
(0.132767 0.0530032 -2.70183e-20)
(0.47402 0.220594 6.598e-21)
(1.08065 0.4729 3.31387e-19)
(1.28213 0.585353 2.12011e-19)
(1.29735 0.59072 -4.64342e-19)
(1.25091 0.590903 2.99893e-19)
(1.19783 0.577051 -1.00063e-19)
(1.13856 0.562512 -7.23311e-21)
(1.07423 0.542865 2.33964e-20)
(1.00523 0.518051 7.69651e-20)
(0.932807 0.485623 -1.05606e-19)
(0.865454 0.448619 0)
(0.81217 0.412642 -1.03831e-19)
(0.774004 0.383287 1.19207e-19)
(0.746468 0.360047 1.61932e-19)
(0.724813 0.341798 -9.2842e-20)
(0.704902 0.325301 -2.35381e-19)
(0.675414 0.304626 -7.16964e-20)
(0.594039 0.265409 -1.23875e-21)
(0.402014 0.177428 0)
(0.12669 0.0564908 0)
(0.465102 0.237519 -3.49197e-19)
(1.06663 0.514612 0)
(1.27046 0.637911 2.4235e-19)
(1.28664 0.64364 -1.11177e-19)
(1.23938 0.64204 -3.12865e-19)
(1.18577 0.625539 8.61055e-20)
(1.12537 0.608872 -1.3707e-20)
(1.05966 0.586878 -6.91621e-21)
(0.988982 0.559368 4.51593e-20)
(0.91405 0.524104 -4.5402e-20)
(0.843252 0.482684 6.38464e-20)
(0.788501 0.443651 3.23519e-19)
(0.7495 0.412023 1.32067e-20)
(0.720231 0.385821 -1.64824e-19)
(0.699537 0.364045 3.20385e-19)
(0.68282 0.347858 4.4676e-21)
(0.656912 0.327076 7.67068e-20)
(0.577338 0.283456 -3.74828e-19)
(0.386822 0.18788 3.80688e-19)
(0.119926 0.0587319 -4.53767e-19)
(0.459043 0.2575 3.17926e-23)
(1.05399 0.55455 0)
(1.25783 0.687149 0)
(1.27459 0.693815 1.0428e-19)
(1.22669 0.690573 1.21934e-19)
(1.17269 0.671591 -7.34338e-20)
(1.11127 0.652896 5.37251e-20)
(1.04437 0.628794 0)
(0.972106 0.599008 -7.64869e-20)
(0.894846 0.56119 1.54756e-19)
(0.822646 0.517044 1.96793e-19)
(0.767796 0.475745 -1.22505e-19)
(0.728866 0.440227 -1.54506e-19)
(0.702028 0.412497 3.65914e-19)
(0.68012 0.38958 -1.13304e-19)
(0.660026 0.36918 -1.37902e-19)
(0.630991 0.344596 -8.46707e-20)
(0.552951 0.297189 -4.0703e-19)
(0.370333 0.195697 5.66825e-20)
(0.112113 0.0600646 4.93414e-19)
(0.455433 0.276479 -1.39305e-19)
(1.04208 0.591782 -2.19664e-19)
(1.24461 0.732863 2.38394e-20)
(1.26198 0.740961 2.05108e-22)
(1.21374 0.736602 4.18833e-20)
(1.15937 0.715401 -1.93241e-19)
(1.09701 0.694793 0)
(1.02896 0.668727 8.38167e-21)
(0.955387 0.636914 -6.60916e-21)
(0.876463 0.596683 2.40774e-19)
(0.802262 0.549645 -5.05965e-20)
(0.743033 0.50308 5.54034e-20)
(0.700113 0.464382 0)
(0.668729 0.431799 -2.00046e-19)
(0.650678 0.406114 2.50447e-19)
(0.636679 0.386807 0)
(0.612849 0.360329 -1.86072e-19)
(0.535167 0.310764 5.43577e-19)
(0.352881 0.201474 6.50478e-20)
(0.103764 0.0600506 -6.12191e-19)
(0.453156 0.2936 -3.08773e-19)
(1.03133 0.62721 3.95272e-19)
(1.2311 0.775608 0)
(1.2487 0.784998 2.5884e-19)
(1.2002 0.779795 0)
(1.14571 0.756874 1.82893e-19)
(1.08275 0.734602 0)
(1.01393 0.706798 0)
(0.939138 0.673148 -2.76004e-20)
(0.857911 0.631131 -2.35997e-19)
(0.779847 0.581577 -3.66256e-19)
(0.720261 0.533274 7.09541e-20)
(0.680587 0.491947 2.66969e-19)
(0.654783 0.458106 2.25799e-19)
(0.631675 0.430639 -8.03849e-19)
(0.612007 0.402269 -3.33762e-19)
(0.583287 0.375849 1.93822e-19)
(0.50806 0.318833 0)
(0.334031 0.204733 5.63464e-19)
(0.0945258 0.0589328 -6.65118e-19)
(0.451267 0.309536 3.40554e-19)
(1.02059 0.660133 -4.34049e-19)
(1.21757 0.815283 0)
(1.23538 0.826035 -1.00133e-20)
(1.18672 0.82023 -1.0675e-19)
(1.13221 0.795912 0)
(1.06878 0.772254 -1.74834e-20)
(0.999228 0.742961 1.66986e-20)
(0.923047 0.707763 -2.96883e-20)
(0.839742 0.66412 2.14959e-20)
(0.759892 0.611703 0)
(0.697096 0.559267 2.8161e-19)
(0.650174 0.512473 3.73968e-21)
(0.615913 0.473096 1.22897e-19)
(0.598109 0.438633 1.4842e-19)
(0.585986 0.417843 0)
(0.564561 0.383287 -3.29431e-19)
(0.487947 0.325898 6.45869e-19)
(0.314674 0.205663 -6.89437e-19)
(0.0854084 0.0565647 1.44705e-18)
(0.449549 0.324766 0)
(1.01062 0.691799 0)
(1.2043 0.852484 -2.37782e-19)
(1.22195 0.864294 0)
(1.17306 0.857835 0)
(1.11862 0.832419 2.5924e-19)
(1.0549 0.807684 -2.15515e-20)
(0.984806 0.77718 1.66821e-20)
(0.907497 0.740727 3.39102e-22)
(0.822345 0.695977 0)
(0.73981 0.642504 -5.92346e-20)
(0.672674 0.588949 -2.34033e-19)
(0.626766 0.54077 -2.95949e-19)
(0.599724 0.497193 -1.23662e-19)
(0.57847 0.464279 1.63921e-19)
(0.559998 0.42778 -3.89867e-19)
(0.531902 0.394969 7.14262e-19)
(0.458374 0.329661 8.49693e-21)
(0.294117 0.204278 -6.67602e-19)
(0.0758759 0.0532541 -9.9213e-20)
(0.447805 0.339541 0)
(1.00082 0.721413 -3.37159e-19)
(1.19136 0.887177 2.65611e-19)
(1.20886 0.900118 0)
(1.15977 0.893024 0)
(1.10537 0.866553 -5.71752e-19)
(1.04136 0.840882 0)
(0.970863 0.809414 0)
(0.892544 0.772123 -4.19465e-20)
(0.805635 0.726457 4.52018e-20)
(0.719553 0.671376 -4.63386e-19)
(0.649339 0.614518 0)
(0.597977 0.562121 -3.21059e-19)
(0.558726 0.514296 1.17841e-20)
(0.538871 0.469419 -5.23399e-19)
(0.529326 0.436578 2.11576e-19)
(0.510402 0.394219 4.38911e-21)
(0.437926 0.328699 -7.66966e-19)
(0.274947 0.200303 3.6396e-19)
(0.0687765 0.0495523 1.06147e-19)
(0.446151 0.353702 0)
(0.991855 0.749793 -3.97059e-19)
(1.17892 0.919751 2.82137e-19)
(1.196 0.933596 5.96036e-19)
(1.14668 0.925819 1.22536e-19)
(1.09237 0.898431 -8.61842e-20)
(1.02821 0.871985 5.44634e-20)
(0.95742 0.839769 -1.24182e-19)
(0.878227 0.801805 4.48707e-20)
(0.789366 0.755801 2.61645e-19)
(0.70051 0.700616 3.84236e-19)
(0.627056 0.643007 7.50326e-20)
(0.572205 0.586584 4.67005e-19)
(0.540032 0.534976 3.05682e-19)
(0.516339 0.489317 3.78317e-19)
(0.498521 0.441911 -2.37784e-19)
(0.475572 0.401551 -2.8374e-19)
(0.406911 0.325455 3.34425e-19)
(0.252062 0.192407 -1.98498e-19)
(0.063188 0.046061 3.47822e-19)
(0.444444 0.367179 5.24504e-19)
(0.983118 0.776168 6.30478e-19)
(1.16686 0.950179 1.54541e-19)
(1.1836 0.965016 1.6012e-20)
(1.13418 0.956621 -4.23806e-19)
(1.07998 0.928295 1.65294e-19)
(1.01568 0.901162 -6.19766e-20)
(0.944692 0.868269 -2.12556e-20)
(0.864731 0.829816 -2.93576e-20)
(0.774715 0.783569 -2.94629e-19)
(0.683562 0.727513 2.22507e-20)
(0.60523 0.667266 0)
(0.54655 0.610666 0)
(0.496272 0.554885 -1.54777e-19)
(0.470513 0.495456 -6.21686e-19)
(0.460515 0.449907 5.16081e-19)
(0.447607 0.383453 3.17804e-19)
(0.389302 0.305824 0)
(0.248978 0.170879 6.32789e-19)
(0.0576923 0.0299442 -3.78843e-19)
(0.442753 0.37976 -2.80345e-19)
(0.974971 0.801202 2.41185e-19)
(1.15528 0.978653 -3.44944e-19)
(1.17152 0.994265 -3.73292e-19)
(1.12203 0.985273 -1.66546e-19)
(1.06807 0.956207 3.97312e-20)
(1.00372 0.92849 0)
(0.932559 0.895038 1.76084e-19)
(0.851846 0.856382 7.81168e-21)
(0.76013 0.810181 0)
(0.665219 0.75526 0)
(0.58215 0.697469 5.31197e-20)
(0.515722 0.638352 8.29411e-20)
(0.476098 0.576356 -1.66483e-19)
(0.443218 0.521779 4.49902e-19)
(0.419378 0.447244 -5.6802e-19)
(0.399718 0.382111 -6.85917e-19)
(0.360672 0.285295 6.11007e-19)
(0.26479 0.177241 -2.28588e-19)
(0.133987 0.101382 1.30781e-19)
(0.440774 0.391423 3.23509e-19)
(0.966887 0.824307 0)
(1.14402 1.00519 0)
(1.15995 1.02166 -1.26094e-19)
(1.11054 1.01214 1.02049e-19)
(1.0568 0.982318 -2.06996e-20)
(0.992436 0.954107 -2.37304e-19)
(0.921254 0.920256 -2.59229e-19)
(0.840017 0.881528 -1.09409e-21)
(0.747279 0.835691 -2.41854e-20)
(0.65067 0.780961 6.01098e-20)
(0.563572 0.722078 -4.30763e-19)
(0.494518 0.663372 -4.81247e-19)
(0.429045 0.602858 -8.85091e-20)
(0.385765 0.529714 0)
(0.364751 0.462061 -1.35676e-20)
(0.35185 0.344084 3.7548e-19)
(0.319476 0.195235 -6.43198e-19)
(0.28904 0.024229 4.7457e-19)
(0.0885832 -0.0736084 3.78121e-19)
(0.438697 0.402444 -7.05011e-19)
(0.959201 0.846238 -3.02233e-19)
(1.13313 1.03009 5.80999e-21)
(1.1486 1.04724 1.59391e-19)
(1.09922 1.03729 0)
(1.0458 1.00699 4.86617e-19)
(0.981503 0.9785 2.96908e-19)
(0.910336 0.94442 -4.74062e-20)
(0.828627 0.905772 1.56302e-20)
(0.734431 0.860477 -2.24806e-20)
(0.634908 0.807 2.08804e-20)
(0.544883 0.751834 3.8116e-19)
(0.46417 0.693787 4.70645e-19)
(0.4096 0.629432 8.50666e-20)
(0.358823 0.567989 4.73893e-19)
(0.304454 0.468724 0)
(0.213802 0.351673 0)
(0.0717607 0.329292 4.78535e-19)
(-0.0543423 0.633855 -3.27687e-20)
(-0.00218679 1.47261 -6.19345e-19)
(0.43626 0.413034 3.828e-19)
(0.951574 0.86658 9.06733e-19)
(1.12251 1.0535 -1.36378e-18)
(1.1377 1.07155 8.24722e-19)
(1.08843 1.06133 -9.7747e-20)
(1.03523 1.03064 6.32034e-19)
(0.970947 1.00206 0)
(0.89976 0.967952 2.63299e-19)
(0.817573 0.929886 0)
(0.722397 0.885481 1.8749e-19)
(0.620425 0.834021 -3.45654e-20)
(0.523053 0.779834 3.87562e-20)
(0.443363 0.724729 5.16925e-19)
(0.357722 0.669681 -1.93643e-19)
(0.275642 0.595258 -2.5003e-19)
(0.207213 0.536868 0)
(0.113383 0.622203 0)
(0.0504397 1.20606 0)
(0.0844685 2.40392 -2.69563e-19)
(0.117156 2.88186 -1.67118e-19)
(0.433797 0.423083 0)
(0.944407 0.885943 0)
(1.11226 1.07557 4.87679e-19)
(1.12702 1.09431 -6.8777e-19)
(1.07776 1.08389 4.75018e-19)
(1.02486 1.05308 -5.79731e-19)
(0.960686 1.02463 -3.45512e-20)
(0.889621 0.990819 2.69022e-20)
(0.80708 0.953445 1.54285e-21)
(0.710899 0.910336 -2.12293e-19)
(0.607109 0.861561 5.08258e-20)
(0.512246 0.812568 3.52689e-19)
(0.417791 0.763412 -5.08704e-19)
(0.342024 0.701586 -5.99226e-19)
(0.277787 0.660298 2.10789e-19)
(0.214446 0.774588 0)
(0.156901 1.45807 3.04352e-19)
(0.158339 2.65342 3.46283e-19)
(0.160238 3.07475 -3.87525e-19)
(0.151621 3.21699 4.34839e-19)
(0.431165 0.432077 0)
(0.937234 0.903634 7.35701e-19)
(1.10233 1.09621 -1.26477e-19)
(1.11691 1.1159 8.64019e-19)
(1.06774 1.10542 -4.98601e-19)
(1.01505 1.07452 0)
(0.950929 1.0463 0)
(0.879967 1.01289 0)
(0.7973 0.97652 -1.06974e-19)
(0.700735 0.93541 -1.13797e-21)
(0.594299 0.889315 0)
(0.487671 0.841754 -3.43132e-19)
(0.402412 0.796534 0)
(0.297562 0.760635 4.25681e-19)
(0.226329 0.837234 -2.74609e-19)
(0.178696 1.421 -2.31361e-19)
(0.193967 2.64427 -5.72402e-19)
(0.211842 3.12397 -2.82546e-19)
(0.200657 3.27511 -3.14034e-19)
(0.185206 3.31717 2.8182e-19)
(0.428627 0.440436 -2.48469e-19)
(0.930526 0.920519 1.46934e-20)
(1.09279 1.11573 -1.36194e-19)
(1.10698 1.13612 -6.91936e-19)
(1.05783 1.12565 0)
(1.00544 1.09489 0)
(0.941516 1.06708 0)
(0.870765 1.03423 -1.82582e-20)
(0.788002 0.999115 1.25162e-19)
(0.690512 0.959837 0)
(0.583312 0.91637 0)
(0.486081 0.876699 0)
(0.377155 0.843131 0)
(0.310541 0.840691 2.74533e-19)
(0.294132 1.17314 7.20211e-19)
(0.292339 2.30114 2.25939e-19)
(0.304095 3.07715 4.01218e-19)
(0.294476 3.29646 -2.42422e-19)
(0.241977 3.36723 8.96207e-20)
(0.207033 3.38044 0)
(0.425876 0.448201 2.51663e-19)
(0.923504 0.936158 -1.58515e-18)
(1.08333 1.13439 -4.48599e-19)
(1.09746 1.15584 -1.09808e-19)
(1.04842 1.14548 1.27419e-19)
(0.99627 1.11483 -9.04015e-19)
(0.932406 1.08743 6.17296e-20)
(0.861903 1.0553 4.45303e-19)
(0.779264 1.0215 0)
(0.682009 0.984743 -1.18069e-20)
(0.574057 0.945543 1.07407e-20)
(0.463749 0.906886 0)
(0.385522 0.881116 0)
(0.341581 1.00203 -3.39392e-19)
(0.312735 1.80274 -1.03039e-20)
(0.310487 2.91027 -1.09355e-19)
(0.327067 3.29763 1.61529e-19)
(0.299747 3.40667 2.82122e-20)
(0.230262 3.43539 1.69163e-19)
(0.203077 3.44395 -8.61235e-20)
(0.422822 0.456061 4.84511e-19)
(0.916385 0.952714 1.51536e-18)
(1.07341 1.15372 5.51899e-19)
(1.08723 1.17582 0)
(1.0383 1.16549 0)
(0.986577 1.135 6.92575e-19)
(0.923116 1.10808 -4.34109e-19)
(0.853056 1.07656 -4.08845e-19)
(0.77071 1.04413 -1.67496e-20)
(0.673373 1.00971 -1.87231e-20)
(0.564908 0.974063 -2.1342e-19)
(0.458359 0.944831 0)
(0.37718 0.961529 0)
(0.352946 1.32165 -1.79932e-19)
(0.377811 2.39089 -2.36297e-19)
(0.420859 3.19587 0)
(0.449559 3.39496 1.45754e-19)
(0.379206 3.46445 2.34855e-19)
(0.299643 3.50885 -5.47174e-19)
(0.272335 3.535 3.12176e-19)
(0.41903 0.463864 -9.18783e-19)
(0.907956 0.969093 -7.2076e-19)
(1.06259 1.1736 0)
(1.07656 1.19674 0)
(1.02793 1.18646 0)
(0.976601 1.1559 0)
(0.913411 1.12922 4.6408e-19)
(0.843948 1.09832 -5.20253e-19)
(0.762197 1.06718 0)
(0.665725 1.03514 2.30285e-20)
(0.55828 1.00351 3.40377e-19)
(0.456491 0.977442 1.90669e-20)
(0.409046 1.04969 3.4255e-20)
(0.428631 1.68873 2.5723e-19)
(0.45679 2.85243 -4.95432e-20)
(0.491372 3.33419 0)
(0.473304 3.47281 -9.90108e-20)
(0.378665 3.56315 1.07728e-19)
(0.284904 3.64042 3.80802e-19)
(0.206428 3.62346 -3.39981e-19)
(0.41472 0.472088 4.35348e-19)
(0.899226 0.987402 -7.07664e-19)
(1.0508 1.19494 0)
(1.06457 1.21839 -1.76694e-19)
(1.01626 1.20793 6.72069e-19)
(0.96558 1.17732 0)
(0.90312 1.1509 0)
(0.83447 1.1205 9.70859e-19)
(0.753568 1.09056 1.86813e-20)
(0.657894 1.06097 -1.35379e-19)
(0.55017 1.03477 -1.36844e-19)
(0.455408 1.03213 1.19855e-19)
(0.420398 1.23349 0)
(0.465353 2.06762 -1.15964e-19)
(0.522768 3.1167 1.04667e-19)
(0.58435 3.44325 -6.51932e-20)
(0.580958 3.55727 0)
(0.502082 3.66863 -2.23004e-19)
(0.421804 3.71687 -8.24407e-19)
(0.334784 3.68886 -2.07791e-19)
(0.40932 0.479954 -8.43576e-19)
(0.888564 1.00491 1.0069e-18)
(1.03786 1.21661 7.49193e-19)