/*--------------------------------*- C++ -*----------------------------------*\
  =========                 |
  \\      /  F ield         | OpenFOAM: The Open Source CFD Toolbox
   \\    /   O peration     | Website:  https://openfoam.org
    \\  /    A nd           | Version:  9
     \\/     M anipulation  |
\*---------------------------------------------------------------------------*/
FoamFile
{
    format      ascii;
    class       volScalarField;
    location    "47";
    object      p;
}
// * * * * * * * * * * * * * * * * * * * * * * * * * * * * * * * * * * * * * //

dimensions      [0 2 -2 0 0 0 0];

internalField   nonuniform List<scalar> 
918
(
0.563874
1.20884
0.0029066
0.563257
-0.00842691
1.17584
-0.492895
0.707917
0.544036
-0.0905258
-0.0220568
0.54084
1.03663
0.802621
-1.11526
-0.00226787
0.6635
-0.372018
0.543099
-0.0364653
0.740683
0.550609
0.553638
0.544222
0.610123
0.778924
0.917717
0.0194686
0.00733509
0.00336395
-0.0135
-0.0344417
-0.0269432
1.05948
1.11056
1.13326
0.512125
0.340844
-0.360028
-0.42738
-0.419788
-0.536495
0.70237
0.701343
-0.184448
0.710752
0.71634
0.531165
0.543402
0.544311
0.545368
0.54433
0.545722
0.419513
-0.0930913
-0.125702
-0.0697285
-0.0614742
0.073476
-0.0227987
-0.0252268
-0.0218008
-0.0204061
0.462151
0.536125
0.533188
0.546069
0.555238
1.14839
1.12032
1.14645
1.06015
1.07661
1.01462
0.987164
0.823052
0.844917
0.787943
0.773715
-1.55137
-2.51045
-0.521281
-0.268605
-0.0148183
0.00356475
0.0119446
0.65765
0.657464
0.665278
0.673328
1.09143
-0.370853
-0.473517
0.54323
0.54203
0.550398
0.551094
0.547109
0.546202
-0.0320172
-0.0289806
-0.032772
-0.0353872
-0.0333113
0.729667
0.727697
0.544758
0.541772
0.561959
0.582891
0.574732
0.289483
0.613307
0.626806
0.606931
0.769165
0.764256
0.772742
0.891457
0.85484
0.954649
0.977977
0.0168741
0.000671027
-0.0116158
-0.0141406
-0.0142421
0.508016
0.500659
0.52737
0.515508
0.517974
0.256666
0.121889
0.426523
0.451731
-0.275432
-0.336407
-0.420397
-0.446845
-0.55819
0.614317
0.693258
0.690867
-0.199822
-0.126289
-0.256279
-0.0529332
-0.113934
0.521509
0.528462
0.523494
0.53896
0.533446
0.535401
0.547658
0.544737
0.546292
0.481966
0.605627
0.346093
0.311851
-0.232365
-0.143577
-0.234216
-0.04906
-0.0439709
0.0872887
0.112625
0.0603798
0.0489299
-0.0375193
-0.0296758
-0.0338918
-0.0192281
-0.0235813
0.455048
0.444095
0.47468
0.482107
0.525711
0.526954
0.530498
0.52885
0.938021
0.960486
0.967866
0.941528
-3.50839
-6.30566
0.0590509
0.196908
-0.00491341
-0.010473
0.004746
-0.00903707
-0.00208556
-0.00388103
0.010511
0.00727716
0.0122411
0.0134049
0.649083
0.649181
1.01092
1.01341
0.9903
0.941507
0.531364
0.533463
0.538997
0.534863
-0.0231096
-0.0265851
-0.0249126
0.718221
0.724472
0.722489
0.25184
0.163908
0.339546
0.367981
0.641663
0.630177
0.640062
0.668905
0.70467
0.985423
1.00357
1.00185
1.01008
1.05407
1.07043
1.03582
0.487806
0.497601
0.492654
0.530539
0.528272
0.529195
0.524793
0.526234
0.524079
-0.0297062
-0.412538
0.501207
0.519484
0.501077
0.506333
0.693667
0.770778
0.674933
0.684009
0.681737
0.0146111
-0.0431274
0.26808
0.234473
0.395721
0.431487
0.410788
0.909281
0.869315
0.919486
0.892939
0.854066
0.880707
-0.364186
-1.87312
-0.987163
0.549424
0.362477
0.450512
0.0307057
0.012251
0.0183826
1.00646
1.08268
0.661459
0.832105
0.837826
0.739359
0.769851
0.828696
0.753684
0.789202
0.823645
0.802611
0.571316
0.513944
0.525958
0.840306
0.896621
0.135616
0.077161
0.0329849
0.131368
0.187633
0.162452
1.04436
0.95206
1.02367
0.541524
0.54223
0.00195933
-0.00665579
0.546419
0.546469
-0.0122802
0.00137322
0.433009
-0.824491
0.118718
0.534939
0.525036
0.542049
-0.0731672
0.373535
-0.0227264
0.0697417
0.0113644
0.538441
0.472988
0.432889
0.00442048
-0.0109402
-0.0305848
-0.202466
0.539195
0.537502
0.541519
0.542484
0.543151
-0.0125986
-0.0066609
-0.00614153
-0.0306376
-0.0269828
-0.035602
0.506341
0.524519
-0.157641
0.541661
0.543785
0.54361
0.536822
0.542474
0.540709
-0.00400958
-0.0108927
-0.0136544
0.234581
0.36181
0.675965
0.766073
0.646529
0.42019
0.182749
0.577389
0.64157
0.546057
0.701122
0.688867
0.705063
0.184062
0.0342788
0.192326
0.134275
0.532797
0.531484
0.523292
0.520314
0.536917
0.535023
0.539584
0.536576
0.539527
0.54092
-0.0314218
-0.0555302
-0.068911
-0.134913
0.329183
0.589961
0.270219
0.300498
0.161359
-0.0187459
-0.0191427
-0.0223828
-0.029068
0.0230507
-0.00370925
0.0639464
0.0639148
0.0349503
0.00819453
0.0148359
0.00204317
0.00674529
0.531629
0.530025
0.536393
0.545413
0.482445
0.486186
0.451686
0.472081
0.457542
0.397614
0.432133
0.407602
-0.00126393
0.00823013
-6.07151e-05
-0.00566627
0.000348551
-0.0205598
-0.0176055
-0.0169454
-0.0125596
-0.0175117
-0.0247462
-0.0259579
-0.1621
-0.276612
0.997184
0.926469
0.138341
0.528374
0.534805
0.531583
0.536433
0.539557
0.540389
0.538123
0.534683
0.524968
0.526611
0.52325
0.523971
-0.0914364
-0.229114
-0.0588281
-0.130413
0.150857
0.632698
0.373631
0.311147
0.305802
0.532031
0.938725
0.728066
0.707925
0.725135
-0.331125
0.0633385
-0.265214
0.353992
0.176908
0.675998
0.724095
0.744462
0.693255
0.646298
-0.0991936
0.564277
-0.0549426
-0.00534096
0.194303
0.0760847
0.707462
0.672673
0.676721
0.694686
0.712431
0.679011
0.662175
0.656725
0.690471
0.694141
0.504575
0.265803
0.218766
0.180006
0.655999
0.541384
0.596237
0.509542
0.527874
0.530568
0.529174
0.511096
0.518591
0.514182
0.520419
0.523786
0.532632
0.533036
0.528381
0.530541
-0.0358671
-0.0387926
-0.0138907
-0.123753
-0.113941
-0.174855
-0.0502164
0.0881756
0.0511897
0.246041
0.351876
0.0642294
-0.0484148
-0.0201281
0.0169
0.190332
0.216043
0.0934268
0.180889
0.169571
0.153336
0.254458
0.259389
-0.00442562
-0.00877041
-0.0112729
-0.0136023
0.0405427
0.11083
0.12098
0.016254
0.0110854
-0.0141632
-0.0148636
-0.00137245
-0.00642894
-0.00282925
0.0324718
-0.0407386
-0.00734371
0.00809652
0.0181481
0.0150051
0.0101337
0.524097
0.526329
0.526004
0.533614
0.551644
0.567791
0.52471
0.504345
0.495264
0.498252
0.471654
0.481814
0.477603
0.491044
0.51187
0.521062
0.51858
0.521287
0.504018
0.505686
0.492525
0.496142
0.471506
0.45263
0.441076
-0.0324047
0.00474134
-0.00101988
-0.0303407
-0.00116087
-0.0135554
0.00728612
0.0235764
0.00975613
0.00617818
-0.00273798
-0.0142174
-0.0122382
-0.0652383
0.0188715
-0.173866
-0.210378
-0.279996
0.899259
1.02171
0.822174
0.596252
0.612072
0.854131
0.940309
0.559001
0.746535
0.770632
0.589232
0.855275
0.533189
0.5328
0.530399
0.529877
0.531099
-0.000419239
0.102486
0.107057
0.165616
0.28248
0.39564
0.319367
0.19482
0.326952
0.330564
0.625374
0.638621
0.593892
0.617261
0.617757
0.437006
0.512871
0.565762
0.52238
0.572844
0.593775
0.550643
0.582424
0.532451
0.487624
0.484096
0.433675
0.454194
0.43097
0.413073
0.523187
0.500585
0.511096
0.501361
0.520927
0.545194
0.541973
0.574404
0.585415
0.505407
0.461741
0.471393
0.501595
0.462001
0.476774
0.492901
0.235052
0.135294
0.219453
-0.0690144
0.00765763
-0.00684445
-0.0542121
-0.00644401
0.278839
-0.415884
-0.391246
-1.0221
0.505935
0.969607
0.658145
0.631504
0.709402
0.690581
0.695662
0.714866
0.719086
0.646817
0.663569
0.666357
0.628297
0.651676
0.673385
0.670364
0.534228
0.400235
0.395647
0.348004
0.219116
0.256348
0.457139
0.379214
0.304248
0.305543
0.471045
0.357823
0.427017
0.463701
0.395073
0.348862
0.553414
0.61837
0.609074
0.583579
0.500836
0.515032
0.539222
0.574873
0.601171
0.63242
0.520039
0.525866
0.527117
0.524624
0.521858
0.524842
0.52501
0.527541
0.528284
0.531236
0.530257
-0.0237305
-0.0124513
-0.0259129
-0.0330469
-0.00278531
-0.00713327
0.0367146
0.0230558
0.00821865
0.0145607
-0.0122545
-0.0165487
-0.011303
-0.00212294
0.114645
0.127517
0.111192
0.0718538
0.259513
0.39026
0.462016
0.33913
0.232235
0.256105
0.277977
0.0081681
0.0350065
0.0221037
0.0610879
0.0527507
-0.0120621
-0.0163619
-0.0154607
-0.00826533
0.00288783
-0.0168716
-0.0221975
-0.0122354
-0.0168843
-0.0185864
-0.0239511
0.506559
0.500116
0.501682
0.495677
0.49441
0.508479
0.512709
0.514641
0.520017
0.522168
0.512504
0.518075
0.521757
0.00602824
-0.019427
-0.0226847
-0.00813159
-0.0143316
-0.0136433
-0.0130466
0.127548
0.0563685
0.0608347
0.0154135
-0.113386
-0.0556937
0.494104
0.49346
0.487828
0.723609
0.57366
0.493517
0.59027
0.695438
0.278416
0.477206
0.31046
0.893732
0.78762
0.934132
0.547625
0.24798
0.407236
0.456382
0.264704
0.337498
0.336003
0.222999
0.255364
0.289571
0.391464
0.269752
0.245107
0.00237812
0.190928
0.306464
0.287588
0.415395
0.477719
0.266679
0.188155
0.142361
0.614912
0.632768
0.648317
0.621998
0.643262
0.583771
0.571967
0.590209
0.600107
0.595723
-0.749287
-0.456049
-1.40126
-0.717898
-0.26567
0.537078
0.502498
0.777436
0.657498
0.714088
0.698095
0.654985
0.62206
0.639386
0.668176
0.361777
0.473327
0.448082
0.453102
0.35421
0.285685
0.587375
0.581514
0.61651
0.639929
0.608758
0.640135
0.517806
0.517477
0.517052
0.513356
0.511629
0.513918
0.0756301
0.0449817
0.0794044
0.0604856
0.0379284
0.0265002
0.0129734
0.00304702
-0.00531735
-0.00653845
0.00889301
0.0139123
0.17168
0.112015
0.0333328
0.0628788
0.00310421
-0.0644176
-0.0821167
0.0189129
0.113294
0.10373
0.409677
0.661512
0.48157
0.649343
0.489976
0.545695
0.477636
0.469989
0.49674
0.38489
0.464286
0.242759
-0.264352
-0.172431
0.793946
0.809387
0.592059
0.410673
0.179433
0.363744
0.556282
0.489358
0.527057
0.596379
0.586219
0.0238757
0.0866725
0.358663
0.58601
0.241486
0.233118
0.227166
0.405846
0.327071
)
;

boundaryField
{
    wall-4
    {
        type            zeroGradient;
    }
    velocity-inlet-5
    {
        type            zeroGradient;
    }
    velocity-inlet-6
    {
        type            zeroGradient;
    }
    pressure-outlet-7
    {
        type            fixedValue;
        value           uniform 0;
    }
    wall-8
    {
        type            zeroGradient;
    }
    frontAndBackPlanes
    {
        type            empty;
    }
}


// ************************************************************************* //
