/*--------------------------------*- C++ -*----------------------------------*\
  =========                 |
  \\      /  F ield         | OpenFOAM: The Open Source CFD Toolbox
   \\    /   O peration     | Website:  https://openfoam.org
    \\  /    A nd           | Version:  9
     \\/     M anipulation  |
\*---------------------------------------------------------------------------*/
FoamFile
{
    format      ascii;
    class       surfaceScalarField;
    location    "47";
    object      phi;
}
// * * * * * * * * * * * * * * * * * * * * * * * * * * * * * * * * * * * * * //

dimensions      [0 3 -1 0 0 0 0];

internalField   nonuniform List<scalar> 
1300
(
3.75095
5.62643
-3.23276
3.75095
-7.71446
5.62643
-4.34923
4.34923
-0.709874
0.709874
1.8764
1.87455
-2.83535
2.83535
-2.31315
2.31315
-2.54509
2.54509
-5.24638
5.24638
-5.06818
5.06818
4.66217
-4.66217
-6.28657
6.28657
-1.05779
1.05779
-3.7414
3.7414
3.16971
-3.16971
-2.18507
2.18507
-0.142076
0.142076
-0.553499
4.30445
3.19745
3.19745
-2.00932
2.00932
-4.86605
4.86605
6.21795
-6.21795
5.22604
-5.22604
-1.99328
-2.3904
1.79504
-11.5823
-5.91941
-5.91941
-8.44039
8.44039
-2.81396
2.81247
2.94495
-2.94495
-1.78302
1.78302
-4.28942
-0.0598018
-4.28942
4.34133
0.0078992
4.34133
-0.78975
0.0798762
-0.78975
3.91665
-3.91665
0.59609
0.113785
0.59609
3.0651
-3.0651
-1.8771
3.7535
1.87385
-1.87188
6.17633
-1.87908
3.75363
-5.99347
5.99347
-3.05927
0.223922
-3.05927
2.65109
0.184266
2.65108
-6.82225
6.82225
-2.35534
0.0421867
-2.35534
2.27885
0.0343053
2.27885
2.87476
-2.87476
-2.65148
0.106389
-2.65148
2.43038
0.114716
2.43038
0.353536
5.27289
-5.97997
8.79243
-5.27289
0.0265178
5.20834
0.0380361
5.20834
-5.10586
0.0376871
-5.10586
5.01308
0.0550982
5.01308
4.7518
-0.0896329
4.7518
-4.77763
0.11546
-4.77763
-3.41063
-4.06183
-6.44176
0.155194
-6.44176
-1.10307
0.0452751
-1.10307
0.994646
0.063145
0.994646
-3.65654
3.65654
-4.13305
0.391654
-4.13305
3.12413
0.0455818
3.12413
1.8685
1.88245
5.61945
-5.61945
2.44974
-2.17422
-0.0108499
-2.17422
-2.21657
-3.00948
2.21657
-0.0314992
-0.373106
0.231029
-0.373106
3.15935
0.0381024
3.15935
2.26886
0.16152
-2.26886
0.259536
3.25257
-3.25257
1.34646
0.662859
1.34646
-5.56633
5.56633
4.95488
0.0581988
-4.95488
0.0888319
6.15625
0.0617019
6.15625
-6.19954
-0.0184152
-6.19954
2.58544
-4.97585
-2.57363
6.10355
0.183013
-6.10355
0.18414
2.91601
0.0289414
2.91601
-2.92016
2.92016
-2.98389
0.0389407
-2.98389
-2.1828
0.399776
-2.1828
1.48298
0.300046
1.48298
-4.17411
-0.115311
-4.17411
-4.25566
0.122607
4.25566
0.0856682
1.11237
-1.11237
-0.887508
0.0977577
-0.887508
-4.03534
-0.138773
4.03534
-0.118692
-3.81587
-0.100772
-3.81587
-3.02403
0.0401402
3.02403
0.0410666
3.11274
0.0466163
-3.11274
0.0476344
-1.87083
3.75328
-1.88012
3.75397
-5.61258
-0.38089
-5.61258
6.30207
-0.308601
6.30207
3.41783
0.323571
-3.41783
0.358553
2.51364
0.137445
2.51364
-6.78469
-0.0375572
-6.78469
6.80815
0.0140988
6.80815
2.4178
0.095837
-2.4178
0.0624632
2.23028
0.0485635
2.23028
2.89252
-0.0177601
2.89252
-2.87069
-0.00407298
-2.87069
2.79763
-2.79763
2.72871
0.0689242
-2.72871
0.0772244
-11.1329
11.1145
-0.0350361
-11.0978
5.1733
5.1733
4.18152
0.570282
4.18152
-4.99398
0.216354
-4.99398
2.69817
-5.2718
3.04779
-6.45841
4.68579
-16.2681
4.33188
-8.39371
6.68121
-6.68121
6.57211
0.109094
-6.57211
0.130354
-1.19114
0.0880714
-1.19114
-3.05112
-0.605425
-3.05112
4.30384
-0.647297
4.30384
-3.02856
3.02856
-3.07772
0.0491612
3.07772
0.0464096
2.19013
0.0401533
-2.19013
0.0159132
0.484036
0.112053
-0.484036
0.11093
3.45522
-0.202651
3.45522
-3.06099
-0.191584
-3.06099
-1.2728
0.0816651
1.2728
0.0736586
-5.81441
0.248077
-5.81441
-11.1908
0.0930047
-11.1528
-6.10653
-6.10653
2.33386
11.1263
-2.8902
0.0195116
2.8902
0.0258096
2.97554
0.0530195
-2.97554
0.0553805
-2.86143
0.0638047
2.86143
0.0587228
-2.55841
0.37561
-2.55841
-1.07496
1.07496
-1.24621
0.171257
1.24621
0.236762
1.37587
-0.263497
1.37587
0.947179
0.0474674
-0.947179
0.0596704
-3.72788
-0.0879937
-3.72788
6.53442
-0.232344
6.53442
-2.95116
-0.10983
2.95116
-0.0586319
-0.0333649
11.1478
-5.13994
0.0340766
5.13994
-11.2095
11.2436
-3.23031
0.671906
3.23031
0.951209
5.28672
0.279613
-5.28672
0.292737
6.76165
0.0465061
-6.76165
0.0804375
-2.55869
-0.492426
-2.55869
-5.03039
-0.582195
5.03039
-0.726544
-11.4745
-0.203722
11.6782
-11.4194
6.01813
0.138116
-6.01813
11.3817
-1.02277
-0.0895993
1.02277
0.0521832
1.70003
-0.324157
1.70003
3.63889
-0.183673
-3.63889
-0.088986
-6.68854
-0.0961573
6.68854
-0.15412
-2.11533
-0.443358
2.11533
-0.415307
-4.26705
4.30515
1.90928
-2.4301
-2.54575
-5.43957
1.8519
1.90138
4.30164
-10.2051
-6.06306
-10.0209
7.26378
-6.97104
-9.25939
9.16976
7.78951
-7.89028
-5.78513
5.83154
6.48248
-6.44141
1.87875
1.87475
7.94585
-7.72192
-15.641
15.2601
7.48838
-7.4462
15.7738
-15.8114
-17.8673
17.9138
-5.70388
5.81027
-6.73233
6.72826
-6.95985
6.90122
-2.87343
-3.58498
13.1687
-13.0135
8.49302
-8.50387
-8.55713
8.94878
3.38251
0.922638
3.42913
-1.88225
3.761
-1.87138
3.78066
2.67541
-5.54884
2.59639
-5.14214
4.25844
4.23458
-4.22694
-1.21263
-5.9222
5.95114
-5.81791
5.87663
9.01647
-9.07627
-1.88512
3.75987
-1.86886
3.77024
-3.42507
-2.36006
3.37948
0.92216
8.10956
5.05911
-8.29257
-1.72835
-7.98246
7.79879
-8.19914
8.00755
-0.436416
5.81832
-5.38191
4.42963
-1.56029
7.37861
5.70349
5.91985
5.86656
-5.58695
1.10448
-6.48639
-6.39756
-2.40311
2.50087
2.33676
-2.22297
6.05371
1.7358
5.93502
-5.70583
-2.18445
-5.79383
3.82091
2.01063
3.87007
4.07762
2.40485
4.11776
3.03065
-3.03575
0.00509991
-3.05645
6.0871
0.72412
-5.41652
-4.49436
4.96146
2.98439
5.14572
-5.50627
-2.21566
-5.14771
-9.55381
-6.08717
-10.136
10.0974
5.16268
9.78881
-11.9682
11.8141
4.78163
2.70675
4.81594
-4.91286
-2.53334
-4.8504
11.623
-2.61026
-9.01276
-10.3257
-7.54151
10.3116
5.46219
10.9795
6.93423
11.06
4.42693
7.19608
-9.88913
2.34761
-3.86308
-1.8408
-3.78586
3.67463
2.13564
3.78935
-4.21494
-2.51739
-4.19543
-4.2907
-2.66915
4.30846
2.4198
-4.4071
-3.79204
4.51693
2.38429
4.04638
-10.1094
4.34733
-7.93231
-9.22381
-3.78967
-9.09346
3.46467
2.63373
-6.0984
-2.08417
8.43894
-4.20436
7.22631
-5.16761
-3.33626
-5.1517
-6.81569
-1.74144
-6.69308
-8.89574
8.40331
-9.19283
8.54554
12.5971
-5.67693
-6.92015
-3.96827
-2.47314
3.92064
-0.491513
-3.71083
3.71593
0.0501749
3.83084
4.75347
4.26196
-3.88587
-1.93203
-3.83049
3.82881
2.04782
3.89261
6.77912
2.23735
6.78702
-6.51267
-2.5636
-6.62799
9.06651
-8.66674
2.88831
-2.80665
5.36165
2.64591
-5.15899
-2.82347
6.20557
-3.19978
-3.00579
-12.2019
10.5446
1.65726
-4.82329
-0.393662
-0.251585
-5.4938
-3.76559
5.37834
0.541505
11.0861
7.32055
-5.51329
5.76137
6.16494
6.22314
-0.174417
5.82641
-5.1545
5.31168
-2.52894
-2.78274
5.39059
-5.52936
-1.23739
-5.44476
4.20737
0.405655
1.63367
-1.40264
-1.86801
-0.5351
-1.80834
1.40419
0.932571
1.51624
0.920856
1.58001
-2.93561
0.563081
2.37253
-2.01475
-1.65989
-3.718
-1.13189
4.8499
5.68237
2.11642
-5.59338
-0.200447
2.60889
-2.54574
-0.727236
-2.99077
2.20728
-2.93452
-3.66095
-1.97707
5.63802
-3.37029
-0.460202
3.31727
0.552804
-3.82644
-2.09576
3.7875
0.330267
-3.12638
6.1905
-3.06412
-5.05841
2.52816
3.55895
4.53878
-4.78969
2.44694
2.34274
-1.23074
4.24275
0.902972
4.3802
-6.83433
4.61867
5.77005
3.17873
-6.09362
0.945905
-5.88842
8.50193
-7.3162
-1.18574
4.1181
4.38383
7.1104
5.48669
-5.70206
12.8125
-1.16362
-6.15258
7.05204
-3.87331
4.80135
-8.67465
-10.288
4.13546
-9.17038
10.9381
-1.76774
-3.62361
-8.34458
12.794
-1.21188
-11.5821
8.57693
-4.20277
-4.28994
8.49271
-6.81303
6.82327
-1.9741
-4.84917
-10.1089
-5.70246
10.2051
1.60898
-9.85751
12.2051
-2.66142
4.09401
0.721932
4.14257
3.26386
-5.43198
2.16812
3.54917
-5.52327
2.0792
-7.51118
-6.73406
12.0773
-5.3432
-10.5237
-9.52491
-0.998812
2.5417
9.66342
-9.47593
7.4493
2.02663
3.30595
0.586665
-3.37487
-0.410983
0.237071
4.53709
-4.77416
4.02642
4.18794
3.31801
1.21908
3.84294
2.1082
-3.86875
-0.32668
-4.15824
1.48909
-1.73844
-3.68289
5.17198
-4.0655
0.382606
-2.74154
-3.50376
6.24531
-4.58234
3.03772
3.15278
5.08554
-4.91224
1.40848
-2.39634
-2.5159
2.65702
-4.39546
1.98057
3.19141
4.36486
0.572819
5.86336
6.2139
-8.4971
0.564785
11.273
-9.54466
2.46087
8.5991
-9.91017
0.385262
-8.70819
1.01181
-5.21617
-5.08659
5.12752
-6.86895
-3.54714
6.17133
0.615691
-6.257
-0.436087
-6.04444
-2.85129
-6.4878
-3.05058
-6.14225
-8.75264
-1.65563
-7.097
6.74768
-6.69048
-3.44552
7.41703
1.12851
-7.42093
7.33133
-7.50036
7.1762
0.09511
3.62082
4.35707
1.88393
-2.39008
4.27401
-5.12012
7.35747
-8.68084
3.56073
4.13955
-6.70315
-4.54129
5.03689
4.02962
5.33694
8.92392
-10.413
1.48909
-10.7171
12.0491
-1.33202
-16.4941
5.77695
-7.57015
2.53493
0.353386
2.623
0.581158
2.49558
-3.07673
-2.22549
-2.15183
-2.4031
-3.46069
5.86379
1.12727
-3.48279
2.35553
-3.55973
4.687
-0.152918
-3.32988
5.29682
-2.80125
5.65021
-3.71265
1.93756
3.40432
5.73298
-2.32866
4.38812
-1.74222
1.89603
-4.22469
-1.56466
-2.96397
5.0996
-3.28134
3.66395
-0.325444
3.98939
-4.08246
0.882686
-0.764455
3.42349
3.68302
4.29679
-3.07771
2.93369
-4.67591
-1.291
-4.10309
-0.911684
-0.280822
-3.75912
4.03994
6.02334
-6.30417
-5.24784
9.55398
-4.30614
7.71256
-5.39397
-2.31858
-4.26738
-4.39935
3.89177
1.93464
9.64719
0.211644
-5.60562
-4.94286
-3.99165
3.16867
2.14301
-1.85779
3.51505
2.10938
-0.475706
0.495833
1.02041
1.82015
-1.32431
0.271304
1.54884
-1.13134
1.86349
0.745398
-1.91096
0.102614
-1.30262
3.50991
1.06991
-2.00248
0.678166
0.998113
-3.52705
4.97362
-2.6356
-2.33802
5.97173
1.13113
-3.76674
4.31363
-3.90798
2.34553
-3.47742
-1.42121
-5.32919
-3.59339
-2.53462
4.89015
-3.32917
5.44559
1.2292
-5.24514
6.47434
-3.66613
1.68906
-3.08096
3.82636
-1.02087
-2.06009
2.86549
2.77253
-2.99915
0.00838592
-0.133664
2.371
-2.50466
-0.56352
-2.57827
-4.57257
4.90284
-2.1063
4.55324
2.16772
-1.91572
6.46896
1.81012
-3.72584
-3.24829
-3.70849
-1.38309
3.15569
-0.594321
-4.25607
-5.44349
4.16024
0.219958
-6.9509
7.76463
-0.81373
-3.96652
-0.652153
4.77025
-6.00618
0.482907
-3.92698
3.83765
4.74063
4.96059
-11.3799
-0.20218
-6.21725
1.14074
-7.35799
5.52457
-3.57309
7.70854
-10.3679
6.92235
-9.23936
6.52281
-0.835183
6.24245
-4.07433
2.77031
-8.47277
-6.86379
5.44445
-2.73769
6.16638
-3.09359
9.25997
-5.75501
5.2106
4.04937
-0.982063
-4.16963
-5.22369
4.24162
-0.0130876
4.12948
4.97726
-2.86906
4.65058
2.26227
-4.65861
-2.13319
-6.49563
1.83702
-3.34285
-1.91831
3.75533
3.16723
3.7539
1.23943
-3.34292
7.1504
-8.14921
-1.80719
-3.2794
5.2038
-0.962175
3.34863
-6.62803
-1.86754
4.84306
-0.79821
-4.04485
0.833878
-4.38102
1.67997
-6.06099
5.18898
-5.62507
2.21894
-9.78909
-5.20199
-5.14981
-2.25764
-5.24272
-7.60206
5.34442
-1.82511
5.50622
-8.55784
7.75963
-3.4913
8.83573
-5.43785
-1.04995
5.85316
1.32304
10.1588
0.192981
-4.73427
-1.91035
3.93368
-2.02333
1.25832
-3.56614
0.367537
2.47461
3.49713
-6.68198
-0.0211716
-4.75545
-3.92507
7.9547
5.62891
11.6523
1.23925
9.14222
-1.18753
10.3815
4.14941
4.38617
-3.03185
4.52094
1.00809
4.56882
-0.891003
2.82856
1.732
1.77727
0.76847
2.30933
1.37369
3.19202
0.115281
-2.03655
4.63007
-8.62172
-0.975552
-8.05144
1.11832
5.71841
-4.60008
3.06282
-0.9198
1.03948
0.00385631
-1.46715
1.46329
-2.77889
-1.94286
-0.394014
-1.6571
2.33527
1.8528
-1.94125
-0.837632
0.367198
-3.96059
3.11022
-3.10184
-0.329305
6.14504
-2.78917
0.284501
-1.1001
-2.29377
-2.82887
2.72626
6.17653
0.292425
3.11241
5.19526
3.09951
0.230443
3.90915
-5.67689
-3.60203
-5.87907
-0.354496
4.41576
1.72662
7.9368
5.77599
4.81381
-1.81422
-9.96343
6.56503
-2.04409
5.23301
-1.18817
-4.87282
5.02508
2.33239
-5.64077
0.0157066
-4.85712
-6.90121
-0.520831
8.28046
-9.63794
8.58799
5.73669
1.36031
-4.41602
-0.733792
4.24476
0.141409
10.5229
-1.1258
-6.77902
7.90482
-4.5926
3.61705
0.797141
2.71791
2.26043
1.34063
-5.43838
-10.0385
-1.99722
-1.52983
-4.33524
0.51466
-2.36746
6.24174
-2.62468
3.92315
5.28014
6.31962
-2.14507
-4.15909
6.45122
-2.52806
3.79156
)
;

boundaryField
{
    wall-4
    {
        type            calculated;
        value           uniform 0;
    }
    velocity-inlet-5
    {
        type            calculated;
        value           uniform -3.75095;
    }
    velocity-inlet-6
    {
        type            calculated;
        value           uniform -5.62643;
    }
    pressure-outlet-7
    {
        type            calculated;
        value           nonuniform List<scalar> 8(3.23276 7.71446 4.38368 9.78729 7.47246 5.15907 5.74596 9.01767);
    }
    wall-8
    {
        type            calculated;
        value           uniform 0;
    }
    frontAndBackPlanes
    {
        type            empty;
        value           nonuniform List<scalar> 0();
    }
}


// ************************************************************************* //
