/*--------------------------------*- C++ -*----------------------------------*\
  =========                 |
  \\      /  F ield         | OpenFOAM: The Open Source CFD Toolbox
   \\    /   O peration     | Website:  https://openfoam.org
    \\  /    A nd           | Version:  9
     \\/     M anipulation  |
\*---------------------------------------------------------------------------*/
FoamFile
{
    format      ascii;
    class       volVectorField;
    location    "47";
    object      U;
}
// * * * * * * * * * * * * * * * * * * * * * * * * * * * * * * * * * * * * * //

dimensions      [0 1 -1 0 0 0 0];

internalField   nonuniform List<vector> 
918
(
(0.985163 -0.000503522 0)
(0.00501057 2.96625 0)
(0.00872065 0.861789 0)
(0.979703 0.00214768 0)
(-0.0143725 2.05629 3.09379e-20)
(-0.00704428 2.94879 -2.51828e-18)
(0.813733 1.15138 4.34151e-19)
(0.229706 0.112469 -1.57361e-20)
(0.999907 -0.00028309 0)
(0.0621331 0.79066 0)
(0.0135753 0.597356 0)
(0.734687 -0.0171096 0)
(0.0111344 2.93031 0)
(0.00281445 2.79483 0)
(-0.0175261 3.15347 7.7015e-19)
(-0.0182071 1.908 -5.9001e-22)
(0.300079 0.0334352 1.03701e-18)
(0.188157 1.16199 3.06697e-19)
(0.962757 0.00501728 0)
(-0.0120211 0.531591 0)
(0.0361721 0.150676 -7.44055e-19)
(1.00198 -0.00497908 0)
(1.00022 -0.00979016 0)
(0.975729 -0.00644014 0)
(0.583154 -0.0382713 0)
(0.0154739 2.64011 0)
(-0.0148414 2.90999 9.2989e-19)
(0.00993213 0.925907 0)
(-0.00416477 1.16857 0)
(0.0097426 0.903903 0)
(-0.016853 2.60968 0)
(-0.00337812 2.10902 -2.47046e-20)
(-0.00957935 1.88541 0)
(-0.0206031 2.9876 -9.06675e-23)
(-0.0166883 3.0053 1.95716e-18)
(0.00210466 3.00018 0)
(0.870944 -0.00957347 0)
(0.405026 0.938177 1.84714e-19)
(0.79316 1.16847 -4.88275e-19)
(0.940821 1.00853 5.2996e-19)
(0.665109 1.26048 -1.00081e-19)
(0.665981 1.24372 5.78726e-19)
(0.266596 0.183603 1.5352e-20)
(0.243467 0.0858154 0)
(1.13908 0.551933 0)
(0.234288 0.175331 7.00802e-20)
(0.201131 0.111508 -7.27208e-20)
(0.919819 -0.00744424 0)
(1.00026 0.00015651 0)
(0.999909 0.000336632 0)
(1.00363 -0.00776805 0)
(1.00096 -0.000921384 0)
(1.00017 3.18407e-05 0)
(0.0764485 1.81623 -8.02554e-19)
(0.0303741 0.979006 0)
(0.0955485 0.860424 0)
(0.0130945 0.932329 0)
(0.0365117 0.721728 0)
(0.0123987 2.00365 0)
(0.00291132 0.832357 0)
(0.00797146 0.612266 0)
(0.000944354 0.820816 0)
(0.0148933 0.586823 0)
(0.839624 -0.0158518 0)
(0.844757 0.0299996 0)
(0.767637 -0.00601191 0)
(0.813487 0.0395935 0)
(0.704656 -0.0195143 0)
(0.0146912 3.0004 9.34201e-19)
(0.0115077 3.00804 0)
(0.00611472 3.00278 0)
(0.0135566 2.99737 1.06115e-23)
(0.00796638 2.95846 -1.38845e-18)
(0.0144894 2.98198 0)
(0.0108468 2.9036 0)
(0.0247708 2.93037 2.13894e-24)
(0.00452753 2.82502 0)
(0.0310721 2.91619 0)
(-0.00533883 2.74588 0)
(0.307702 3.54942 0)
(-0.131703 3.63075 0)
(0.139254 3.24376 -7.16706e-19)
(-0.0128876 2.97985 0)
(-0.0194681 1.99279 0)
(-0.00837073 2.1656 5.81919e-22)
(-0.0104495 1.91698 -1.10455e-20)
(0.401479 0.143965 -3.59162e-19)
(0.312 0.0188127 -3.47528e-19)
(0.375142 0.152801 -1.07997e-18)
(0.279954 0.0419347 -7.10035e-19)
(0.225003 0.967912 0)
(0.269537 1.30797 -3.61925e-19)
(0.363199 1.24011 6.03452e-19)
(0.987467 0.00855708 0)
(0.941913 0.00583548 0)
(1.0003 0.000578555 0)
(1.00286 0.00930639 0)
(1.00302 0.00846224 -2.77871e-18)
(0.991912 0.0096993 2.09839e-18)
(-0.00541541 0.805087 0)
(-0.00544926 0.535351 0)
(-0.030061 0.984301 0)
(-0.0157082 0.82828 0)
(0.000605058 0.525341 0)
(0.0612411 0.152976 2.29871e-19)
(0.123458 0.127855 0)
(0.993543 -0.00837841 0)
(0.954433 -0.0065236 0)
(0.75914 0.0466369 0)
(0.694657 0.0572611 0)
(0.664235 -0.0316035 0)
(0.964993 -0.00800846 0)
(0.609948 0.0764181 0)
(0.444454 -0.0110952 1.55016e-18)
(-0.0367277 2.86346 6.95637e-19)
(0.0415245 2.91001 0)
(0.0541338 2.88533 0)
(-0.00410403 2.69984 0)
(-0.013313 2.98504 8.82129e-19)
(-0.0179667 2.89497 0)
(-0.0154745 2.98805 -2.73198e-18)
(-0.0132901 2.92516 9.34937e-19)
(-0.00645959 1.34371 0)
(0.0136472 1.37553 0)
(-0.00807689 2.13413 3.77372e-22)
(-0.0071086 2.09018 0)
(-0.0204677 1.89609 0)
(0.938212 -0.00756564 0)
(0.856796 -0.00982933 0)
(0.863345 0.00605855 0)
(0.949353 -0.00794536 0)
(0.883793 -0.00813733 0)
(0.517027 1.13162 -2.3309e-19)
(0.566272 1.18275 0)
(0.369146 0.882953 3.43331e-20)
(0.31133 0.741857 0)
(0.901454 1.04787 -1.4535e-19)
(1.01496 0.854325 2.912e-19)
(0.355511 1.35722 0)
(0.521205 1.32145 0)
(0.541843 1.27104 0)
(0.117663 0.183393 -3.03183e-19)
(0.298369 0.175182 0)
(0.265984 0.0817955 2.00606e-19)
(0.987239 0.910192 0)
(1.05973 0.764974 0)
(1.08359 0.705922 -2.25142e-19)
(1.11919 0.61143 0)
(1.17139 0.39861 5.57861e-20)
(0.957609 -0.00879515 0)
(0.962427 -0.0100889 0)
(0.901594 -0.00794309 0)
(0.984181 -0.00916564 0)
(0.974666 -0.00936701 0)
(0.937087 -0.00636674 0)
(1.00019 0.00233589 0)
(1.0009 0.00141038 0)
(0.99991 0.000852265 0)
(0.0350163 2.06787 4.43448e-19)
(0.120027 1.75876 0)
(0.0165713 2.1825 6.89095e-19)
(0.049788 1.8702 -5.80432e-19)
(0.102725 1.17019 -2.50924e-19)
(0.0448908 1.05598 0)
(0.143648 1.01199 0)
(0.00723318 0.891983 0)
(0.0141395 0.671198 0)
(-0.00175323 2.23611 -1.10664e-21)
(0.0208495 2.00801 0)
(-0.00221946 2.23909 -4.76091e-20)
(0.0130492 2.01339 8.20929e-20)
(0.00506937 0.863729 0)
(0.00263558 0.844948 0)
(0.00729843 0.637796 0)
(0.00748247 0.80663 0)
(0.00460457 0.572404 0)
(0.936602 0.00938311 0)
(0.847561 -0.0151107 0)
(0.926303 7.10829e-05 0)
(0.841098 -0.0129303 0)
(0.811996 0.00029591 0)
(0.900644 0.020607 0)
(0.876119 0.025219 0)
(0.788872 -0.00240829 0)
(0.00567813 3.06481 -8.73951e-21)
(0.0165524 3.05773 0)
(0.0146118 2.96905 0)
(0.00864191 2.87628 0)
(0.924349 3.96498 0)
(1.23868 3.29797 9.29917e-19)
(0.0697212 3.0721 0)
(-0.0289237 2.90405 0)
(-0.00382993 1.391 0)
(-0.0203837 1.69919 0)
(-0.00776323 1.5314 0)
(-0.0282034 2.56779 -9.34445e-21)
(-0.0109712 2.25604 0)
(-0.0177772 2.40418 0)
(0.00448123 1.94151 2.17996e-21)
(-0.00425754 2.2381 7.85085e-21)
(-0.00624133 2.19871 1.11164e-20)
(-0.00356554 1.9297 0)
(0.438951 0.125516 5.44506e-19)
(0.353721 0.0102848 -5.34538e-19)
(0.260037 1.58004 0)
(0.27337 0.742012 -3.17143e-19)
(0.177145 1.66594 -1.06123e-18)
(0.226827 1.20803 1.06372e-18)
(0.902156 0.00644443 0)
(0.967467 0.0110819 0)
(0.974593 0.0107864 0)
(0.923393 0.00645087 0)
(-0.00175468 0.802288 0)
(-0.00405872 0.800389 0)
(0.00685462 0.547188 0)
(0.200284 0.167567 6.46797e-19)
(0.167005 0.153375 -7.65023e-19)
(0.166697 0.117496 0)
(1.09017 0.0839335 2.83272e-20)
(1.07253 0.0381133 0)
(1.00706 0.0389208 0)
(0.902816 -0.00658653 0)
(0.480059 0.107164 0)
(0.530628 0.0876997 -2.47866e-18)
(0.395262 0.00640768 9.28124e-19)
(0.00888823 2.98096 7.4451e-19)
(-0.0328752 2.86549 4.63099e-20)
(0.00364582 3.05029 -1.84853e-20)
(0.0201342 3.04333 6.56788e-19)
(-0.0149778 2.99656 3.06856e-20)
(-0.0129663 2.94944 -1.23386e-22)
(-0.0172899 3.01194 -5.6689e-19)
(0.0149071 3.02373 4.10848e-19)
(0.00741719 3.03694 -6.5158e-19)
(0.933129 -0.00153836 0)
(0.938895 -0.00346874 0)
(0.844968 -0.00936167 0)
(0.956648 0.0118201 0)
(0.942894 0.0130963 0)
(0.881704 0.00598956 0)
(0.917641 0.0167082 0)
(0.926285 0.0148149 0)
(0.838562 0.00317184 0)
(0.71996 1.4095 3.65553e-20)
(0.753285 1.51835 0)
(0.186678 0.324917 7.20919e-20)
(0.222366 0.663724 5.822e-19)
(0.261653 0.721934 -3.38994e-19)
(0.265938 0.533117 6.73847e-19)
(0.339371 0.79799 1.5942e-18)
(0.136571 0.224833 3.75018e-19)
(0.348384 0.167431 7.53068e-19)
(0.325328 0.174186 1.96519e-19)
(0.273417 0.0618758 3.74097e-19)
(1.16071 0.456178 4.35717e-20)
(1.17868 0.252637 3.85765e-20)
(0.00872981 2.22981 2.69551e-19)
(0.0440135 1.93739 0)
(0.966779 0.0286104 0)
(0.940665 0.0133652 0)
(0.865633 -0.0184667 0)
(0.0114093 3.07453 0)
(0.0198774 2.94417 1.20653e-18)
(0.0164206 2.95643 0)
(0.00627818 2.85053 -1.19698e-18)
(0.00626855 3.09156 2.93266e-19)
(0.00699931 3.08211 0)
(0.78626 1.82056 -1.59062e-19)
(1.24653 2.49768 4.04867e-19)
(0.76832 1.96008 -1.23431e-18)
(0.0199647 2.98165 -6.43284e-19)
(0.0353367 3.00071 0)
(-0.0343205 2.87788 0)
(-0.0032765 2.21869 -1.30765e-20)
(-0.00298933 2.24116 -2.33294e-20)
(0.00676969 1.97505 -7.96025e-21)
(0.276942 1.38777 1.03157e-18)
(0.232002 0.530831 -7.07581e-19)
(0.0635044 1.99278 7.78474e-19)
(0.135914 1.88062 -9.24812e-19)
(0.179893 1.50021 9.2793e-20)
(0.00467215 3.1189 -1.63664e-18)
(0.0107486 3.11935 1.78776e-18)
(-0.00914913 2.98076 8.14405e-19)
(-0.00448597 2.97739 -7.7054e-19)
(-0.0213132 2.88063 -8.29462e-19)
(0.00843498 3.09985 -2.18144e-18)
(0.00186483 3.10492 2.1936e-18)
(0.276481 0.688628 0)
(0.242324 0.67851 -1.20224e-18)
(0.0965976 0.225009 5.33314e-19)
(0.353283 0.92377 1.11358e-18)
(0.191789 0.269623 -1.71688e-18)
(1.17345 0.171783 6.94344e-20)
(1.1792 0.306411 0)
(1.162 0.12044 -1.46397e-20)
(0.000531072 2.24752 -1.75717e-21)
(0.00420119 2.23964 0)
(0.028616 1.97317 0)
(0.340149 1.29631 -3.71059e-19)
(0.37114 1.13528 -8.03111e-19)
(0.205876 0.368934 1.43025e-18)
(1.00587 -0.010852 0)
(1.00766 -0.0076462 5.12766e-19)
(-0.00591495 1.3203 0)
(-0.0238768 1.30413 0)
(1.00222 0.00350578 1.80696e-21)
(1.00366 0.00945359 1.04665e-18)
(-0.0193939 2.55119 1.18385e-20)
(-0.0242831 2.59331 0)
(0.0349109 3.17795 4.29645e-19)
(0.394215 3.48889 0)
(1.16579 0.651351 -6.58929e-20)
(1.0129 0.0131004 -2.14722e-21)
(1.02127 -0.010356 0)
(1.00171 0.000119045 7.5774e-23)
(0.103052 1.3598 0)
(0.144428 2.57487 0)
(0.0244753 1.30043 0)
(0.000863585 2.62362 4.72225e-20)
(-0.0200745 2.58153 1.86809e-20)
(1.00069 0.029072 2.49217e-21)
(1.0622 0.00395593 0)
(1.09566 0.0237679 0)
(-0.0214892 1.73835 0)
(-0.0183784 2.58994 0)
(0.00204556 1.30001 0)
(0.29755 1.47214 -1.59596e-19)
(1.01127 -0.00964263 0)
(1.00939 -0.0149232 0)
(1.00237 0.000736391 6.55292e-19)
(1.00547 -0.00481926 -7.70114e-19)
(1.00118 -0.000995521 0)
(-0.00394873 1.4582 0)
(-0.00421129 1.36523 0)
(0.000904526 1.4133 0)
(0.000566492 1.2877 0)
(-0.00844925 1.26505 0)
(-0.0024115 1.24594 0)
(1.03472 -0.00628839 0)
(1.02024 0.0156791 -8.88131e-22)
(0.80687 1.26498 2.47992e-19)
(1.00223 0.000310609 -6.52621e-19)
(1.00407 0.00524827 7.64068e-19)
(1.00117 0.00206526 0)
(1.01278 0.0103174 6.49584e-19)
(1.008 0.00829355 -7.8694e-19)
(1.00858 0.0146857 0)
(-0.0239603 2.61984 0)
(-0.0252832 2.60023 -1.35344e-20)
(-0.0231753 2.61392 9.81584e-21)
(1.23065 0.262046 6.11446e-19)
(1.15758 0.0844261 0)
(0.0417985 3.07749 -9.48857e-19)
(0.0649514 2.8546 -6.902e-20)
(0.140586 3.1923 1.45363e-18)
(0.135457 3.22091 -2.11518e-19)
(0.134357 3.23274 0)
(0.0192465 3.13755 2.45652e-19)
(0.0754143 3.15992 9.36068e-19)
(0.0679271 3.18577 -4.62811e-19)
(0.0222848 3.12943 0)
(0.618632 0.279614 0)
(0.548422 0.324549 0)
(1.13463 0.687186 1.57008e-19)
(1.13003 0.808518 -1.49235e-19)
(1.19241 0.575515 0)
(1.22131 0.511482 0)
(1.01612 0.0133271 -1.21096e-18)
(1.01499 0.0142586 1.52002e-18)
(1.02526 -0.00990221 0)
(1.02333 -0.011911 0)
(1.00643 0.00258355 0)
(1.01041 0.00370131 0)
(1.00457 0.00184228 0)
(1.0098 0.00620413 0)
(1.00783 0.00595218 0)
(1.00451 0.00466745 0)
(0.0915584 1.35712 0)
(0.0855532 1.32754 0)
(0.122617 1.39303 0)
(0.137331 1.40367 0)
(0.144705 2.59958 0)
(0.18516 2.6677 -4.36292e-19)
(0.100145 2.65541 0)
(0.0852492 2.65786 2.10979e-19)
(0.0388058 2.67881 -1.74126e-19)
(0.0191537 1.31569 0)
(0.0194917 1.2462 0)
(0.0174633 1.32608 0)
(0.0310825 1.26846 0)
(0.0031424 1.98079 -1.44805e-20)
(-0.0185557 2.60947 -4.57834e-22)
(-0.00734576 2.66517 3.67529e-20)
(-0.0169332 2.68512 0)
(-0.0213163 2.61597 -4.24136e-20)
(-0.021334 2.61094 -9.64124e-21)
(0.0125251 1.97958 1.35201e-20)
(-0.00531872 2.3954 6.14326e-22)
(-0.0119446 2.41768 -4.16867e-20)
(1.01075 0.0369564 1.23526e-18)
(1.00606 0.0162066 -1.52577e-18)
(1.00196 0.0439938 -1.23622e-18)
(0.979005 0.0221235 1.57702e-18)
(1.06342 0.00775375 0)
(1.04873 -0.00857445 0)
(1.09278 0.0338065 0)
(1.0732 0.0120678 0)
(1.07098 -0.000115481 0)
(1.13817 0.0809206 0)
(1.10959 0.0431308 0)
(1.11266 0.0311346 0)
(-0.0232265 2.44095 2.06148e-22)
(-0.00759451 2.01604 0)
(-0.0126402 2.22266 0)
(-0.0195691 2.61026 -3.85566e-21)
(-0.0171885 2.61855 -1.48192e-22)
(0.00893543 1.5659 -2.18912e-20)
(0.00263287 1.49501 2.22612e-20)
(-0.0046323 1.38428 0)
(-0.00741337 1.39009 0)
(-0.00890036 1.38419 0)
(0.00509722 1.30254 0)
(0.0140398 1.23766 0)
(0.377912 1.48821 2.58039e-19)
(0.418563 1.49097 1.39668e-19)
(0.597826 2.45007 -2.41219e-19)
(0.400768 2.5448 7.11666e-19)
(0.350979 2.06503 7.35972e-20)
(1.021 -0.00818315 0)
(1.01547 -0.00978467 0)
(1.01489 -0.015512 0)
(1.00744 -0.00114927 0)
(1.00494 -0.000934322 0)
(1.00776 -0.00474547 0)
(1.00924 -0.00369001 0)
(1.01418 -0.00445138 0)
(1.02098 0.016156 1.18574e-18)
(1.0179 0.0156625 -1.51873e-18)
(1.02138 0.0181334 -1.19455e-18)
(1.0192 0.0168559 1.49266e-18)
(0.770151 1.31515 0)
(0.706322 1.36618 2.32483e-19)
(0.883535 1.21269 8.57088e-20)
(0.928465 1.15985 -1.14002e-19)
(1.15798 2.60666 2.92292e-19)
(0.791961 0.116215 6.04809e-19)
(1.16065 0.106205 0)
(1.20756 0.190541 -4.91405e-19)
(1.19292 0.152317 -2.08153e-20)
(1.00503 0.1516 0)
(0.133415 2.95976 5.56777e-19)
(0.110387 2.86556 -1.20501e-18)
(0.0200583 2.37499 8.09913e-19)
(0.0903835 -0.0635258 -3.59187e-19)
(0.339255 3.4183 -2.05999e-19)
(0.193607 3.31128 0)
(0.236935 3.35282 2.6828e-19)
(0.243454 3.03287 -1.84086e-18)
(0.337912 3.19198 0)
(0.00732231 3.12068 4.77889e-20)
(0.0176139 3.12949 -5.60344e-19)
(0.0158223 3.12561 8.24742e-19)
(0.0353936 3.1395 0)
(0.0334973 3.15056 0)
(1.21548 2.60522 0)
(0.544208 0.824519 -5.36884e-19)
(1.05415 0.981971 3.78769e-21)
(0.988551 1.06567 0)
(0.842663 0.968156 -1.16037e-19)
(1.07973 0.880676 2.84937e-20)
(0.355224 0.371662 -9.2414e-19)
(0.673189 0.311852 -2.04319e-20)
(0.620536 0.220065 4.27524e-19)
(0.571533 0.358657 3.15462e-20)
(0.480483 0.321234 -1.26966e-18)
(0.641776 0.32284 0)
(0.700489 0.415136 7.26106e-19)
(0.709483 0.417185 0)
(0.605395 0.349731 0)
(0.558584 0.267255 0)
(0.809985 0.613958 4.28454e-19)
(1.23078 0.284366 -5.16427e-19)
(1.22898 0.422 0)
(1.23895 0.361856 0)
(0.726143 0.18881 6.34557e-19)
(0.856434 0.538432 -3.93918e-19)
(0.75261 0.508768 6.98385e-19)
(0.951485 0.431968 -7.67165e-19)
(1.01954 0.0147857 8.14515e-19)
(1.01774 0.0142638 -8.19427e-19)
(1.01592 0.0154766 0)
(1.03618 -0.00583014 0)
(1.02971 -0.00850831 -7.67782e-19)
(1.02776 -0.0120429 7.60178e-19)
(1.02497 0.0100759 0)
(1.02356 0.0137315 0)
(1.01141 0.00409419 0)
(1.01425 0.00905471 0)
(1.01514 0.00403044 0)
(1.01424 0.00280021 0)
(0.0627132 1.34255 0)
(0.0648405 1.29751 0)
(0.14363 1.36743 -5.5339e-21)
(0.271032 1.46912 8.19785e-20)
(0.164273 1.44043 1.70226e-19)
(0.196256 1.44746 -2.7902e-19)
(0.164692 1.39219 0)
(0.130275 1.59477 -8.46797e-20)
(0.114202 1.56847 0)
(0.34853 2.01725 -1.06994e-19)
(0.344775 2.34964 6.29414e-19)
(0.18699 1.45229 7.38399e-20)
(0.261433 1.38221 1.85669e-20)
(0.196137 1.3718 -1.50255e-20)
(0.271853 1.32487 -1.10912e-19)
(0.239519 1.57757 0)
(0.262017 1.61696 1.18718e-19)
(0.0298287 2.2643 -3.70762e-20)
(0.0431383 2.66826 0)
(0.0646086 2.40158 1.50956e-19)
(0.0608392 2.42182 0)
(0.0691957 2.67096 -2.33682e-19)
(0.0491979 2.69847 0)
(0.027849 1.41642 9.36865e-21)
(0.0344142 1.46919 0)
(0.0286053 1.38644 0)
(0.0244419 1.38864 -1.05705e-20)
(0.00114711 2.65126 -1.70726e-20)
(0.0296321 2.69649 1.9862e-19)
(0.0112667 2.72116 1.40115e-21)
(0.00463789 1.82756 1.29269e-20)
(-0.00245124 1.67915 5.00913e-21)
(0.0122127 1.2909 0)
(0.0199785 1.22029 0)
(0.0462237 1.57774 1.09614e-21)
(0.0288811 1.45208 -5.4513e-21)
(0.0364096 1.51675 6.59876e-21)
(0.0387476 1.60162 0)
(-0.0256826 2.27216 6.60413e-20)
(-0.0266422 2.55574 -2.74107e-20)
(-0.0132858 2.45022 7.28767e-23)
(0.000451781 1.844 -1.56697e-20)
(-0.0224363 2.50021 -5.19069e-21)
(-0.0188062 2.44199 2.88135e-20)
(1.01928 0.0209653 -8.0939e-19)
(1.01532 0.0267015 8.14285e-19)
(1.01437 0.0161725 0)
(1.01231 0.0707305 1.14359e-18)
(0.989952 0.0594667 -1.28635e-18)
(0.947546 0.0441621 1.44085e-18)
(1.01361 0.10873 -1.52468e-19)
(1.04248 -0.00587634 0)
(1.05068 -0.00165137 7.32823e-19)
(1.03877 -0.00998255 -7.34377e-19)
(1.07042 0.0415117 -4.36447e-20)
(1.06411 0.0229098 3.76165e-19)
(1.06306 0.0548771 0)
(1.05329 0.048408 -1.352e-19)
(1.0324 0.0415411 0)
(1.02578 0.038057 0)
(1.02782 0.0130673 0)
(1.02412 0.0158377 0)
(1.03997 0.0317547 2.78396e-19)
(1.03887 0.0263766 -6.15094e-19)
(1.05066 0.0332243 -2.95225e-19)
(1.04806 0.0332285 -3.24979e-19)
(1.07027 0.0628021 6.35132e-19)
(1.09537 0.050959 0)
(1.10348 0.0945344 0)
(-0.0200489 2.27791 4.26604e-20)
(-0.0174607 2.01878 -2.89172e-22)
(-0.0136255 2.02552 0)
(-0.0248402 2.45223 -4.24483e-20)
(-0.0196488 2.40884 1.00599e-22)
(-0.03055 2.48204 3.7466e-21)
(-0.0190516 2.62484 8.02833e-21)
(-0.0198269 2.56727 -1.20994e-21)
(-0.018009 2.51677 2.97814e-21)
(-0.0145731 2.62052 1.20078e-22)
(-0.0192704 2.62157 1.24975e-21)
(0.00280525 1.47981 -2.93901e-22)
(0.0103381 1.61489 -1.78936e-20)
(0.363699 1.43353 -1.07707e-19)
(0.364607 1.3712 4.19639e-20)
(0.649231 1.41585 -2.24942e-19)
(0.517579 1.48282 -1.37095e-19)
(0.573779 1.45002 0)
(0.593528 2.42681 2.09722e-19)
(0.66128 2.42018 3.39779e-19)
(0.410751 2.51757 8.57939e-20)
(0.402705 2.54411 -6.26179e-19)
(0.5113 2.48789 6.19169e-19)
(0.553037 2.46387 0)
(0.489022 2.51961 -5.65555e-19)
(0.247663 2.59272 1.17213e-18)
(0.353846 2.56617 -7.99346e-20)
(0.283818 2.65416 -1.61446e-18)
(0.94583 2.38114 7.30815e-19)
(0.837505 2.38533 0)
(1.01104 0.00046298 2.65829e-20)
(1.01528 -0.00545951 -2.15733e-20)
(1.01763 -0.00359316 -3.94069e-19)
(1.01498 -0.000934579 3.96117e-19)
(1.0124 0.00112921 0)
(0.637968 1.28741 0)
(0.663029 1.18403 0)
(0.773287 1.09634 0)
(0.655594 1.14799 0)
(1.18728 2.62084 5.89487e-20)
(1.07602 2.36748 0)
(0.838912 2.18011 3.85276e-21)
(0.826123 2.44465 0)
(0.923276 2.53623 -4.25748e-19)
(0.958887 2.49192 2.83323e-19)
(0.811817 0.174541 0)
(0.77044 0.148241 1.64364e-19)
(0.918586 0.145544 9.57498e-19)
(0.834094 0.147838 -3.58129e-19)
(0.797711 0.0840426 -1.10477e-18)
(1.07865 0.234845 -9.17348e-19)
(0.992905 0.292771 -1.60569e-20)
(0.928294 0.294137 8.80197e-19)
(1.0053 0.223764 7.35964e-19)
(0.951663 0.190647 -1.27103e-18)
(0.916331 0.192185 1.58843e-19)
(0.954944 0.256406 -3.38552e-19)
(0.93103 0.218197 0)
(0.992547 0.185022 6.27271e-19)
(1.04586 0.187488 0)
(1.0416 0.214308 0)
(1.1049 0.11775 2.95362e-19)
(1.06967 0.175691 -1.43896e-20)
(1.0732 0.235927 -1.61143e-19)
(1.10227 0.202287 0)
(1.0228 0.0456781 6.28072e-19)
(1.04004 0.058392 7.8316e-19)
(1.03383 0.0442542 -6.23036e-19)
(1.04294 0.0651109 -5.24817e-19)
(1.01893 0.0729354 -8.04076e-19)
(0.988084 0.158389 0)
(0.998894 0.105131 0)
(0.965468 0.0669403 -5.13451e-19)
(0.912023 0.0902088 2.01665e-19)
(1.0388 0.104217 7.25953e-19)
(1.06861 0.120585 -8.52419e-19)
(1.07541 0.153684 7.61649e-19)
(1.02888 0.143573 0)
(1.0746 0.108875 0)
(1.05485 0.0904097 -3.4879e-19)
(1.04433 0.0949969 -5.94198e-19)
(0.5831 1.07452 1.41501e-19)
(0.611559 1.4014 -4.30571e-20)
(1.15751 2.73649 -2.29567e-19)
(1.22373 3.07808 2.01011e-21)
(1.24965 2.71961 -1.3455e-19)
(1.27917 2.70323 -2.85318e-20)
(1.20734 2.34408 -1.0474e-20)
(1.21121 2.98218 -9.47359e-20)
(1.23083 2.94754 2.36808e-19)
(1.21439 3.23149 -1.43015e-19)
(1.37482 2.96334 1.97733e-19)
(1.36471 2.8816 0)
(0.552659 0.832503 -5.0476e-20)
(0.129131 1.2445 5.79521e-19)
(0.539539 0.418741 5.98e-19)
(0.37842 0.167522 6.58422e-19)
(0.512448 0.35773 7.17374e-19)
(0.545292 0.458721 -1.15548e-18)
(0.547426 0.459372 9.44195e-19)
(0.489292 0.372367 -3.61916e-19)
(0.398756 0.304198 8.19896e-19)
(0.732418 0.254691 -3.64023e-19)
(0.692711 0.278974 0)
(0.664941 0.197385 8.35486e-21)
(0.734653 0.505214 3.81923e-19)
(0.706707 0.473756 -1.39251e-18)
(0.61533 0.457333 1.41569e-20)
(0.621571 0.445255 0)
(0.68313 0.722328 4.05644e-19)
(0.844197 0.772147 4.10596e-19)
(0.76694 0.855003 -4.80016e-19)
(0.889582 0.808275 -1.62372e-19)
(0.919023 0.851558 -4.01988e-20)
(0.926601 0.851409 4.11682e-20)
(0.855542 0.647309 -7.10118e-19)
(0.937426 0.702956 1.50846e-19)
(0.99437 0.717577 0)
(0.985532 0.694659 -2.05686e-19)
(1.0226 0.332272 2.21118e-19)
(1.14416 0.299629 3.02128e-19)
(1.06535 0.271613 3.75284e-19)
(1.00929 0.363798 -4.45451e-19)
(1.05923 0.429167 0)
(1.11742 0.41486 0)
(0.918029 0.365631 5.27135e-21)
(0.84124 0.297951 0)
(0.881205 0.293307 4.148e-19)
(0.908704 0.300979 -5.43438e-21)
(0.945484 0.434517 2.13839e-18)
(0.904859 0.491892 5.52517e-19)
(0.907548 0.45724 -5.87809e-19)
(0.827029 0.441576 6.29453e-19)
(0.809917 0.434021 3.7794e-19)
(0.779267 0.415349 -3.71576e-19)
(1.02723 -0.000397958 6.56474e-19)
(1.01999 -8.4127e-05 0)
(1.01849 0.000852132 4.27988e-19)
(1.0217 -0.00170965 -9.69527e-19)
(1.0223 0.00429299 4.7092e-19)
(1.02038 0.0112545 -9.86268e-19)
(1.02132 0.0106425 0)
(1.02062 0.0108927 -2.05511e-19)
(1.01598 0.00770886 5.15571e-19)
(1.01669 0.0104695 -2.57248e-19)
(1.01739 0.00981712 1.89459e-19)
(0.0288921 1.31803 0)
(0.0332224 1.35974 0)
(0.0436409 1.32034 0)
(0.0435455 1.27554 0)
(0.0704348 1.38272 -1.38633e-20)
(0.0776185 1.353 1.12624e-20)
(0.110673 1.51666 -2.18004e-20)
(0.0934223 1.364 2.03793e-21)
(0.0333153 1.4569 -1.54642e-20)
(0.0371113 1.44964 1.21428e-20)
(0.0619431 1.36739 -8.02095e-21)
(0.0541204 1.3693 1.94744e-20)
(0.0472085 1.34505 2.70437e-21)
(0.0386318 1.36819 -5.87241e-22)
(0.105757 2.37285 -1.66853e-19)
(0.0947596 2.4196 0)
(0.169207 2.04834 1.13184e-19)
(0.108195 1.70899 4.61549e-20)
(0.230223 2.04418 -9.29378e-20)
(0.203525 2.4375 0)
(0.264366 2.38831 -6.12104e-19)
(0.302996 2.38624 4.33794e-19)
(0.229274 2.00449 -2.58569e-19)
(0.152701 2.16511 1.72674e-19)
(0.142471 2.27651 0)
(0.0172484 1.87579 -2.56661e-20)
(-0.000861889 2.39404 -7.27979e-20)
(0.0051909 2.14909 0)
(0.0107558 2.45691 -1.34914e-20)
(0.0262777 2.30183 2.43302e-20)
(0.0169068 1.39796 -2.57125e-21)
(0.0178968 1.38458 4.76193e-20)
(0.0189168 1.38882 -1.72437e-20)
(0.0217272 1.38884 -1.13055e-20)
(0.0273603 1.42035 0)
(0.0160603 1.37081 0)
(0.0104819 1.29144 -2.39726e-20)
(0.0125998 1.36164 6.01169e-21)
(0.0155706 1.36248 0)
(0.0131598 1.28369 -1.76005e-20)
(0.0215384 1.21711 3.68857e-20)
(1.04051 0.0114685 0)
(1.04649 0.00774913 -6.87617e-20)
(1.03854 0.0213596 -4.95922e-19)
(1.04811 0.0202427 0)
(1.05204 0.0201107 0)
(1.03627 0.0116067 -6.7042e-21)
(1.03096 0.0114468 7.96651e-19)
(1.03174 0.0163536 9.6562e-19)
(1.02571 0.0202458 0)
(1.02282 0.0206429 0)
(1.0351 0.025131 4.94439e-19)
(1.02595 0.0263521 0)
(1.02418 0.0263705 0)
(-0.0136441 2.01763 0)
(0.00945098 1.6455 -3.61791e-21)
(0.0014114 1.75255 -2.39221e-20)
(0.00561946 1.37183 0)
(-0.000152912 1.54357 -7.02301e-21)
(0.00146748 1.44953 6.06174e-21)
(0.00223043 1.38187 0)
(0.391541 1.66577 0)
(0.367851 1.30031 -7.96162e-20)
(0.302628 1.34269 0)
(0.421409 1.30136 1.98094e-20)
(0.467271 1.45926 0)
(0.448353 1.40454 1.80854e-20)
(1.03645 2.68495 -1.55152e-20)
(0.966949 2.41083 -9.18716e-19)
(0.918506 2.19453 1.04375e-18)
(0.851145 2.37747 2.43258e-19)
(0.848204 2.49595 0)
(0.918121 2.49184 0)
(0.929146 2.37481 0)
(0.907965 2.36259 -9.47015e-19)
(0.689442 2.46278 -3.98386e-19)
(0.801679 2.45266 -9.8361e-20)
(0.812451 2.42641 7.48822e-20)
(0.695747 2.39431 0)
(0.800517 2.39001 0)
(0.759032 2.40268 -3.69894e-19)
(0.769337 2.48611 0)
(0.623758 1.09913 0)
(0.486363 0.920909 -5.08902e-19)
(0.560899 0.956848 -3.23508e-20)
(0.524709 1.05317 0)
(0.525455 1.00049 7.63808e-19)
(0.789727 0.879734 -1.34829e-19)
(0.797841 1.01719 0)
(0.772163 0.979289 1.95093e-19)
(0.657555 1.03591 0)
(0.661503 0.94067 0)
(1.16566 2.75902 -2.34175e-19)
(1.14339 2.82225 -9.92984e-20)
(0.932642 2.34061 1.03657e-19)
(0.900271 2.31984 -8.43935e-20)
(1.13084 2.73257 0)
(1.08426 2.70253 1.01584e-19)
(1.09096 2.48628 -3.19656e-19)
(0.985608 2.23678 -3.07416e-20)
(0.498645 1.35026 0)
(0.513216 1.07597 -1.24795e-19)
(0.571419 1.17069 0)
(0.857793 0.23406 0)
(0.78049 0.188741 0)
(0.717488 0.148872 0)
(0.850981 0.235929 -6.52895e-19)
(0.754591 0.225269 3.80894e-19)
(0.928181 0.0764901 -4.16513e-19)
(0.943303 0.123091 0)
(0.923482 0.136316 1.7868e-19)
(0.860848 0.111123 7.17246e-19)
(0.828056 0.0686223 -4.48852e-19)
(1.16057 3.35674 -7.19428e-19)
(1.20891 3.27604 0)
(1.15845 3.38512 -1.48476e-18)
(0.646262 3.546 1.26105e-18)
(0.870246 3.11376 6.90204e-20)
(0.521032 0.835275 6.09528e-19)
(0.432795 0.832546 0)
(0.327992 0.456424 -1.53364e-19)
(0.457048 0.669002 8.71169e-19)
(0.541814 0.422997 -2.0749e-19)
(0.511236 0.489696 2.39617e-19)
(0.665365 0.517381 5.15395e-19)
(0.697939 0.546172 0)
(0.651175 0.595625 0)
(0.608155 0.537887 0)
(0.997325 0.604293 9.78962e-20)
(0.911386 0.540914 -5.37518e-19)
(0.937704 0.574173 4.07636e-19)
(0.969518 0.512276 -4.15389e-19)
(1.0775 0.485299 0)
(1.0847 0.574728 -1.03093e-19)
(0.849745 0.39457 -8.62496e-19)
(0.852492 0.383558 -1.06543e-18)
(0.794288 0.383102 6.72725e-19)
(0.794897 0.355252 -6.87483e-19)
(0.843894 0.317021 -5.37915e-19)
(0.793413 0.31529 6.60098e-19)
(1.02667 0.00576748 -5.01833e-19)
(1.02639 0.00599233 1.02169e-18)
(1.0293 -3.79874e-05 6.36359e-19)
(1.03347 0.00086562 -7.66398e-19)
(1.03357 0.00875793 0)
(1.03004 0.00943238 -1.24733e-18)
(0.0615214 1.64408 2.52175e-20)
(0.0442817 1.57832 0)
(0.0840741 1.69447 1.5204e-19)
(0.0946466 1.6761 -1.34398e-19)
(0.0871772 1.53161 4.08844e-20)
(0.0848428 1.51781 0)
(0.0134038 1.67494 0)
(0.000256559 1.48085 2.99854e-22)
(0.00474973 1.42601 -2.69652e-22)
(0.000185545 1.53907 6.73938e-21)
(0.0049358 1.87568 -6.48085e-22)
(-0.00530406 1.92927 4.20107e-21)
(0.498423 1.37079 -2.79108e-19)
(0.49177 1.37368 3.06324e-19)
(0.447718 1.2976 -3.63921e-20)
(0.436655 1.29317 8.11498e-21)
(0.629453 1.3026 0)
(0.545896 1.38999 9.60349e-20)
(0.561105 1.39759 -9.35098e-20)
(0.459117 1.28325 3.53609e-20)
(0.514856 1.2388 0)
(0.567253 1.20586 0)
(0.656209 2.42197 5.85359e-19)
(0.67081 2.46115 1.27507e-18)
(0.716039 2.47219 -8.78291e-19)
(0.613359 2.44694 -2.04571e-19)
(0.560961 2.53862 2.8636e-19)
(0.509779 2.512 -7.63514e-19)
(0.977788 2.38067 -5.84042e-19)
(1.0137 2.39371 0)
(0.924966 2.17262 -6.7536e-19)
(1.05459 2.68191 0)
(1.05685 2.6687 0)
(0.609028 2.26846 -1.20779e-19)
(1.0417 3.16004 1.32944e-19)
(0.912601 3.03011 -3.64531e-20)
(0.27691 0.890968 0)
(0.312007 0.745778 -3.21318e-19)
(0.476091 0.703383 -3.23682e-19)
(0.385976 2.01448 0)
(0.465767 2.78297 -4.80474e-20)
(0.420886 2.54641 0)
(0.701049 0.67013 -8.5912e-19)
(0.783957 0.676597 1.16453e-18)
(0.80413 0.619534 -1.152e-18)
(0.679744 0.632583 -1.10877e-19)
(0.734762 0.588164 -4.57817e-19)
(1.00452 2.76196 -1.01096e-19)
(1.04308 2.81967 -1.66467e-19)
(0.638098 2.13985 6.78083e-19)
(0.594547 1.70887 -4.83355e-19)
(0.699425 1.90265 -4.0809e-19)
(0.990496 2.44549 -1.1395e-19)
(0.996031 2.43798 2.99358e-19)
(0.65858 1.83872 2.82951e-20)
(0.450855 1.32999 1.46225e-19)
)
;

boundaryField
{
    wall-4
    {
        type            noSlip;
    }
    velocity-inlet-5
    {
        type            fixedValue;
        value           uniform (1 0 0);
    }
    velocity-inlet-6
    {
        type            fixedValue;
        value           uniform (0 3 0);
    }
    pressure-outlet-7
    {
        type            zeroGradient;
    }
    wall-8
    {
        type            noSlip;
    }
    frontAndBackPlanes
    {
        type            empty;
    }
}


// ************************************************************************* //
