/*--------------------------------*- C++ -*----------------------------------*\
  =========                 |
  \\      /  F ield         | OpenFOAM: The Open Source CFD Toolbox
   \\    /   O peration     | Website:  https://openfoam.org
    \\  /    A nd           | Version:  9
     \\/     M anipulation  |
\*---------------------------------------------------------------------------*/
FoamFile
{
    format      ascii;
    class       volScalarField;
    location    "31";
    object      p;
}
// * * * * * * * * * * * * * * * * * * * * * * * * * * * * * * * * * * * * * //

dimensions      [0 2 -2 0 0 0 0];

internalField   nonuniform List<scalar> 
2200
(
1.12433
1.10283
1.08692
1.07125
1.05663
1.0441
1.03373
1.0256
1.01985
1.01681
1.01718
1.02088
1.02712
1.03559
1.04621
1.05893
1.07367
1.08951
1.1055
1.12701
1.05676
1.0535
1.05057
1.04645
1.04098
1.0345
1.02787
1.02189
1.01735
1.01487
1.01525
1.01842
1.02348
1.02984
1.03675
1.04343
1.04904
1.05317
1.05607
1.0594
1.01686
1.01708
1.01914
1.02049
1.02087
1.02001
1.01801
1.01528
1.01268
1.0111
1.01154
1.01385
1.01701
1.02016
1.02244
1.02343
1.02315
1.02204
1.02024
1.02
0.994461
0.995914
0.998502
1.00094
1.00336
1.00535
1.00647
1.00666
1.0062
1.00578
1.00627
1.00752
1.00861
1.0089
1.00815
1.00643
1.00423
1.00197
0.99939
0.997965
0.980123
0.982094
0.984907
0.987736
0.990591
0.993395
0.995826
0.997668
0.998837
0.999523
1.00009
1.00039
0.999982
0.998711
0.996742
0.994269
0.99163
0.988881
0.986101
0.984165
0.972826
0.974414
0.976621
0.979164
0.981833
0.984479
0.987031
0.989392
0.991332
0.992714
0.993381
0.99318
0.992167
0.990499
0.988456
0.986208
0.983803
0.981415
0.979292
0.977718
0.969639
0.970662
0.971927
0.973778
0.975892
0.978012
0.980119
0.982286
0.984356
0.986018
0.986818
0.986598
0.985633
0.98429
0.982774
0.981111
0.979325
0.97769
0.97654
0.975522
0.967107
0.967777
0.968417
0.969734
0.971357
0.973036
0.974731
0.976542
0.978427
0.98015
0.981129
0.981173
0.980626
0.979803
0.978844
0.977705
0.976504
0.975464
0.974957
0.974288
0.963988
0.964413
0.96484
0.965898
0.967223
0.968647
0.970141
0.971747
0.973453
0.975154
0.976349
0.976789
0.97673
0.976376
0.975808
0.975073
0.974251
0.973526
0.973246
0.972809
0.960344
0.96062
0.961022
0.961973
0.96317
0.964501
0.965942
0.967478
0.969099
0.970809
0.972274
0.973185
0.973563
0.973567
0.973264
0.972773
0.972172
0.971627
0.971397
0.97111
0.95615
0.956334
0.956735
0.957655
0.958862
0.960284
0.961872
0.963568
0.965335
0.967224
0.969054
0.970418
0.971145
0.971329
0.971127
0.97071
0.970235
0.969789
0.969577
0.969377
0.95141
0.951524
0.951911
0.952816
0.954098
0.955677
0.957547
0.959646
0.961911
0.964305
0.966572
0.968171
0.969001
0.969193
0.969039
0.968728
0.968341
0.967995
0.967819
0.967687
0.946368
0.946417
0.946803
0.947726
0.949037
0.950701
0.952719
0.955106
0.957892
0.960926
0.963686
0.965533
0.966525
0.966988
0.967131
0.967011
0.966773
0.96653
0.966405
0.966333
0.941253
0.941246
0.941646
0.942514
0.943869
0.945557
0.947575
0.950023
0.953055
0.956596
0.960026
0.96261
0.964285
0.965354
0.965935
0.966075
0.966035
0.965945
0.965878
0.965842
0.93615
0.936023
0.936478
0.937322
0.938727
0.940522
0.942681
0.945325
0.948617
0.952654
0.956913
0.960465
0.963014
0.964693
0.965628
0.966169
0.966415
0.966489
0.966474
0.966446
0.930744
0.930735
0.931026
0.931889
0.933515
0.935532
0.938082
0.941284
0.945255
0.950117
0.955335
0.959711
0.962832
0.964953
0.966362
0.967249
0.967725
0.967953
0.968013
0.967985
0.924621
0.924598
0.924959
0.925942
0.927656
0.929937
0.932964
0.936894
0.941846
0.947925
0.954373
0.95969
0.963478
0.966138
0.968047
0.969261
0.969984
0.970383
0.970514
0.97048
0.917366
0.917291
0.917738
0.918864
0.9207
0.923232
0.926685
0.931274
0.937254
0.944761
0.952801
0.959512
0.964412
0.967956
0.970477
0.972156
0.973229
0.973835
0.974048
0.973998
0.908655
0.908572
0.909026
0.910232
0.912316
0.915267
0.919313
0.924771
0.931957
0.941107
0.951076
0.959509
0.965779
0.970385
0.973685
0.976006
0.977556
0.978402
0.978685
0.978603
0.897895
0.897823
0.898376
0.899841
0.902373
0.906028
0.911097
0.917904
0.926812
0.938058
0.950236
0.960492
0.968182
0.973856
0.97801
0.980956
0.982922
0.983979
0.984333
0.984224
0.884801
0.884703
0.885413
0.88726
0.890476
0.895163
0.90163
0.9103
0.921568
0.9355
0.950276
0.962625
0.971851
0.978666
0.983631
0.987167
0.989566
0.990823
0.991234
0.991097
0.868197
0.868134
0.869142
0.871581
0.875785
0.881877
0.890233
0.901367
0.915558
0.932759
0.950655
0.965495
0.976487
0.984678
0.99062
0.99485
0.997673
0.999126
0.999604
0.999438
0.847192
0.84706
0.848414
0.851741
0.857389
0.865576
0.876655
0.890988
0.908813
0.929916
0.951439
0.96915
0.982231
0.99195
0.999048
1.00415
1.00752
1.00923
1.00977
1.00954
0.819555
0.819647
0.821879
0.826662
0.83466
0.846022
0.860831
0.879423
0.901716
0.927362
0.952997
0.973865
0.989258
1.00068
1.0091
1.01514
1.01908
1.02106
1.02166
1.02138
0.782726
0.783068
0.786828
0.794668
0.806639
0.822787
0.842922
0.866944
0.894655
0.925594
0.955787
0.980008
0.997797
1.01102
1.02081
1.02789
1.03249
1.03478
1.03544
1.03507
0.733742
0.734247
0.741486
0.754371
0.772747
0.796097
0.82314
0.853819
0.887853
0.924669
0.959684
0.987421
1.00778
1.02292
1.03422
1.04242
1.04773
1.05022
1.05081
1.05036
0.668285
0.671273
0.686867
0.708501
0.735625
0.767215
0.802179
0.840371
0.8815
0.924912
0.965507
0.997529
1.02116
1.03892
1.05228
1.06225
1.06888
1.07177
1.07223
1.07197
0.593109
0.60317
0.629379
0.660903
0.697847
0.738314
0.78127
0.827251
0.875824
0.926327
0.973167
1.01021
1.03784
1.05895
1.07518
1.0873
1.09588
1.0995
1.10012
1.10037
0.526765
0.542314
0.575121
0.614908
0.661011
0.710126
0.761187
0.814977
0.870816
0.928149
0.980947
1.0226
1.05375
1.07752
1.09577
1.10969
1.11916
1.12413
1.12557
1.12554
0.476883
0.490698
0.528757
0.574347
0.627487
0.683742
0.742161
0.803194
0.865907
0.92986
0.988411
1.03427
1.06822
1.09405
1.11413
1.12954
1.13964
1.14477
1.14612
1.14623
0.435926
0.448812
0.490176
0.539575
0.597947
0.659845
0.724527
0.791961
0.861033
0.931212
0.994823
1.04421
1.08052
1.10805
1.1289
1.14474
1.15544
1.16076
1.16236
1.16248
0.400458
0.413601
0.457383
0.509618
0.572039
0.638463
0.708379
0.781342
0.856051
0.931743
0.999987
1.05256
1.09078
1.11908
1.14049
1.15667
1.16765
1.17335
1.17515
1.17529
0.369504
0.382784
0.428501
0.48314
0.548901
0.619119
0.693461
0.77114
0.850771
0.931372
1.00381
1.05903
1.09871
1.12802
1.14992
1.16633
1.17776
1.18375
1.18573
1.18585
0.34158
0.354963
0.402326
0.459164
0.527849
0.601285
0.67935
0.761051
0.845034
0.930107
1.00649
1.06433
1.10538
1.13548
1.15799
1.17465
1.18615
1.19241
1.19424
1.19417
0.316043
0.329376
0.377995
0.436953
0.508286
0.584461
0.665715
0.750969
0.838951
0.928391
1.00859
1.06881
1.11139
1.14235
1.16514
1.18199
1.1934
1.19949
1.20148
1.20133
0.291984
0.305628
0.355126
0.416104
0.489718
0.568295
0.652363
0.740809
0.832418
0.925677
1.00928
1.0724
1.11686
1.14863
1.17191
1.18878
1.2001
1.20616
1.20812
1.20806
0.269306
0.283075
0.333407
0.396211
0.471849
0.552595
0.639143
0.730401
0.825122
0.921816
1.00961
1.07606
1.12216
1.155
1.17858
1.19545
1.20682
1.21266
1.21473
1.21466
0.247857
0.261627
0.312637
0.377002
0.454391
0.537128
0.625918
0.719649
0.817332
0.917907
1.00983
1.07916
1.1275
1.16148
1.1854
1.20235
1.21363
1.2194
1.22126
1.22123
0.227181
0.241152
0.292638
0.358297
0.437173
0.521741
0.612598
0.708638
0.809172
0.913086
1.00832
1.08131
1.13246
1.16786
1.19249
1.20951
1.22068
1.22613
1.22798
1.22787
0.206829
0.221418
0.27326
0.340013
0.420131
0.506335
0.599116
0.697325
0.800271
0.907167
1.00669
1.08353
1.13718
1.17452
1.20011
1.21714
1.22787
1.23312
1.23461
1.23445
0.186793
0.202198
0.25438
0.322107
0.40327
0.490921
0.585435
0.685599
0.790872
0.900842
1.00392
1.08405
1.14152
1.18167
1.20847
1.22552
1.23546
1.23989
1.24105
1.24082
0.167198
0.18335
0.235952
0.304606
0.386669
0.475548
0.571561
0.673502
0.780955
0.893342
0.999365
1.0841
1.14557
1.18881
1.21776
1.23508
1.24367
1.24674
1.24708
1.24688
0.148205
0.164902
0.217993
0.287546
0.370401
0.4603
0.557581
0.661063
0.770291
0.884841
0.994063
1.08289
1.14856
1.19618
1.22816
1.24665
1.25381
1.253
1.25221
1.25281
0.129844
0.146945
0.200566
0.27097
0.35454
0.445285
0.543589
0.64831
0.759002
0.875549
0.987464
1.07991
1.15057
1.20307
1.23957
1.26066
1.26747
1.26237
1.25691
1.25477
0.112153
0.129584
0.183728
0.254919
0.339142
0.430578
0.52966
0.635331
0.747327
0.865571
0.979764
1.0756
1.15078
1.20913
1.25168
1.2778
1.28856
1.27752
1.27354
1.27816
0.0951227
0.112884
0.167539
0.239428
0.324232
0.416233
0.515919
0.622349
0.735428
0.855066
0.970935
1.0695
1.14895
1.21317
1.26307
1.29716
1.3161
1.29351
1.24935
1.20755
0.0788176
0.0968323
0.15195
0.224416
0.309693
0.402129
0.502263
0.609243
0.723021
0.843676
0.960982
1.06135
1.14392
1.214
1.27228
1.31759
1.35191
1.35271
1.37063
1.42277
0.0632774
0.0813804
0.136872
0.209737
0.295332
0.388035
0.48841
0.595636
0.709744
0.83097
0.94913
1.05008
1.13491
1.20888
1.27135
1.31949
1.34684
1.3421
1.30966
1.31948
0.0485323
0.0665515
0.122342
0.195449
0.281229
0.374038
0.474461
0.58168
0.695773
0.817051
0.935242
1.03635
1.12053
1.19391
1.25525
1.30003
1.30068
1.25711
1.19851
1.18832
0.034571
0.0523563
0.10837
0.181553
0.267377
0.360121
0.460411
0.567384
0.681098
0.801833
0.919261
1.01908
1.10014
1.16791
1.22219
1.23983
1.21034
1.13994
1.06848
1.05317
0.0213565
0.0387954
0.0949371
0.168033
0.253764
0.346274
0.446255
0.552753
0.665693
0.785202
0.901264
0.998993
1.07382
1.12891
1.15865
1.15048
1.10153
1.0025
0.916671
0.898317
0.00843086
0.02546
0.0816544
0.154527
0.24004
0.332186
0.431709
0.537516
0.649361
0.767258
0.881151
0.974714
1.04237
1.08168
1.07724
1.04459
0.940184
0.81973
0.713606
0.689566
-0.00510334
0.0115583
0.0678135
0.140408
0.22564
0.317387
0.41636
0.521318
0.631861
0.747674
0.858183
0.946508
1.00825
1.02399
0.988061
0.903373
0.748127
0.596468
0.469008
0.44365
-0.0197595
-0.00332733
0.0531052
0.125445
0.210382
0.301743
0.400116
0.504123
0.613185
0.726533
0.833187
0.916068
0.966216
0.955216
0.897655
0.749167
0.546684
0.331959
0.150958
0.104603
-0.0356273
-0.0192732
0.0374598
0.109611
0.194294
0.285297
0.383039
0.486005
0.593438
0.703966
0.805414
0.882251
0.916956
0.87519
0.784298
0.591651
0.353455
0.0579937
-0.269558
-0.413493
-0.052773
-0.0363811
0.0207894
0.0928358
0.177324
0.267985
0.365073
0.466938
0.572583
0.67994
0.775561
0.846719
0.86396
0.789035
0.648538
0.433985
0.18938
-0.166145
-0.767492
-1.34703
-0.0712411
-0.0547176
0.00301171
0.0750525
0.159462
0.249837
0.346294
0.447019
0.550811
0.655
0.744736
0.808383
0.808833
0.713546
0.517337
0.269311
0.053522
-0.19685
-0.77948
-2.35086
-0.0910095
-0.0743737
-0.0159262
0.0561637
0.14056
0.230661
0.326453
0.425982
0.527788
0.628515
0.712457
0.76646
0.748238
0.653568
0.41854
0.160301
0.00118123
-0.0484625
-0.0558818
-0.456612
-0.112018
-0.0953959
-0.0362148
0.0358595
0.120243
0.209997
0.304987
0.40309
0.502622
0.599441
0.67802
0.721837
0.685562
0.605801
0.370888
0.143729
0.0177307
0.00372605
0.0520609
0.00876656
-0.134227
-0.117631
-0.0578002
0.0141251
0.0984603
0.18774
0.281747
0.378212
0.475113
0.567469
0.641267
0.675881
0.630206
0.551501
0.331846
0.152064
0.0587875
0.0492465
0.00187037
-0.00690156
-0.157558
-0.140851
-0.0806713
-0.00906728
0.0752466
0.163896
0.256746
0.351338
0.445311
0.533051
0.602508
0.6281
0.580633
0.487949
0.299872
0.159628
0.0761672
0.108644
0.0846377
0.0824188
-0.181796
-0.164701
-0.104696
-0.0335485
0.050778
0.138585
0.23011
0.32265
0.413346
0.496561
0.561435
0.577059
0.53756
0.418597
0.259943
0.159467
0.103796
0.0676447
0.0886395
0.0814805
-0.206397
-0.188992
-0.129806
-0.0591532
0.0252968
0.111999
0.202067
0.292465
0.379636
0.458459
0.519044
0.524081
0.494817
0.353438
0.216411
0.143568
0.151788
0.0887963
0.115464
0.108485
-0.230827
-0.213333
-0.155603
-0.0853449
-0.000868313
0.0844751
0.173032
0.261188
0.344422
0.41907
0.476657
0.47266
0.44733
0.301626
0.179619
0.113007
0.147812
0.113615
0.114434
0.113333
-0.254559
-0.237418
-0.181326
-0.111464
-0.0273315
0.0564481
0.143435
0.229368
0.308437
0.378847
0.434858
0.422344
0.389799
0.259663
0.166643
0.109196
0.093278
0.110705
0.108064
0.112019
-0.276909
-0.260498
-0.205867
-0.136638
-0.0537573
0.0285479
0.113979
0.197592
0.272728
0.338418
0.394874
0.374261
0.329812
0.226981
0.16701
0.129517
0.0746936
0.118162
0.111174
0.119291
-0.296925
-0.281609
-0.22852
-0.160112
-0.079472
0.00158905
0.0854459
0.166819
0.238415
0.298327
0.356741
0.328566
0.264341
0.191233
0.170447
0.191608
0.112016
0.146763
0.128625
0.133178
-0.313501
-0.29963
-0.248497
-0.181406
-0.103425
-0.0233789
0.0587619
0.13798
0.207024
0.259929
0.319968
0.287274
0.194914
0.154211
0.197319
0.302753
0.224421
0.182281
0.15575
0.146074
-0.325448
-0.313438
-0.265023
-0.199649
-0.123921
-0.0452527
0.0350629
0.112189
0.179345
0.225335
0.28408
0.254196
0.120728
0.0648869
0.120956
0.132386
0.119717
0.096801
0.0795145
0.080969
-0.331898
-0.321975
-0.276891
-0.213563
-0.139853
-0.0629517
0.0154556
0.0910137
0.157167
0.198149
0.247335
0.230611
0.0325949
-0.184132
-0.339418
-0.429972
-0.43279
-0.387124
-0.341752
-0.307543
-0.331865
-0.323859
-0.282641
-0.221667
-0.150003
-0.0749511
0.00162778
0.0757701
0.141833
0.183109
0.217354
0.211942
-0.0327502
-0.432211
-0.959459
-1.27565
-1.29988
-1.23768
-1.08722
-0.980819
-0.324636
-0.317505
-0.280818
-0.222819
-0.153543
-0.0804771
-0.00523011
0.0685405
0.136304
0.183876
0.214031
0.215563
0.00921612
-0.34472
-0.798083
-0.99251
-0.941067
-0.836324
-0.742507
-0.689595
-0.306789
-0.299443
-0.269058
-0.215839
-0.149567
-0.0782995
-0.00404433
0.0709183
0.143702
0.202339
0.244073
0.284103
0.280031
0.325445
0.341839
0.412026
0.521083
0.61598
0.701743
0.78093
-0.273542
-0.266792
-0.246439
-0.200633
-0.138097
-0.0685198
0.00553513
0.0828563
0.164014
0.242425
0.313193
0.436789
0.629993
0.96302
1.28067
1.55405
1.76483
1.89799
1.96741
1.98955
-0.227029
-0.222721
-0.215451
-0.178427
-0.120404
-0.0518616
0.0225996
0.103145
0.19324
0.294146
0.397571
0.552408
0.84692
1.27247
1.69394
2.05227
2.30633
2.45354
2.51802
2.53728
-0.188823
-0.188
-0.183577
-0.153821
-0.100116
-0.0321348
0.0441392
0.127418
0.221001
0.333197
0.452725
0.573023
0.865035
1.23528
1.60144
1.91752
2.15388
2.29417
2.357
2.37502
-0.159107
-0.160451
-0.154651
-0.131531
-0.0794899
-0.0120738
0.0647432
0.147832
0.237891
0.344689
0.458351
0.538462
0.760489
1.04871
1.32485
1.56266
1.74997
1.8665
1.92118
1.93855
-0.125784
-0.126519
-0.126052
-0.107835
-0.0565694
0.00880289
0.0835138
0.163099
0.246105
0.33745
0.441626
0.501726
0.653426
0.879748
1.09817
1.27601
1.4156
1.51024
1.55408
1.56624
-0.083662
-0.0845538
-0.0871155
-0.0717069
-0.025272
0.0344997
0.103208
0.17602
0.249767
0.324129
0.41639
0.46954
0.560404
0.730145
0.903362
1.0349
1.13476
1.20618
1.23811
1.2447
-0.0200603
-0.0215332
-0.0240923
-0.0130667
0.0235534
0.070953
0.128131
0.190394
0.253168
0.314167
0.393042
0.44317
0.493587
0.615828
0.749304
0.844806
0.916136
0.966921
0.990195
0.998095
0.0628341
0.061156
0.0597441
0.0671574
0.0896553
0.12163
0.162735
0.210365
0.26193
0.311663
0.375903
0.420363
0.451531
0.539712
0.63566
0.702271
0.754639
0.795183
0.810895
0.814871
0.150186
0.148786
0.147659
0.151262
0.162785
0.181089
0.205843
0.237601
0.278007
0.314667
0.363145
0.400824
0.420621
0.488673
0.556825
0.6023
0.640922
0.669479
0.684121
0.688964
0.226579
0.22549
0.224472
0.225312
0.22931
0.23715
0.249807
0.26751
0.295812
0.319783
0.352203
0.383891
0.394763
0.448743
0.5011
0.532898
0.559894
0.577409
0.587072
0.590281
0.283579
0.282872
0.281683
0.280089
0.279242
0.280539
0.285604
0.293693
0.31056
0.325234
0.34508
0.368785
0.37644
0.416895
0.454047
0.47974
0.498292
0.508583
0.512404
0.512411
0.319372
0.318856
0.31758
0.314703
0.310999
0.308684
0.309208
0.312142
0.320974
0.330762
0.3436
0.356149
0.366896
0.391811
0.417443
0.435834
0.447018
0.45227
0.452867
0.451284
0.338669
0.338226
0.33699
0.33414
0.329554
0.325792
0.323942
0.32413
0.328643
0.335438
0.344264
0.351121
0.358202
0.375199
0.390174
0.399951
0.405459
0.404644
0.402462
0.401249
0.347731
0.347376
0.346269
0.343867
0.33967
0.335959
0.333321
0.332232
0.334958
0.339688
0.344989
0.348376
0.350152
0.364292
0.373086
0.376734
0.377271
0.374844
0.371692
0.370433
0.350677
0.350438
0.349602
0.347718
0.34447
0.34147
0.339285
0.337935
0.34047
0.343311
0.346517
0.346392
0.344939
0.358836
0.367619
0.370599
0.372328
0.374293
0.373506
0.370476
0.349718
0.349601
0.349128
0.347802
0.345632
0.343318
0.341816
0.341092
0.344555
0.34711
0.351401
0.35002
0.348763
0.360889
0.372482
0.378908
0.38213
0.383146
0.383265
0.380669
0.345356
0.345376
0.345286
0.34468
0.343517
0.34221
0.341927
0.342068
0.346266
0.352827
0.362777
0.36226
0.364427
0.37282
0.381623
0.386135
0.384087
0.3793
0.377811
0.377676
0.337166
0.337402
0.337753
0.337998
0.337926
0.338289
0.338014
0.341516
0.348401
0.358346
0.372812
0.378537
0.382338
0.387557
0.391629
0.393951
0.394278
0.393972
0.393504
0.394132
0.322788
0.323179
0.323853
0.324826
0.325638
0.327717
0.329951
0.336468
0.344272
0.358205
0.378865
0.395586
0.397252
0.401776
0.409095
0.421008
0.440645
0.455863
0.459863
0.456325
0.301902
0.302619
0.303432
0.304912
0.306572
0.309628
0.313717
0.321535
0.331732
0.35001
0.377277
0.397828
0.407771
0.409683
0.427788
0.448036
0.473532
0.49399
0.502561
0.491844
0.272968
0.273773
0.274536
0.27602
0.278363
0.282212
0.287015
0.294953
0.305633
0.32496
0.353469
0.375351
0.391444
0.386825
0.405188
0.424175
0.434629
0.441364
0.449361
0.444773
0.234895
0.235933
0.237106
0.238671
0.240547
0.243311
0.246727
0.250344
0.256159
0.272608
0.302781
0.329493
0.332619
0.33035
0.346826
0.364445
0.370278
0.364671
0.368652
0.369902
0.184429
0.185296
0.186301
0.187694
0.189124
0.18999
0.189224
0.185723
0.18378
0.19029
0.225469
0.269443
0.262352
0.276505
0.304531
0.32412
0.351874
0.356966
0.344531
0.35005
0.127247
0.127736
0.128119
0.128446
0.127855
0.124572
0.115721
0.100591
0.0790304
0.0750547
0.126839
0.19912
0.206971
0.233379
0.280583
0.30194
0.331819
0.357207
0.334584
0.338404
0.0664517
0.0665327
0.0661826
0.065176
0.0614134
0.0517662
0.0315428
-0.000230079
-0.0468835
-0.0654021
-0.00631327
0.10322
0.138594
0.172296
0.221327
0.255076
0.251351
0.265883
0.263952
0.262489
0.0144401
0.0135806
0.0116515
0.00829953
0.000461837
-0.0174932
-0.0527793
-0.111903
-0.189879
-0.216033
-0.144972
-0.00763876
0.0348386
0.100787
0.141977
0.186007
0.19235
0.17007
0.185474
0.180864
-0.0188885
-0.0203298
-0.0230087
-0.0281569
-0.0387075
-0.062345
-0.1075
-0.183552
-0.284303
-0.341872
-0.279607
-0.108831
-0.0656885
0.0409505
0.0988156
0.119605
0.150591
0.121503
0.126229
0.124178
-0.02342
-0.0245834
-0.0247631
-0.0278172
-0.0397568
-0.0659333
-0.114092
-0.192617
-0.298944
-0.378449
-0.319932
-0.145168
-0.0673999
-0.021407
0.028057
0.0471837
0.0638845
0.0667207
0.0650721
0.0651377
0.0133575
0.0125997
0.0128793
0.0131521
0.00992021
-0.00184848
-0.0303314
-0.085867
-0.161879
-0.212505
-0.173148
-0.0856549
-0.0422069
-0.0783285
-0.0846661
-0.0412111
-0.0268281
-0.00650409
-0.00207958
-0.000596608
-0.769715
0.0956338
0.367669
0.651661
0.841709
1.00596
1.14267
1.28144
1.43041
1.508
0.2326
0.651935
0.675302
0.868758
1.00048
1.11829
1.22048
1.31062
1.34014
1.29653
0.627657
0.848506
0.888811
1.02815
1.11933
1.2034
1.27274
1.32446
1.32792
1.34072
0.865614
1.01578
1.05178
1.15851
1.21659
1.27769
1.32423
1.35745
1.36712
1.39035
1.05305
1.15564
1.18608
1.25792
1.30235
1.34572
1.37879
1.40358
1.41381
1.44501
1.19758
1.26924
1.29971
1.34483
1.38165
1.4128
1.43777
1.45873
1.47328
1.50128
1.31909
1.37111
1.39719
1.42625
1.45479
1.47914
1.49954
1.51899
1.53413
1.56045
1.42417
1.46239
1.48377
1.50497
1.52643
1.54627
1.56391
1.58219
1.59714
1.62076
1.51941
1.5484
1.56562
1.58132
1.59788
1.61423
1.62993
1.64697
1.66058
1.68288
1.60832
1.62918
1.64434
1.65776
1.67156
1.6855
1.69905
1.71367
1.7252
1.74486
1.6946
1.71049
1.72445
1.73643
1.74847
1.76014
1.77127
1.78295
1.79061
1.80743
1.78013
1.79307
1.80687
1.81854
1.82911
1.83885
1.84762
1.85586
1.85942
1.87071
1.86946
1.88046
1.89393
1.90314
1.91057
1.91776
1.92495
1.9315
1.93251
1.93994
1.9679
1.97263
1.98067
1.98516
1.98844
1.99291
1.99891
2.00666
2.01049
2.02038
2.08121
2.06751
2.06007
2.05445
2.05178
2.05319
2.05967
2.07207
2.08683
2.11649
2.20213
2.14639
2.11554
2.09846
2.09031
2.09029
2.099
2.11854
2.15053
2.21972
)
;

boundaryField
{
    wall-4
    {
        type            zeroGradient;
    }
    pressure-outlet-7
    {
        type            fixedValue;
        value           uniform 0;
    }
    velocity-inlet-6
    {
        type            zeroGradient;
    }
    velocity-inlet-5
    {
        type            zeroGradient;
    }
    frontAndBackPlanes
    {
        type            empty;
    }
}


// ************************************************************************* //
