/*--------------------------------*- C++ -*----------------------------------*\
  =========                 |
  \\      /  F ield         | OpenFOAM: The Open Source CFD Toolbox
   \\    /   O peration     | Website:  https://openfoam.org
    \\  /    A nd           | Version:  9
     \\/     M anipulation  |
\*---------------------------------------------------------------------------*/
FoamFile
{
    format      ascii;
    class       surfaceScalarField;
    location    "31";
    object      phi;
}
// * * * * * * * * * * * * * * * * * * * * * * * * * * * * * * * * * * * * * //

dimensions      [0 3 -1 0 0 0 0];

internalField   nonuniform List<scalar> 
4262
(
0.107141
0.470847
0.0955735
0.705154
0.0693881
0.858488
0.0473516
1.0208
0.0309222
1.21495
0.0197511
1.44939
0.0124317
1.73318
0.00724627
2.07622
0.00329302
2.4892
-0.000195154
2.98578
-0.00375929
2.98586
-0.00775275
2.48924
-0.0129001
2.07618
-0.0200304
1.73299
-0.0310326
1.44922
-0.0473056
1.21479
-0.0691888
1.02065
-0.0953913
0.858505
-0.107125
0.705319
0.470863
0.112905
0.357942
0.13535
0.682709
0.120518
0.873321
0.0980742
1.04324
0.0749329
1.23809
0.0532078
1.47112
0.0347659
1.75162
0.0205035
2.09048
0.00918626
2.50051
-0.00104617
2.99601
-0.01117
2.99598
-0.0221481
2.50022
-0.0361279
2.09016
-0.0546165
1.75148
-0.0763987
1.471
-0.0997074
1.2381
-0.122413
1.04335
-0.136485
0.872578
-0.11339
0.682224
0.357473
0.0920654
0.265876
0.125013
0.649761
0.121159
0.877174
0.104905
1.0595
0.086423
1.25657
0.0673443
1.49019
0.0482665
1.7707
0.0302755
2.10847
0.013994
2.5168
-0.00160896
3.01162
-0.0170786
3.01145
-0.033218
2.51635
-0.0510337
2.10798
-0.0696249
1.77007
-0.088021
1.4894
-0.105641
1.25572
-0.120716
1.05843
-0.125355
0.877218
-0.0923053
0.649175
0.265168
0.0639629
0.201913
0.104808
0.608916
0.106537
0.875446
0.0950461
1.07099
0.0809639
1.27065
0.0664228
1.50474
0.0506255
1.7865
0.0337267
2.12537
0.0161172
2.5344
-0.00255536
3.03029
-0.0210947
3.02999
-0.0382889
2.53355
-0.0544567
2.12415
-0.0694902
1.78511
-0.0835211
1.50343
-0.0973986
1.2696
-0.108938
1.06997
-0.10626
0.87454
-0.0645356
0.60745
0.200632
0.03754
0.164373
0.0809351
0.565521
0.0914057
0.864976
0.0842554
1.07814
0.0715045
1.2834
0.0593874
1.51685
0.0466157
1.79927
0.0321357
2.13985
0.0157543
2.55079
-0.00315365
3.0492
-0.0217316
3.04857
-0.0374575
2.54927
-0.0512582
2.13795
-0.0636757
1.79752
-0.0753852
1.51514
-0.0875589
1.28177
-0.0940358
1.07644
-0.0826126
0.863117
-0.0381711
0.563009
0.162461
0.0194487
0.144925
0.0570504
0.527919
0.0724024
0.849624
0.0705136
1.08003
0.0619873
1.29193
0.0512148
1.52763
0.0399665
1.81052
0.0275796
2.15224
0.0129172
2.56545
-0.00437553
3.06649
-0.0213282
3.06552
-0.0351682
2.56311
-0.0467405
2.14952
-0.0568475
1.80763
-0.0666927
1.52499
-0.0744601
1.28954
-0.0755201
1.0775
-0.0589738
0.84657
-0.0200673
0.524102
0.142394
0.0105235
0.134401
0.042162
0.496281
0.0582883
0.833497
0.0588203
1.0795
0.0531084
1.29764
0.0442325
1.5365
0.0341788
1.82057
0.0229058
2.16351
0.0100156
2.57834
-0.00538863
3.08189
-0.0205081
3.08064
-0.0326946
2.5753
-0.0429076
2.15973
-0.0519157
1.81664
-0.059879
1.53295
-0.0643733
1.29403
-0.0625388
1.07567
-0.0447575
0.828789
-0.0113435
0.490688
0.13105
0.00661654
0.127785
0.0330467
0.46985
0.0494197
0.817124
0.0510913
1.07782
0.0463818
1.30235
0.0384944
1.54439
0.0291136
1.82995
0.0182994
2.17433
0.00636313
2.59028
-0.00691353
3.09517
-0.0196035
3.09333
-0.0303745
2.58607
-0.039633
2.16899
-0.0475942
1.8246
-0.0540031
1.53936
-0.0573046
1.29733
-0.0542082
1.07257
-0.0359282
0.810509
-0.00750922
0.462269
0.123541
0.00464082
0.123144
0.0261113
0.44838
0.0418069
0.801429
0.0439885
1.07564
0.0396614
1.30668
0.0326827
1.55137
0.0243205
1.83832
0.0145785
2.18407
0.00353914
2.60131
-0.00842846
3.10714
-0.0198495
3.10475
-0.0295376
2.59576
-0.0378452
2.1773
-0.0443343
1.83109
-0.0496671
1.54469
-0.0524211
1.30009
-0.0482121
1.06836
-0.0297994
0.792096
-0.00577438
0.438244
0.117767
0.00337255
0.119771
0.0205459
0.431207
0.0353715
0.786603
0.0382109
1.0728
0.0341285
1.31076
0.0272562
1.55824
0.0193042
1.84627
0.0102661
2.19311
0.000213404
2.61137
-0.0108665
3.11822
-0.0211984
3.11508
-0.0294161
2.60398
-0.0362178
2.1841
-0.0419821
1.83685
-0.0466815
1.54939
-0.0484397
1.30184
-0.0429809
1.0629
-0.0249842
0.7741
-0.00480784
0.418068
0.112959
0.00255931
0.117212
0.0158916
0.417874
0.0290928
0.773402
0.0322748
1.06962
0.0287887
1.31425
0.0225563
1.56447
0.0153681
1.85346
0.00715026
2.20133
-0.00231596
2.62083
-0.0130579
3.12896
-0.0228022
3.12483
-0.0301641
2.61134
-0.0357567
2.18969
-0.0406103
1.84171
-0.0444943
1.55327
-0.0453275
1.30268
-0.0387266
1.0563
-0.0213179
0.756691
-0.0042566
0.401006
0.108702
0.00188873
0.115323
0.0118092
0.407954
0.0234167
0.761794
0.0266118
1.06643
0.0234172
1.31744
0.0175087
1.57038
0.0105949
1.86037
0.00277148
2.20915
-0.0063402
2.62995
-0.0168765
3.1395
-0.0261754
3.13413
-0.0324903
2.61765
-0.0368248
2.19403
-0.0400924
1.84498
-0.0424061
1.55559
-0.0419171
1.30219
-0.0346458
1.04903
-0.0183071
0.740352
-0.00398784
0.386687
0.104715
0.0010512
0.114272
0.00764098
0.401364
0.0166698
0.752766
0.0191763
1.06392
0.0162795
1.32034
0.0110038
1.57566
0.00455604
1.86682
-0.00282755
2.21653
-0.0111999
2.63832
-0.0202255
3.14852
-0.027788
3.14169
-0.0327948
2.62266
-0.0360516
2.19728
-0.0386869
1.84761
-0.0400048
1.55691
-0.0388235
1.30101
-0.0310224
1.04123
-0.0156108
0.724941
-0.00371536
0.374792
0.100999
0.000101891
0.11417
0.00309736
0.398369
0.00981285
0.74605
0.0118677
1.06186
0.00898349
1.32322
0.0038911
1.58075
-0.00256953
1.87328
-0.00994697
2.22391
-0.0177171
2.64609
-0.0251507
3.15595
-0.0308665
3.1474
-0.0345421
2.62634
-0.0370263
2.19977
-0.0380876
1.84867
-0.0377745
1.55659
-0.0352485
1.29848
-0.026793
1.03278
-0.0128116
0.710959
-0.00321734
0.365197
0.0977819
-0.000806439
0.114976
-0.000566821
0.398129
0.00345924
0.742024
0.00418654
1.06114
0.00131281
1.32609
-0.00344631
1.58551
-0.00964754
1.87948
-0.0167998
2.23106
-0.0242823
2.65357
-0.0311438
3.16282
-0.0359164
3.15218
-0.0382506
2.62867
-0.0389123
2.20043
-0.0382822
1.84804
-0.0368734
1.55518
-0.0332017
1.29481
-0.0242196
1.02379
-0.011169
0.697909
-0.00290041
0.356929
0.0948815
-0.00206606
0.117043
-0.00414903
0.400212
-0.00346753
0.741343
-0.00320344
1.06087
-0.00657592
1.32947
-0.0118737
1.59081
-0.0181975
1.8858
-0.0252141
2.23808
-0.0325255
2.66088
-0.0389941
3.16929
-0.0425866
3.15577
-0.0432409
2.62933
-0.0421566
2.19935
-0.0403554
1.84624
-0.0373585
1.55219
-0.0321047
1.28956
-0.0224208
1.01411
-0.0103927
0.685881
-0.00288395
0.34942
0.0919975
-0.00317282
0.120215
-0.00760635
0.404645
-0.010168
0.743904
-0.0125822
1.06329
-0.0165096
1.33339
-0.0219434
1.59624
-0.028356
1.89222
-0.0352883
2.24501
-0.0420836
2.66768
-0.0475932
3.17479
-0.0497749
3.15795
-0.0486755
2.62823
-0.0458527
2.19652
-0.0426027
1.84299
-0.0382595
1.54784
-0.0322518
1.28355
-0.0222145
1.00407
-0.0105534
0.67422
-0.00304145
0.341908
0.0889561
-0.0040149
0.12423
-0.0112375
0.411868
-0.01663
0.749297
-0.020825
1.06748
-0.0262082
1.33878
-0.0330664
1.6031
-0.0405654
1.89972
-0.0480743
2.25252
-0.0549054
2.67451
-0.0594886
3.17938
-0.059558
3.15802
-0.0563109
2.62498
-0.0519917
2.1922
-0.0471674
1.83817
-0.0412979
1.54197
-0.0336285
1.27588
-0.0227265
0.99317
-0.0112294
0.662722
-0.00336008
0.334039
0.085596
-0.0051762
0.129406
-0.0149053
0.421597
-0.0235341
0.757926
-0.0298476
1.0738
-0.0363472
1.34528
-0.0441667
1.61092
-0.0526622
1.90821
-0.0613814
2.26124
-0.0688938
2.68202
-0.0732584
3.18374
-0.0722048
3.15697
-0.067609
2.62038
-0.0609536
2.18555
-0.0538018
1.83101
-0.0464005
1.53457
-0.0376925
1.26717
-0.0259171
0.981395
-0.0133101
0.650115
-0.00398759
0.324716
0.0816084
-0.00631603
0.135722
-0.0181304
0.433411
-0.0295921
0.769387
-0.0385134
1.08272
-0.0471366
1.3539
-0.0568247
1.62061
-0.0672176
1.9186
-0.0775641
2.27159
-0.0863944
2.69085
-0.0913204
3.18867
-0.0892234
3.15487
-0.0827067
2.61387
-0.0743548
2.1772
-0.0656121
1.82227
-0.056139
1.5251
-0.0449633
1.25599
-0.0306781
0.96711
-0.0160975
0.635535
-0.00489553
0.313514
0.0767129
-0.00855703
0.14428
-0.0241716
0.449026
-0.0391236
0.784339
-0.0504481
1.09404
-0.0607875
1.36424
-0.0725141
1.63233
-0.0850135
1.9311
-0.0974354
2.28401
-0.10773
2.70114
-0.112567
3.19351
-0.1093
3.1516
-0.101249
2.60582
-0.0906691
2.16662
-0.079298
1.8109
-0.0672304
1.51303
-0.0533699
1.24213
-0.0367393
0.950479
-0.0195529
0.618348
-0.00589396
0.299855
0.0708189
-0.010584
0.154864
-0.0299518
0.468394
-0.0490761
0.803464
-0.0640754
1.10904
-0.0776676
1.37783
-0.0923032
1.64697
-0.107784
1.94658
-0.122641
2.29886
-0.134021
2.71252
-0.138522
3.19801
-0.134118
3.1472
-0.123719
2.59542
-0.110704
2.1536
-0.0967622
1.79696
-0.0818307
1.4981
-0.0641485
1.22445
-0.0434929
0.929823
-0.0230135
0.597869
-0.00688243
0.283724
0.0639365
-0.0150851
0.169949
-0.0411757
0.494484
-0.0656513
0.827939
-0.0844363
1.12783
-0.100805
1.3942
-0.118724
1.66489
-0.137372
1.96523
-0.15446
2.31595
-0.166999
2.72506
-0.170908
3.20192
-0.163573
3.13986
-0.150086
2.58193
-0.133908
2.13743
-0.115985
1.77904
-0.0967397
1.47886
-0.0751103
1.20282
-0.0512427
0.905956
-0.0272986
0.573925
-0.00796897
0.264395
0.0559675
-0.019001
0.18895
-0.052903
0.528387
-0.0853949
0.860431
-0.110433
1.15286
-0.132709
1.41648
-0.155208
1.68739
-0.176698
1.98672
-0.195146
2.3344
-0.20694
2.73686
-0.207829
3.20281
-0.197298
3.12933
-0.180591
2.56522
-0.160758
2.11759
-0.139379
1.75766
-0.116394
1.45587
-0.0903111
1.17674
-0.0610761
0.876721
-0.0318676
0.544717
-0.00901152
0.241538
0.046956
-0.0328126
0.221762
-0.078925
0.574499
-0.119803
0.901309
-0.151296
1.18436
-0.178865
1.44405
-0.204763
1.71328
-0.228034
2.00999
-0.246201
2.35257
-0.256093
2.74675
-0.253691
3.2004
-0.237815
3.11346
-0.215345
2.54275
-0.190492
2.09274
-0.164007
1.73117
-0.13585
1.42771
-0.105039
1.14593
-0.0714433
0.843125
-0.0374589
0.510732
-0.010282
0.214361
0.036674
-0.0471033
0.268866
-0.11656
0.643956
-0.172604
0.957353
-0.211185
1.22294
-0.244008
1.47687
-0.272179
1.74145
-0.294649
2.03246
-0.309658
2.36758
-0.313701
2.75079
-0.303051
3.18975
-0.279642
3.09005
-0.252117
2.51523
-0.222938
2.06356
-0.192831
1.70106
-0.16121
1.39609
-0.125626
1.11034
-0.084842
0.802342
-0.0417116
0.467602
-0.0101426
0.182793
0.0265314
-0.0325949
0.30146
-0.0909757
0.702337
-0.142779
1.00916
-0.18647
1.26663
-0.227331
1.51773
-0.262886
1.77701
-0.296952
2.06653
-0.326861
2.39749
-0.348543
2.77247
-0.355962
3.19717
-0.344137
3.07822
-0.317267
2.48836
-0.280812
2.02711
-0.23771
1.65796
-0.190736
1.34912
-0.140281
1.05989
-0.0856676
0.747729
-0.0363052
0.418239
-0.00793585
0.154423
0.0185956
-0.0107889
0.312249
-0.0413362
0.732884
-0.0791148
1.04694
-0.115499
1.30301
-0.150847
1.55308
-0.184582
1.81074
-0.215899
2.09785
-0.241964
2.42355
-0.25875
2.78926
-0.25939
3.19781
-0.238534
3.05737
-0.205616
2.45544
-0.16838
1.98987
-0.129946
1.61953
-0.0902751
1.30945
-0.0513571
1.02097
-0.0197695
0.716141
-0.00203517
0.400505
0.00134615
0.151042
0.0199417
0.00243177
0.309818
-0.0190302
0.754346
-0.0465505
1.07446
-0.0753289
1.33179
-0.104499
1.58225
-0.133555
1.8398
-0.160982
2.12527
-0.183554
2.44612
-0.197066
2.80277
-0.195314
3.19606
-0.175901
3.03795
-0.147297
2.42683
-0.11269
1.95526
-0.0743698
1.58121
-0.0374376
1.27252
-0.00664913
0.990181
0.0128152
0.696677
0.0146754
0.398645
0.00593094
0.159786
0.0258727
0.00262411
0.307193
-0.0084885
0.765459
-0.0287928
1.09476
-0.0526645
1.35566
-0.0771215
1.6067
-0.101765
1.86444
-0.125132
2.14864
-0.144206
2.4652
-0.154774
2.81334
-0.150658
3.19194
-0.13072
3.01802
-0.101294
2.39741
-0.0674014
1.92137
-0.0352944
1.5491
-0.00847558
1.2457
0.0115121
0.970194
0.0214161
0.686773
0.0182207
0.40184
0.00674929
0.171258
0.0326219
0.00487475
0.302319
-0.00297493
0.773308
-0.0205256
1.11231
-0.0404825
1.37562
-0.0612
1.62742
-0.082407
1.88565
-0.102662
2.1689
-0.119395
2.48193
-0.12893
2.82287
-0.125905
3.18892
-0.108054
3.00016
-0.0823402
2.37169
-0.0562828
1.89531
-0.0311956
1.52401
-0.0063583
1.22086
0.0130652
0.95077
0.0205418
0.679296
0.0157197
0.406662
0.00537338
0.181604
0.0379953
0.00581751
0.296501
0.00050684
0.778619
-0.0149609
1.12778
-0.0332506
1.39391
-0.052034
1.64621
-0.0710454
1.90466
-0.08926
2.18711
-0.104461
2.49713
-0.112811
2.83123
-0.108843
3.18495
-0.0917111
2.98303
-0.0704388
2.35042
-0.0467037
1.87158
-0.021808
1.49912
-0.00116562
1.20022
0.0123905
0.937214
0.017751
0.673935
0.0123242
0.412089
0.00392174
0.190007
0.0419171
0.00382693
0.292674
-0.000172143
0.782618
-0.0136404
1.14125
-0.0301279
1.4104
-0.0473126
1.66339
-0.0647485
1.9221
-0.0816989
2.20406
-0.0961203
2.51155
-0.104687
2.83979
-0.103733
3.184
-0.0905265
2.96983
-0.0695071
2.3294
-0.0464544
1.84853
-0.0266289
1.47929
-0.00903219
1.18262
0.00426574
0.923916
0.00878759
0.669414
0.00720345
0.413673
0.00251031
0.1947
0.0444274
0.00258767
0.290087
-0.000694382
0.7859
-0.0128268
1.15338
-0.0283514
1.42592
-0.0449015
1.67994
-0.0615671
1.93876
-0.077776
2.22027
-0.0918079
2.52558
-0.100619
2.8486
-0.0990574
3.18244
-0.0854332
2.9562
-0.0680909
2.31206
-0.0501647
1.8306
-0.0313275
1.46046
-0.0161193
1.16741
-0.00505776
0.912855
0.00043657
0.663919
-0.000350461
0.41446
-5.72038e-05
0.194406
0.0443702
-0.000231187
0.290318
-0.00386415
0.789533
-0.0144557
1.16397
-0.0285339
1.44
-0.0440924
1.6955
-0.0601141
1.95478
-0.0759706
2.23613
-0.090213
2.53982
-0.0999445
2.85833
-0.101004
3.1835
-0.0911335
2.94633
-0.073614
2.29454
-0.0545768
1.81156
-0.0396028
1.44548
-0.0251837
1.15299
-0.0150294
0.9027
-0.0088609
0.657751
-0.00464752
0.410247
-0.00140876
0.191168
0.0429614
-0.000664925
0.290983
-0.00557665
0.794445
-0.0158212
1.17421
-0.0289308
1.45311
-0.0439443
1.71051
-0.0596468
1.97049
-0.075545
2.25203
-0.0902413
2.55452
-0.101066
2.86916
-0.104027
3.18646
-0.0942846
2.93659
-0.0790824
2.27934
-0.0630294
1.79551
-0.0453678
1.42782
-0.0318268
1.13945
-0.020301
0.891174
-0.012343
0.649793
-0.00732797
0.405232
-0.00222233
0.186062
0.0407391
-0.00259557
0.293578
-0.00803151
0.799881
-0.0175886
1.18377
-0.0299229
1.46544
-0.0442168
1.72481
-0.0596329
1.9859
-0.0756689
2.26806
-0.0909705
2.56982
-0.103104
2.88129
-0.107581
3.19093
-0.100256
2.92926
-0.0857723
2.26486
-0.0685853
1.77832
-0.0535232
1.41276
-0.039656
1.12559
-0.0285318
0.88005
-0.0189406
0.640202
-0.00932581
0.395617
-0.00286145
0.179598
0.0378776
-0.00389335
0.297472
-0.00942521
0.805413
-0.0187902
1.19314
-0.0307571
1.47741
-0.0445704
1.73862
-0.0596942
2.00103
-0.0757954
2.28416
-0.0915588
2.58559
-0.104693
2.89443
-0.111411
3.19765
-0.107171
2.92502
-0.0939997
2.25168
-0.078015
1.76234
-0.0609645
1.39571
-0.0458794
1.1105
-0.0320564
0.866227
-0.0205958
0.628741
-0.01116
0.386181
-0.00329656
0.171734
0.0345811
-0.00443351
0.301905
-0.010797
0.811776
-0.0200195
1.20236
-0.0315144
1.48891
-0.0448258
1.75193
-0.0596796
2.01588
-0.0759362
2.30042
-0.0926787
2.60233
-0.10831
2.91006
-0.119209
3.20855
-0.117664
2.92348
-0.105793
2.23981
-0.0865359
1.74308
-0.0685598
1.37773
-0.0518736
1.09381
-0.0386557
0.853009
-0.0258559
0.615941
-0.0121717
0.372497
-0.00341355
0.162976
0.0311675
-0.0044836
0.306389
-0.0112997
0.818592
-0.0206017
1.21166
-0.0319054
1.50021
-0.0449241
1.76495
-0.0595246
2.03048
-0.0758355
2.31673
-0.0929632
2.61946
-0.108865
2.92596
-0.120053
3.21974
-0.120795
2.92422
-0.110731
2.22975
-0.0960335
1.72838
-0.0758512
1.35755
-0.0576978
1.07566
-0.0405771
0.835889
-0.0254057
0.60077
-0.0128426
0.359934
-0.00333446
0.153468
0.0278331
-0.004545
0.310934
-0.011842
0.825889
-0.0210145
1.22083
-0.0319827
1.51118
-0.0446779
1.77764
-0.0590822
2.04489
-0.075412
2.33306
-0.0931937
2.63724
-0.111572
2.94434
-0.128019
3.23618
-0.132728
2.92893
-0.123126
2.22015
-0.103634
1.70889
-0.0833094
1.33722
-0.0619954
1.05435
-0.0448293
0.818722
-0.0293207
0.585261
-0.0128992
0.343513
-0.00298574
0.143555
0.0248473
-0.00454364
0.315477
-0.0118604
0.833206
-0.0209065
1.22988
-0.031703
1.52197
-0.0441949
1.79014
-0.0583781
2.05907
-0.0746734
2.34936
-0.0928829
2.65545
-0.11159
2.96305
-0.126849
3.25144
-0.133725
2.93581
-0.129273
2.21569
-0.115817
1.69543
-0.0920946
1.3135
-0.067595
1.02985
-0.0427489
0.793876
-0.0228974
0.56541
-0.0104131
0.331028
-0.00217656
0.135318
0.0226708
-0.0045843
0.320062
-0.0119692
0.840591
-0.0207249
1.23864
-0.0311552
1.5324
-0.0433176
1.8023
-0.0572994
2.07305
-0.0735864
2.36564
-0.0920314
2.67389
-0.112245
2.98326
-0.132851
3.27205
-0.145309
2.94827
-0.141048
2.21143
-0.123136
1.67752
-0.100412
1.29078
-0.0708545
1.00029
-0.0441024
0.767124
-0.0209799
0.542287
-0.00607483
0.316123
-0.00229876
0.131542
0.020372
-0.00450483
0.324566
-0.0116841
0.84777
-0.0201966
1.24715
-0.0303555
1.54256
-0.0422325
1.81418
-0.0559512
2.08677
-0.0720791
2.38177
-0.0907249
2.69254
-0.111404
3.00394
-0.131559
3.29221
-0.143874
2.96058
-0.146373
2.21393
-0.137223
1.66837
-0.111736
1.26529
-0.0780902
0.966645
-0.0361934
0.725227
0.00329701
0.502797
0.0238405
0.29558
0.0217174
0.133665
0.0420894
-0.00438997
0.328956
-0.0114766
0.854857
-0.0196564
1.25533
-0.0293902
1.5523
-0.0408502
1.82564
-0.0542688
2.10019
-0.0702313
2.39773
-0.088925
2.71123
-0.110449
3.02546
-0.134227
3.31598
-0.152499
2.97885
-0.157575
2.21901
-0.145488
1.65628
-0.122884
1.24269
-0.0839448
0.927705
-0.0384289
0.679712
0.0143927
0.449975
0.0362593
0.273713
0.0159392
0.153985
0.0580286
-0.00416787
0.333124
-0.010976
0.861665
-0.0188737
1.26323
-0.0282568
1.56168
-0.039367
1.83675
-0.0524167
2.11324
-0.0681111
2.41343
-0.0868138
2.72993
-0.108714
3.04736
-0.132365
3.33963
-0.15029
2.99678
-0.159929
2.22865
-0.160435
1.65679
-0.139496
1.22175
-0.101551
0.889759
-0.0336149
0.611776
0.0688259
0.347534
0.166777
0.175762
0.173768
0.146994
0.231796
-0.0040151
0.337139
-0.0107711
0.868421
-0.0185446
1.271
-0.0278348
1.57097
-0.0390462
1.84796
-0.0525219
2.12671
-0.0691044
2.43001
-0.0893279
2.75016
-0.11391
3.07195
-0.143512
3.36924
-0.170845
3.02411
-0.186596
2.2444
-0.185021
1.65522
-0.169944
1.20667
-0.131145
0.850959
-0.0863339
0.566965
-0.111546
0.372746
-0.363785
0.428001
-0.928317
0.711527
0.8945
-1.59102
-0.00380342
0.340943
-0.0102859
0.874903
-0.0178675
1.27858
-0.0270001
1.5801
-0.0380869
1.85904
-0.0516015
2.14023
-0.0685065
2.44692
-0.0896101
2.77126
-0.116022
3.09836
-0.147821
3.40103
-0.176779
3.05307
-0.198861
2.26648
-0.219296
1.67565
-0.221114
1.20849
-0.213353
0.843198
-0.292483
0.646095
-0.689171
0.769435
-1.41333
1.15216
-2.02688
1.32507
1.21971
-2.35209
-0.0036044
0.344547
-0.00985135
0.88115
-0.0171495
1.28588
-0.0260169
1.58897
-0.0369192
1.86995
-0.050473
2.15378
-0.0677049
2.46415
-0.0896051
2.79316
-0.117714
3.12647
-0.153969
3.43729
-0.192885
3.09199
-0.225315
2.29891
-0.244621
1.69496
-0.251893
1.21576
-0.339944
0.931249
-0.747525
1.05368
-1.51243
1.53433
-2.09304
1.73277
-2.33667
1.56871
1.33589
-2.45285
-0.00336623
0.347913
-0.00923437
0.887018
-0.0162668
1.29291
-0.024919
1.59762
-0.0356325
1.88066
-0.0491454
2.16729
-0.0665772
2.48158
-0.089213
2.8158
-0.119019
3.15627
-0.158243
3.47651
-0.199745
3.13349
-0.236069
2.33523
-0.279212
1.7381
-0.371268
1.30782
-0.697396
1.25738
-1.41563
1.77191
-2.01331
2.13201
-2.25667
1.97613
-2.37204
1.68408
1.40216
-2.43831
-0.00310969
0.351023
-0.00862459
0.892533
-0.0152949
1.29958
-0.0236197
1.60595
-0.0341578
1.8912
-0.0476289
2.18077
-0.0652514
2.4992
-0.0884824
2.83903
-0.11971
3.1875
-0.162735
3.51954
-0.214148
3.1849
-0.266244
2.38733
-0.316551
1.78841
-0.491979
1.48325
-1.07586
1.84125
-1.76674
2.4628
-2.09846
2.46373
-2.25085
2.12851
-2.33474
1.76797
1.46832
-2.4009
-0.00299434
0.354018
-0.00835193
0.897891
-0.0150141
1.30624
-0.0234028
1.61434
-0.0341676
1.90196
-0.0478547
2.19445
-0.0658975
2.51724
-0.0899902
2.86312
-0.122948
3.22046
-0.169517
3.56611
-0.225162
3.24055
-0.278105
2.44027
-0.375186
1.88549
-0.750511
1.85857
-1.47095
2.5617
-1.95587
2.94771
-2.159
2.66687
-2.26701
2.23652
-2.34451
1.84548
1.53309
-2.40928
-0.00304367
0.357061
-0.00866972
0.903517
-0.0156383
1.31321
-0.0244002
1.6231
-0.0356502
1.91321
-0.0499768
2.20878
-0.0688645
2.53613
-0.0940887
2.88835
-0.128828
3.2552
-0.178482
3.61576
-0.239356
3.30142
-0.311086
2.512
-0.498145
2.07255
-1.03049
2.39091
-1.66012
3.19133
-1.94661
3.2342
-2.09649
2.81675
-2.21252
2.35255
-2.30706
1.94001
1.59631
-2.37028
-0.00303235
0.360094
-0.00886021
0.909345
-0.0162715
1.32062
-0.0255541
1.63238
-0.0373035
1.92496
-0.0522293
2.2237
-0.0718875
2.55579
-0.0983073
2.91477
-0.134827
3.29172
-0.188102
3.66904
-0.255362
3.36868
-0.34604
2.60268
-0.618782
2.34529
-1.24351
3.01564
-1.74276
3.69057
-1.95365
3.44509
-2.09788
2.96099
-2.22484
2.47951
-2.33903
2.05419
1.6566
-2.39932
-0.00295497
0.363048
-0.00909096
0.915481
-0.0168734
1.32841
-0.0265918
1.6421
-0.0388708
1.93724
-0.0544988
2.23933
-0.075066
2.57636
-0.102631
2.94233
-0.140963
3.33005
-0.196283
3.72436
-0.265811
3.43821
-0.389961
2.72683
-0.761282
2.71661
-1.38755
3.64191
-1.75434
4.05737
-1.9324
3.62314
-2.03929
3.06788
-2.13273
2.57295
-2.20399
2.12545
1.65081
-2.1982
-0.00282607
0.365875
-0.00909303
0.921748
-0.0173903
1.3367
-0.027715
1.65242
-0.0405641
1.95009
-0.0568089
2.25558
-0.0781368
2.59769
-0.106865
2.97106
-0.146675
3.36986
-0.204738
3.78242
-0.286999
3.52047
-0.454748
2.89458
-0.891047
3.15291
-1.44535
4.19621
-1.71457
4.32659
-1.87453
3.7831
-1.97252
3.16587
-1.97871
2.57915
-1.91704
2.06378
1.62724
-1.89347
-0.00249242
0.368367
-0.00909096
0.928346
-0.0176854
1.3453
-0.0283541
1.66309
-0.0416278
1.96336
-0.0583237
2.27227
-0.080078
2.61944
-0.109059
3.00004
-0.149346
3.41015
-0.206063
3.83913
-0.290873
3.60528
-0.488189
3.09189
-0.958738
3.62346
-1.40872
4.64619
-1.58638
4.50425
-1.66027
3.85699
-1.66906
3.17467
-1.52612
2.43621
-1.0301
1.56775
0.597147
-0.00208716
0.370454
-0.00867682
0.934936
-0.0178341
1.35445
-0.0293046
1.67456
-0.0435126
1.97757
-0.0613401
2.2901
-0.084709
2.64281
-0.116182
3.03151
-0.15976
3.45373
-0.223113
3.90249
-0.326825
3.70899
-0.573469
3.33854
-1.09703
4.14702
-1.46694
5.0161
-1.56805
4.60536
-1.57285
3.86179
-1.47533
3.07714
-1.23892
2.1998
-0.647794
0.976627
-0.0506466
-0.00161248
0.372067
-0.00809388
0.941417
-0.0174685
1.36383
-0.029468
1.68656
-0.0445511
1.99266
-0.0636899
2.30924
-0.088849
2.66797
-0.122736
3.0654
-0.170746
3.50174
-0.24017
3.97191
-0.358422
3.82724
-0.654637
3.63475
-1.20168
4.69407
-1.48311
5.29754
-1.55321
4.67546
-1.53672
3.84529
-1.3366
2.87702
-0.801822
1.66502
-0.118335
0.293139
-0.168981
-0.00086419
0.372931
-0.00688653
0.94744
-0.0167153
1.37366
-0.0295309
1.69938
-0.0454092
2.00853
-0.0655378
2.32937
-0.0922155
2.69465
-0.128524
3.10171
-0.179379
3.55259
-0.255154
4.04769
-0.398098
3.97019
-0.752324
3.98898
-1.28751
5.22925
-1.47694
5.48697
-1.50586
4.70438
-1.42287
3.7623
-1.11761
2.57177
-0.332532
0.879941
0.0318325
-0.0712249
-0.137149
3.50975e-05
0.372896
-0.0050776
0.952552
-0.0148887
1.38347
-0.0281128
1.7126
-0.0446774
2.0251
-0.0660359
2.35073
-0.0943023
2.72291
-0.132631
3.14004
-0.18652
3.60648
-0.271392
4.13256
-0.437037
4.13583
-0.841718
4.39366
-1.31786
5.70539
-1.44339
5.6125
-1.45468
4.71567
-1.25471
3.56233
-0.718857
2.03592
-0.0695134
0.230597
0.0350088
-0.175747
-0.10214
0.00187738
0.371018
-0.00189187
0.956322
-0.0123054
1.39388
-0.0263473
1.72664
-0.0433393
2.04209
-0.0653704
2.37276
-0.0947725
2.75231
-0.134697
3.17996
-0.190317
3.6621
-0.280707
4.22295
-0.469562
4.32469
-0.927176
4.85127
-1.32161
6.09982
-1.39633
5.68722
-1.36009
4.67943
-1.07643
3.27867
-0.358194
1.31768
-0.0152776
-0.112319
0.00790037
-0.198925
-0.0942396
0.00366974
0.367349
0.00156765
0.958424
-0.00829707
1.40375
-0.0219891
1.74034
-0.0392692
2.05937
-0.0622486
2.39574
-0.0925856
2.78265
-0.133728
3.2211
-0.191801
3.72017
-0.290947
4.32209
-0.501875
4.53561
-0.978287
5.32769
-1.26715
6.38868
-1.30669
5.72676
-1.20077
4.57351
-0.825976
2.90388
-0.110086
0.601789
0.0366688
-0.259074
0.0213246
-0.183581
-0.072915
0.00589456
0.361454
0.00535195
0.958966
-0.00323275
1.41233
-0.0167231
1.75383
-0.0339517
2.0766
-0.0569256
2.41871
-0.087497
2.81322
-0.12896
3.26257
-0.187465
3.77868
-0.289546
4.42418
-0.515691
4.76176
-0.989141
5.80113
-1.20044
6.59998
-1.22065
5.74697
-1.03675
4.38961
-0.513503
2.38063
-0.00470834
0.0929943
0.0172024
-0.280985
0.0167349
-0.183113
-0.0561801
0.0087275
0.352727
0.011187
0.956507
0.00506275
1.41846
-0.0069626
1.76585
-0.0245255
2.09416
-0.0475875
2.44177
-0.0777255
2.84336
-0.11869
3.30353
-0.177068
3.83706
-0.283906
4.53101
-0.524086
5.00194
-0.956841
6.23389
-1.09141
6.73455
-1.07534
5.7309
-0.843423
4.1577
-0.306337
1.84354
-0.0566336
-0.156709
-0.0320527
-0.305566
-0.00635994
-0.208806
-0.06254
0.0127596
0.339967
0.0192052
0.950061
0.014886
1.42278
0.00416324
1.77657
-0.0128865
2.11121
-0.034341
2.46323
-0.0628467
2.87187
-0.101918
3.3426
-0.157784
3.89292
-0.263946
4.63717
-0.497959
5.23595
-0.871621
6.60755
-0.966988
6.82992
-0.947953
5.71187
-0.697315
3.90706
-0.150951
1.29718
-0.05133
-0.25633
-0.0285712
-0.328324
-0.00423935
-0.233138
-0.0667794
0.0178658
0.322101
0.0299869
0.93794
0.0295923
1.42317
0.0204299
1.78574
0.00531768
2.12632
-0.0138539
2.4824
-0.040424
2.89844
-0.076354
3.37853
-0.127696
3.94426
-0.228222
4.7377
-0.445393
5.45313
-0.732727
6.89489
-0.796571
6.89376
-0.723587
5.63888
-0.433425
3.6169
0.0338151
0.829941
0.0288481
-0.251363
0.0227364
-0.322213
0.0316523
-0.242054
-0.0351271
0.0242857
0.297815
0.0433684
0.918857
0.0469725
1.41957
0.0406344
1.79208
0.0293183
2.13764
0.0125146
2.4992
-0.0101946
2.92115
-0.0410756
3.40941
-0.0857527
3.98894
-0.171517
4.82347
-0.352052
5.63366
-0.542975
7.08581
-0.614641
6.96543
-0.592398
5.61664
-0.339572
3.36407
-0.0599908
0.550359
-0.0883504
-0.223003
-0.0384284
-0.372135
0.0176167
-0.298099
-0.0175105
0.0318501
0.265965
0.060727
0.88998
0.0720139
1.40828
0.070453
1.79364
0.0622541
2.14584
0.0491091
2.51235
0.0311558
2.9391
0.0073039
3.43326
-0.0281781
4.02442
-0.0841932
4.87948
-0.207562
5.75703
-0.324463
7.20271
-0.41286
7.05383
-0.516983
5.72076
-0.496042
3.34313
-0.58179
0.636106
-0.594713
-0.21008
-0.416463
-0.550385
-0.207132
-0.50743
-0.224642
0.0405949
0.22537
0.081297
0.849278
0.10053
1.38905
0.1047
1.78947
0.102023
2.14852
0.0940189
2.52035
0.083908
2.94921
0.069603
3.44757
0.0496609
4.04437
0.0287119
4.90043
0.0118806
5.77386
-0.0269358
7.24153
-0.0873357
7.11423
-0.215605
5.84903
-0.466716
3.59424
-0.802846
0.972236
-0.827256
-0.18567
-0.634778
-0.742863
-0.331496
-0.810712
-0.556138
0.0490246
0.176346
0.106019
0.792284
0.138825
1.35624
0.151132
1.77716
0.154653
2.145
0.151865
2.52314
0.14996
2.95111
0.148442
3.44909
0.153908
4.0389
0.16925
4.88509
0.263634
5.67948
0.402449
7.10271
0.462638
7.05404
0.495495
5.81617
0.259334
3.8304
-0.233998
1.46557
-0.544867
0.1252
-0.593753
-0.693978
-0.303954
-1.10051
-0.860092
0.0536316
0.122714
0.131213
0.714702
0.180356
1.3071
0.203414
1.7541
0.215547
2.13286
0.221179
2.51751
0.229336
2.94296
0.242884
3.43554
0.274051
4.00773
0.338663
4.82048
0.566168
5.45197
1.02432
6.64456
1.4236
6.65476
1.83156
5.40822
1.75698
3.90498
1.13202
2.09053
0.599169
0.658055
0.171238
-0.266047
-0.0142389
-0.915033
-0.874331
0.0491559
0.0735582
0.156033
0.607825
0.231272
1.23186
0.269336
1.71604
0.290797
2.1114
0.304133
2.50417
0.322349
2.92474
0.349991
3.4079
0.408645
3.94908
0.536799
4.69232
0.877327
5.11144
1.56671
5.95518
2.00274
6.21873
2.2871
5.12386
2.29621
3.89587
1.88905
2.49769
1.40376
1.14335
0.924716
0.212995
0.359715
-0.350032
-0.514616
0.0376984
0.0358599
0.178488
0.467035
0.28334
1.12701
0.34186
1.65752
0.374913
2.07835
0.399682
2.4794
0.426498
2.89792
0.46608
3.36832
0.537269
3.87789
0.693341
4.53625
1.04834
4.75644
1.76964
5.23388
2.17246
5.81591
2.40677
4.88955
2.44108
3.86156
2.12596
2.8128
1.56434
1.70497
0.970577
0.806756
0.420689
0.199855
-0.0939268
0.0288104
0.00704944
0.200555
0.295291
0.344054
0.983508
0.42698
1.57459
0.471447
2.03388
0.506027
2.44482
0.535368
2.86858
0.580407
3.32328
0.64614
3.81216
0.77534
4.40705
1.02064
4.51114
1.62871
4.62581
2.01191
5.43271
2.13529
4.76616
2.10233
3.89452
1.86935
3.04579
1.41511
2.15921
0.903288
1.31858
0.387568
0.715576
0.293641
0.029474
-0.0224246
0.194034
0.13073
0.401371
0.776172
0.518667
1.45729
0.57787
1.97468
0.62167
2.40102
0.652822
2.83743
0.688992
3.28711
0.725805
3.77534
0.804883
4.32797
0.933361
4.38267
1.31842
4.24075
1.72599
5.02514
1.76425
4.7279
1.67718
3.98159
1.47757
3.24539
1.12687
2.50991
0.693244
1.75221
0.28123
1.12759
0.574871
0.0329595
-0.0553841
0.137853
0.0258365
0.357273
0.556751
0.501625
1.31294
0.566175
1.91013
0.592402
2.3748
0.602055
2.82778
0.598298
3.29086
0.585746
3.7879
0.579242
4.33447
0.592893
4.36902
0.734278
4.09936
0.937073
4.82234
0.935881
4.72909
0.851024
4.06645
0.731651
3.36477
0.5593
2.68226
0.338811
1.9727
0.129223
1.33718
0.704094
0.0227233
-0.0781074
0.0642193
-0.0156595
0.189042
0.431929
0.308839
1.19315
0.382905
1.83606
0.42115
2.33655
0.443583
2.80535
0.452153
3.28229
0.45271
3.78734
0.445002
4.34218
0.430637
4.38338
0.497063
4.03294
0.641707
4.6777
0.649215
4.72159
0.579983
4.13568
0.484965
3.45978
0.362977
2.80425
0.20901
2.12666
0.0676371
1.47855
0.771731
0.0134816
-0.091589
0.0164372
-0.018615
0.0572896
0.391076
0.133318
1.11712
0.200888
1.76849
0.25209
2.28535
0.291309
2.76613
0.319804
3.2538
0.332942
3.7742
0.327896
4.34723
0.307629
4.40365
0.329416
4.01115
0.423811
4.5833
0.427382
4.71801
0.37454
4.18853
0.295359
3.53897
0.203951
2.89566
0.100038
2.23058
0.0116382
1.56695
0.783369
-0.00450434
-0.0870847
-0.0331052
0.00998585
-0.046482
0.404453
-0.00912435
1.07976
0.047402
1.71197
0.104729
2.22802
0.156492
2.71436
0.197842
3.21245
0.220849
3.7512
0.225891
4.34219
0.212022
4.41752
0.216027
4.00714
0.270671
4.52866
0.265371
4.72331
0.221257
4.23264
0.162639
3.59758
0.0977959
2.9605
0.0345046
2.29387
-0.0168734
1.61833
0.766496
-0.02381
-0.0632747
-0.0742437
0.0604195
-0.115661
0.44587
-0.111219
1.07532
-0.0620171
1.66277
-0.00173543
2.16774
0.053678
2.65895
0.0979551
3.16817
0.12955
3.7196
0.147293
4.32444
0.136088
4.42872
0.137133
4.0061
0.163036
4.50276
0.149125
4.73722
0.109325
4.27244
0.0627166
3.64419
0.0153897
3.00783
-0.0335086
2.34276
-0.0465589
1.63138
0.719937
-0.0359391
-0.0273355
-0.100156
0.124636
-0.156506