/*--------------------------------*- C++ -*----------------------------------*\
  =========                 |
  \\      /  F ield         | OpenFOAM: The Open Source CFD Toolbox
   \\    /   O peration     | Website:  https://openfoam.org
    \\  /    A nd           | Version:  9
     \\/     M anipulation  |
\*---------------------------------------------------------------------------*/
FoamFile
{
    format      ascii;
    class       volVectorField;
    location    "31";
    object      U;
}
// * * * * * * * * * * * * * * * * * * * * * * * * * * * * * * * * * * * * * //

dimensions      [0 1 -1 0 0 0 0];

internalField   nonuniform List<vector> 
2200
(
(0.878853 -0.0304146 0)
(1.0058 -0.0512824 0)
(1.0033 -0.0353991 0)
(1.00025 -0.0244394 0)
(0.999826 -0.0166404 0)
(1 -0.0106898 0)
(1.00002 -0.00685895 0)
(1.00003 -0.00423364 0)
(1.00006 -0.00222914 0)
(1.00016 -0.000693168 0)
(1.00007 0.000861592 0)
(1.00005 0.002461 0)
(1.00004 0.00445135 0)
(0.99996 0.00705452 0)
(0.999982 0.0107618 0)
(0.999832 0.0166553 0)
(1.00025 0.024455 0)
(1.0035 0.0351295 0)
(1.00592 0.0513435 0)
(0.878987 0.030362 0)
(0.711975 -0.0327685 0)
(0.996618 -0.0630351 0)
(1.03328 -0.0561905 0)
(1.02495 -0.0464996 0)
(1.01601 -0.0362487 0)
(1.00962 -0.0265396 0)
(1.00582 -0.0182801 0)
(1.00372 -0.0115475 0)
(1.00254 -0.00619631 0)
(1.002 -0.0016454 0)
(1.00201 0.0025664 0)
(1.00254 0.00701203 0)
(1.00366 0.012189 0)
(1.00572 0.0188126 0)
(1.00952 0.0272029 0)
(1.01587 0.0368607 0)
(1.0248 0.0471418 0)
(1.03301 0.0572718 0)
(0.996597 0.0631704 0)
(0.711737 0.0329466 0)
(0.53546 -0.0238971 0)
(0.969841 -0.0569388 0)
(1.05634 -0.0547575 0)
(1.05205 -0.048752 0)
(1.03604 -0.0404787 0)
(1.02444 -0.0324176 0)
(1.01595 -0.0240504 0)
(1.01045 -0.0161469 0)
(1.00719 -0.00895542 0)
(1.00565 -0.00245184 0)
(1.00552 0.00381135 0)
(1.00695 0.0102407 0)
(1.01019 0.017381 0)
(1.0158 0.0251747 0)
(1.02417 0.0332378 0)
(1.03579 0.0411253 0)
(1.05182 0.0491853 0)
(1.05627 0.054069 0)
(0.969252 0.0574251 0)
(0.534515 0.0239158 0)
(0.392267 -0.0136348 0)
(0.911803 -0.046394 0)
(1.0574 -0.0468562 0)
(1.06947 -0.0442698 0)
(1.05467 -0.0380366 0)
(1.03919 -0.0313425 0)
(1.0276 -0.024731 0)
(1.01912 -0.0176369 0)
(1.01379 -0.0102142 0)
(1.01118 -0.00268291 0)
(1.0111 0.00485462 0)
(1.01362 0.0122982 0)
(1.01881 0.019482 0)
(1.02694 0.0262205 0)
(1.03845 0.0325025 0)
(1.05406 0.0391009 0)
(1.06871 0.045264 0)
(1.05599 0.0477896 0)
(0.910344 0.0468054 0)
(0.390541 0.0137038 0)
(0.307569 -0.00452416 0)
(0.846427 -0.0324208 0)
(1.04929 -0.040082 0)
(1.07948 -0.0384113 0)
(1.06819 -0.0336755 0)
(1.05156 -0.0279187 0)
(1.03811 -0.0225716 0)
(1.0279 -0.0166761 0)
(1.02092 -0.0100088 0)
(1.01722 -0.00259038 0)
(1.01704 0.0052773 0)
(1.02041 0.0124457 0)
(1.02708 0.0188242 0)
(1.03724 0.0244618 0)
(1.05055 0.0296919 0)
(1.06695 0.0351619 0)
(1.0779 0.0396565 0)
(1.04739 0.0412387 0)
(0.843599 0.0328286 0)
(0.304793 0.00467493 0)
(0.264187 9.94955e-05 0)
(0.788809 -0.0200446 0)
(1.03306 -0.031369 0)
(1.08351 -0.0319956 0)
(1.07743 -0.0288403 0)
(1.06088 -0.0240487 0)
(1.04699 -0.0194923 0)
(1.03604 -0.0144675 0)
(1.0282 -0.00855665 0)
(1.02382 -0.00176789 0)
(1.02352 0.00550784 0)
(1.0274 0.0120414 0)
(1.03488 0.0175216 0)
(1.04562 0.0222721 0)
(1.05924 0.0262322 0)
(1.07569 0.0306571 0)
(1.08149 0.0334811 0)
(1.03042 0.032623 0)
(0.784528 0.0204967 0)
(0.260416 4.67869e-05 0)
(0.240339 0.00109031 0)
(0.738476 -0.0122183 0)
(1.01369 -0.0248917 0)
(1.08364 -0.026719 0)
(1.0826 -0.0246008 0)
(1.06758 -0.0206927 0)
(1.05407 -0.0168307 0)
(1.04324 -0.0123819 0)
(1.03527 -0.00710627 0)
(1.03068 -0.000948623 0)
(1.03031 0.00557322 0)
(1.03419 0.0114629 0)
(1.04171 0.0164152 0)
(1.05194 0.020323 0)
(1.06536 0.0238689 0)
(1.08008 0.0273089 0)
(1.08038 0.0288314 0)
(1.00879 0.0264951 0)
(0.731556 0.0128553 0)
(0.235227 -0.000916364 0)
(0.225941 0.000930036 0)
(0.695131 -0.00804383 0)
(0.992365 -0.0208327 0)
(1.08137 -0.0232193 0)
(1.08605 -0.0215021 0)
(1.07265 -0.0181431 0)
(1.05937 -0.0144946 0)
(1.04889 -0.010225 0)
(1.04098 -0.00532291 0)
(1.03619 0.000185779 0)
(1.03564 0.00575286 0)
(1.03942 0.0108814 0)
(1.04658 0.0151156 0)
(1.05675 0.0187084 0)
(1.0697 0.0218344 0)
(1.08242 0.0244773 0)
(1.077 0.0256114 0)
(0.986026 0.0226226 0)
(0.685985 0.00876921 0)
(0.219503 -0.000761406 0)
(0.2165 0.000610789 0)
(0.660415 -0.00556103 0)
(0.97264 -0.0173876 0)
(1.07897 -0.0199926 0)
(1.08926 -0.0184629 0)
(1.07722 -0.0155398 0)
(1.06396 -0.0122337 0)
(1.0536 -0.00834028 0)
(1.04577 -0.00383993 0)
(1.04085 0.00113016 0)
(1.04012 0.00609949 0)
(1.04373 0.0106699 0)
(1.05054 0.0144786 0)
(1.0602 0.0177514 0)
(1.07297 0.0201616 0)
(1.08431 0.0224997 0)
(1.0725 0.023318 0)
(0.962764 0.0196703 0)
(0.647443 0.00650181 0)
(0.208144 -0.000409401 0)
(0.209584 0.000359152 0)
(0.632333 -0.0038796 0)
(0.953249 -0.014383 0)
(1.07541 -0.017312 0)
(1.09206 -0.0160717 0)
(1.08134 -0.0133228 0)
(1.068 -0.00999106 0)
(1.05762 -0.00625748 0)
(1.04984 -0.00214646 0)
(1.0449 0.00235506 0)
(1.04397 0.00695559 0)
(1.04722 0.0108577 0)
(1.05381 0.0141179 0)
(1.063 0.016762 0)
(1.07579 0.0192633 0)
(1.0855 0.0210655 0)
(1.06693 0.0212409 0)
(0.940443 0.0170901 0)
(0.615844 0.00506382 0)
(0.199183 -0.000104174 0)
(0.204539 0.00014644 0)
(0.610521 -0.00270341 0)
(0.936332 -0.0115719 0)
(1.07228 -0.0145759 0)
(1.09483 -0.0136583 0)
(1.08532 -0.011226 0)
(1.07173 -0.00818694 0)
(1.06107 -0.00480827 0)
(1.0532 -0.000919305 0)
(1.04828 0.00336681 0)
(1.047 0.00779919 0)
(1.04968 0.0113513 0)
(1.05583 0.0142175 0)
(1.06553 0.0164954 0)
(1.07839 0.0185703 0)
(1.08629 0.0199107 0)
(1.06064 0.0196408 0)
(0.918823 0.0149504 0)
(0.588932 0.00411871 0)
(0.191321 0.000160258 0)
(0.200758 2.35276e-05 0)
(0.594104 -0.00173435 0)
(0.921716 -0.00904189 0)
(1.06912 -0.0120739 0)
(1.09785 -0.0112717 0)
(1.08971 -0.00897425 0)
(1.0756 -0.00605904 0)
(1.06423 -0.00289344 0)
(1.0558 0.000814982 0)
(1.05046 0.00507093 0)
(1.04875 0.009362 0)
(1.05118 0.0127508 0)
(1.0574 0.0150135 0)
(1.06719 0.0167553 0)
(1.08019 0.0178741 0)
(1.08635 0.0187917 0)
(1.05344 0.0179259 0)
(0.898586 0.0130202 0)
(0.566666 0.00350269 0)
(0.184325 0.000379367 0)
(0.198186 -3.60145e-05 0)
(0.582214 -0.000838379 0)
(0.909008 -0.00637264 0)
(1.06662 -0.00874822 0)
(1.10073 -0.00809721 0)
(1.094 -0.00598493 0)
(1.07986 -0.00330203 0)
(1.06817 -0.000359319 0)
(1.05915 0.00302336 0)
(1.0531 0.00687805 0)
(1.05101 0.0104484 0)
(1.05347 0.0132035 0)
(1.05979 0.0150076 0)
(1.06969 0.0159766 0)
(1.08235 0.0172661 0)
(1.08624 0.0175044 0)
(1.04684 0.0164741 0)
(0.880057 0.0112627 0)
(0.547998 0.00300617 0)
(0.177689 0.000475386 0)
(0.197372 -0.000134091 0)
(0.575318 0.000110676 0)
(0.900371 -0.00325758 0)
(1.06436 -0.00568112 0)
(1.10343 -0.00486305 0)
(1.09811 -0.0028515 0)
(1.08439 -0.00023257 0)
(1.07286 0.00275567 0)
(1.06379 0.00600422 0)
(1.05736 0.00941115 0)
(1.05474 0.0121517 0)
(1.05647 0.0141908 0)
(1.06206 0.0154013 0)
(1.07121 0.016437 0)
(1.08261 0.016469 0)
(1.08469 0.016359 0)
(1.03816 0.0145383 0)
(0.86201 0.00933114 0)
(0.532816 0.0025018 0)
(0.171835 0.000475868 0)
(0.197983 -0.000114024 0)
(0.573712 0.00109232 0)
(0.893231 -0.000898964 0)
(1.06333 -0.00230602 0)
(1.10598 -0.0014476 0)
(1.10165 0.000426851 0)
(1.08832 0.0028014 0)
(1.07689 0.00577976 0)
(1.06773 0.00895473 0)
(1.06081 0.0121261 0)
(1.05736 0.0145443 0)
(1.05814 0.0161117 0)
(1.0629 0.0166856 0)
(1.07113 0.0169034 0)
(1.08199 0.0163179 0)
(1.0822 0.0155908 0)
(1.03002 0.0134598 0)
(0.846429 0.00806229 0)
(0.52031 0.00227243 0)
(0.166611 0.00047522 0)
(0.200269 0.000411447 0)
(0.574887 0.00164862 0)
(0.890438 0.00208721 0)
(1.0624 0.00066533 0)
(1.10838 0.00195269 0)
(1.10476 0.00393859 0)
(1.09134 0.00646478 0)
(1.07945 0.00938428 0)
(1.06975 0.0125638 0)
(1.06228 0.0155999 0)
(1.05826 0.0177645 0)
(1.05833 0.0186657 0)
(1.06246 0.0186104 0)
(1.07053 0.0179663 0)
(1.08057 0.0168677 0)
(1.078 0.0154854 0)
(1.01958 0.0126316 0)
(0.830289 0.00717382 0)
(0.508735 0.00228845 0)
(0.161618 0.000492479 0)
(0.205271 0.000623779 0)
(0.57963 0.00253898 0)
(0.891811 0.00407078 0)
(1.06345 0.00452652 0)
(1.11113 0.00612428 0)
(1.10827 0.00823024 0)
(1.09465 0.0108056 0)
(1.08212 0.0137521 0)
(1.07146 0.0167834 0)
(1.06269 0.0194841 0)
(1.05736 0.0212325 0)
(1.05674 0.0214554 0)
(1.06065 0.0206256 0)
(1.06859 0.0191441 0)
(1.07755 0.0175418 0)
(1.07356 0.0156347 0)
(1.01089 0.0124666 0)
(0.81767 0.00703745 0)
(0.498707 0.00247255 0)
(0.156691 0.000505411 0)
(0.210915 0.000654824 0)
(0.58745 0.00340692 0)
(0.896028 0.00634603 0)
(1.06648 0.00779181 0)
(1.11516 0.0100557 0)
(1.1127 0.0127266 0)
(1.09894 0.0159686 0)
(1.08601 0.0191629 0)
(1.07466 0.0223386 0)
(1.06491 0.024862 0)
(1.05858 0.0260242 0)
(1.05652 0.0251825 0)
(1.05901 0.0234786 0)
(1.06597 0.021482 0)
(1.07374 0.0192865 0)
(1.06724 0.0165303 0)
(0.99891 0.0126581 0)
(0.801915 0.00722529 0)
(0.486901 0.00279789 0)
(0.151028 0.000538416 0)
(0.219526 0.000843538 0)
(0.601331 0.00434151 0)
(0.905671 0.0087387 0)
(1.07216 0.0114677 0)
(1.12015 0.014087 0)
(1.1182 0.0174103 0)
(1.1042 0.0208733 0)
(1.09069 0.024697 0)
(1.07843 0.0282884 0)
(1.06717 0.0309223 0)
(1.05855 0.031716 0)
(1.05484 0.0304254 0)
(1.05665 0.0279767 0)
(1.06283 0.0248247 0)
(1.06945 0.0217761 0)
(1.06103 0.0184123 0)
(0.989337 0.0141254 0)
(0.790169 0.00848304 0)
(0.475996 0.00339385 0)
(0.145053 0.000605213 0)
(0.228733 0.0011324 0)
(0.615453 0.00514924 0)
(0.917178 0.0108032 0)
(1.08013 0.0146596 0)
(1.12722 0.0184259 0)
(1.12461 0.0223716 0)
(1.10961 0.026793 0)
(1.09505 0.0313446 0)
(1.08145 0.0355273 0)
(1.06877 0.0387319 0)
(1.05877 0.0394048 0)
(1.05358 0.0374659 0)
(1.0532 0.0340485 0)
(1.05813 0.0303524 0)
(1.06351 0.0264611 0)
(1.05224 0.0221615 0)
(0.97457 0.0166565 0)
(0.770942 0.01013 0)
(0.459571 0.00418045 0)
(0.136946 0.000738296 0)
(0.242134 0.00150453 0)
(0.636367 0.00699991 0)
(0.933883 0.0142047 0)
(1.09021 0.0195302 0)
(1.13457 0.0237614 0)
(1.13174 0.0287719 0)
(1.1159 0.0339865 0)
(1.10002 0.039417 0)
(1.08451 0.0444842 0)
(1.06937 0.0480973 0)
(1.0563 0.0483595 0)
(1.04912 0.045833 0)
(1.04831 0.0418145 0)
(1.05258 0.0366865 0)
(1.05622 0.0320984 0)
(1.04267 0.0262073 0)
(0.961357 0.0197727 0)
(0.75573 0.0123193 0)
(0.444044 0.00507384 0)
(0.128273 0.000855734 0)
(0.25804 0.00200405 0)
(0.660554 0.00847673 0)
(0.953692 0.0177652 0)
(1.10347 0.0245906 0)
(1.14506 0.030443 0)
(1.141 0.0366576 0)
(1.12381 0.0430815 0)
(1.10621 0.0498854 0)
(1.08851 0.0556758 0)
(1.07085 0.0594869 0)
(1.05566 0.0593589 0)
(1.04639 0.0562755 0)
(1.04252 0.0509862 0)
(1.04467 0.0448637 0)
(1.04667 0.0390255 0)
(1.02896 0.0318101 0)
(0.940693 0.0235691 0)
(0.729044 0.0145 0)
(0.419874 0.00594807 0)
(0.116465 0.000983197 0)
(0.280147 0.00279195 0)
(0.693696 0.01217 0)
(0.980524 0.0237646 0)
(1.12047 0.0328164 0)
(1.15714 0.0396741 0)
(1.15205 0.0471469 0)
(1.13334 0.0552748 0)
(1.11366 0.063137 0)
(1.09319 0.0698036 0)
(1.07211 0.073802 0)
(1.05323 0.0730734 0)
(1.04088 0.0682222 0)
(1.03612 0.0618787 0)
(1.03662 0.0542184 0)
(1.03548 0.0464336 0)
(1.0134 0.0372954 0)
(0.920765 0.0275429 0)
(0.707492 0.0172448 0)
(0.398199 0.00702917 0)
(0.104741 0.00104144 0)
(0.310447 0.00373195 0)
(0.737113 0.0150141 0)
(1.01455 0.0310078 0)
(1.14214 0.0427898 0)
(1.17298 0.0519047 0)
(1.16546 0.0622262 0)
(1.14436 0.0715544 0)
(1.12183 0.0805994 0)
(1.09802 0.0875098 0)
(1.0733 0.0906135 0)
(1.05105 0.0882801 0)
(1.03594 0.0824422 0)
(1.0272 0.0743198 0)
(1.02442 0.0652063 0)
(1.02065 0.0556526 0)
(0.993241 0.0450099 0)
(0.892485 0.0329857 0)
(0.670541 0.0204586 0)
(0.363411 0.0079972 0)
(0.0886799 0.00114565 0)
(0.346362 0.00742669 0)
(0.792043 0.0245158 0)
(1.05712 0.0436727 0)
(1.16924 0.0589456 0)
(1.19214 0.0708838 0)
(1.18077 0.0826845 0)
(1.1563 0.0937056 0)
(1.13 0.102984 0)
(1.10196 0.109399 0)
(1.07274 0.11139 0)
(1.04661 0.10761 0)
(1.02826 0.098866 0)
(1.01801 0.0884067 0)
(1.01274 0.0771082 0)
(1.004 0.0652522 0)
(0.970514 0.0522237 0)
(0.863483 0.038447 0)
(0.639353 0.0239715 0)
(0.334117 0.00945332 0)
(0.0741585 0.00107216 0)
(0.428275 0.0112032 0)
(0.874786 0.0351545 0)
(1.11453 0.0638129 0)
(1.20326 0.0839016 0)
(1.21541 0.0967863 1.25249e-33)
(1.19803 0.11238 -5.43455e-34)
(1.16854 0.123192 0)
(1.13766 0.131662 0)
(1.105 0.136337 0)
(1.07113 0.135451 0)
(1.04041 0.127853 0)
(1.01815 0.116188 0)
(1.00365 0.103654 0)
(0.99444 0.0905475 0)
(0.982883 0.0769779 0)
(0.94327 0.0624877 0)
(0.825934 0.0459265 0)
(0.588412 0.0284499 0)
(0.284361 0.00966978 0)
(0.0529544 0.000797851 0)
(0.497609 0.0262489 1.06562e-19)
(0.970017 0.0591197 -7.99047e-20)
(1.17562 0.0965428 0)
(1.23846 0.119458 5.71827e-20)
(1.24067 0.136224 -4.63314e-20)
(1.21478 0.151767 5.73379e-34)
(1.17992 0.161121 0)
(1.14381 0.167647 2.81127e-20)
(1.1056 0.169841 -9.07313e-20)
(1.06625 0.166056 1.81827e-20)
(1.03135 0.155703 0)
(1.00612 0.14148 -4.30914e-20)
(0.989218 0.12549 -5.07807e-20)
(0.976216 0.109422 8.85515e-20)
(0.955716 0.0930278 -6.95673e-20)
(0.904161 0.0751595 0)
(0.771749 0.0555387 -2.48213e-20)
(0.522328 0.033029 0)
(0.231381 0.0122661 -1.36841e-19)
(0.0350515 0.00121062 1.6172e-19)
(0.530171 0.0542208 -1.32782e-20)
(1.02718 0.102263 2.72874e-19)
(1.22067 0.147099 -2.54031e-20)
(1.26961 0.167353 -1.63333e-19)
(1.26314 0.184753 -9.84581e-20)
(1.22956 0.198475 1.59128e-19)
(1.18929 0.205725 0)
(1.14755 0.210258 0)
(1.10373 0.209913 1.45142e-19)
(1.05877 0.202791 0)
(1.0175 0.188467 1.58579e-19)
(0.984306 0.169371 4.62333e-20)
(0.959594 0.151286 3.41812e-22)
(0.939507 0.134358 -9.63607e-20)
(0.917793 0.117913 0)
(0.86401 0.100261 0)
(0.728348 0.0746048 -4.05313e-19)
(0.485004 0.0475098 1.01446e-18)
(0.216394 0.0180009 -6.01511e-19)
(0.0308236 0.00340239 -7.10809e-19)
(0.535443 0.0770651 -2.13727e-19)
(1.06012 0.159067 7.44289e-20)
(1.25443 0.20836 3.36083e-20)
(1.29495 0.226617 2.8899e-19)
(1.28084 0.241763 1.39572e-20)
(1.24081 0.251396 -4.20499e-19)
(1.19523 0.255175 1.3854e-19)
(1.14784 0.256738 0)
(1.09833 0.253068 -3.08764e-19)
(1.04744 0.242449 2.60409e-19)
(1.00062 0.225066 -4.26758e-19)
(0.965237 0.205412 1.97756e-19)
(0.940231 0.187269 -1.22997e-19)
(0.919638 0.168923 2.79492e-19)
(0.889116 0.149587 0)
(0.829396 0.128414 -1.00219e-19)
(0.697806 0.100679 0)
(0.473547 0.062963 5.56395e-19)
(0.219151 0.0297122 -1.32105e-18)
(0.0383807 0.00476953 8.27347e-19)
(0.526086 0.10902 7.68933e-19)
(1.07506 0.216178 -3.21446e-19)
(1.2737 0.273729 -6.08984e-20)
(1.31145 0.290755 0)
(1.29227 0.303351 -2.05497e-19)
(1.24762 0.308318 2.50115e-19)
(1.1976 0.307981 -1.48202e-19)
(1.14534 0.305715 0)
(1.091 0.297909 2.19814e-19)
(1.03514 0.283247 -1.84079e-19)
(0.983322 0.261795 3.68487e-19)
(0.94177 0.239155 0)
(0.908528 0.216959 -2.62002e-19)
(0.879194 0.196371 1.4904e-19)
(0.853313 0.178603 3.66894e-19)
(0.80144 0.159764 -3.22659e-19)
(0.681189 0.129265 5.14616e-19)
(0.473025 0.0864835 -1.13916e-18)
(0.234617 0.0433445 7.19441e-19)
(0.0500005 0.00933282 -9.00472e-19)
(0.512712 0.133381 -3.79999e-19)
(1.08135 0.271221 2.77495e-19)
(1.2842 0.34042 -1.97452e-19)
(1.32018 0.356275 3.39956e-19)
(1.29729 0.366272 -2.89024e-19)
(1.2495 0.366672 8.4755e-20)
(1.19602 0.362308 3.64827e-21)
(1.13975 0.356018 -2.70154e-19)
(1.08094 0.34412 -2.32524e-19)
(1.01965 0.325699 -3.94944e-19)
(0.963181 0.301423 -7.90817e-19)
(0.9189 0.276014 -2.3656e-19)
(0.886782 0.253762 2.49594e-21)
(0.862935 0.235719 -4.99215e-19)
(0.83005 0.217108 -6.34197e-21)
(0.774143 0.192322 4.661e-19)
(0.660096 0.15811 -1.39982e-19)
(0.469445 0.109945 -8.19419e-20)
(0.246615 0.0587851 0)
(0.059432 0.0144724 1.89798e-18)
(0.494117 0.153947 0)
(1.07287 0.320438 -6.68215e-20)
(1.28551 0.40345 -6.0664e-20)
(1.32239 0.419771 -1.23964e-20)
(1.29702 0.428258 2.9911e-19)
(1.24695 0.424756 -1.87914e-19)
(1.19076 0.416718 1.65755e-19)
(1.13123 0.406532 4.3881e-19)
(1.06879 0.390554 -1.27251e-19)
(1.00399 0.367765 2.01858e-19)
(0.944483 0.338954 4.24291e-19)
(0.896865 0.31071 5.12183e-19)
(0.859764 0.287256 -3.03077e-19)
(0.826409 0.264854 5.37597e-19)
(0.799881 0.244545 -4.23073e-19)
(0.754067 0.224215 0)
(0.652281 0.187745 -1.05764e-18)
(0.474266 0.135345 1.42427e-18)
(0.25799 0.0749373 1.06099e-19)
(0.0667226 0.0197227 -1.98983e-18)
(0.48003 0.174718 -5.24457e-21)
(1.06536 0.3697 4.07766e-19)
(1.28294 0.46502 4.52621e-19)
(1.31986 0.481661 -4.46531e-19)
(1.29235 0.488579 2.23849e-19)
(1.24065 0.481466 -1.9318e-19)
(1.18241 0.470168 3.42013e-19)
(1.12037 0.456372 -1.43229e-19)
(1.05497 0.436561 -5.25773e-19)
(0.986408 0.410091 4.04239e-22)
(0.922501 0.37886 -4.57468e-19)
(0.87317 0.348202 -5.48447e-19)
(0.837248 0.321644 3.30505e-19)
(0.812883 0.300233 -1.92575e-19)
(0.780361 0.280163 4.5633e-19)
(0.730563 0.253818 0)
(0.633195 0.216001 -6.51597e-19)
(0.469132 0.15859 9.61924e-19)
(0.263669 0.0898301 1.82511e-18)
(0.0713616 0.0246065 -2.14803e-18)
(0.465035 0.192148 6.42884e-19)
(1.05096 0.413577 -3.38319e-19)
(1.27568 0.522087 -3.99016e-19)
(1.31379 0.540058 4.74317e-19)
(1.28456 0.546215 1.13566e-20)
(1.23148 0.536179 -3.98729e-19)
(1.17162 0.521981 -1.89756e-19)
(1.10763 0.504815 -1.67357e-19)
(1.0398 0.481333 -2.89115e-19)
(0.969119 0.451299 4.61371e-19)
(0.90432 0.414864 4.72445e-19)
(0.85275 0.380959 8.73561e-19)
(0.813666 0.353454 0)
(0.77841 0.328324 5.81541e-21)
(0.753175 0.306732 -1.24019e-18)
(0.712541 0.285016 2.88743e-19)
(0.623098 0.244239 1.39925e-18)
(0.464477 0.182025 -4.12349e-19)
(0.262013 0.103413 8.59094e-19)
(0.0720715 0.0278804 -7.20428e-20)
(0.45631 0.211247 6.02513e-21)
(1.04045 0.45779 -2.65072e-19)
(1.26684 0.577501 -2.71777e-19)
(1.30508 0.59635 7.15401e-19)
(1.27422 0.601358 -6.55728e-19)
(1.22023 0.588474 4.14635e-19)
(1.15923 0.571704 1.99619e-19)
(1.0937 0.551578 5.17482e-19)
(1.02397 0.525111 5.97702e-19)
(0.950184 0.491271 -5.15075e-19)
(0.88114 0.451965 0)
(0.828154 0.415796 -3.22808e-19)
(0.790734 0.383967 3.70612e-19)
(0.765926 0.361407 4.53895e-19)
(0.734073 0.338706 -2.62974e-19)
(0.687871 0.30895 -6.34621e-19)
(0.601499 0.268484 -1.88964e-19)
(0.452121 0.199732 -1.27869e-21)
(0.254225 0.113246 0)
(0.069645 0.0299765 0)
(0.447837 0.226906 2.30551e-19)
(1.0272 0.497489 0)
(1.2557 0.628628 -2.74948e-19)
(1.29438 0.64921 9.90409e-20)
(1.2623 0.653519 7.10454e-19)
(1.20756 0.638188 -1.87936e-19)
(1.14545 0.619145 2.07733e-19)
(1.07849 0.596419 -3.5919e-19)
(1.00646 0.566849 4.6341e-19)
(0.930253 0.52994 -1.55536e-19)
(0.860912 0.487874 2.69507e-19)
(0.807617 0.446587 1.02643e-18)
(0.767166 0.41481 1.36576e-20)
(0.732031 0.384945 -4.76936e-19)
(0.707231 0.359809 8.67138e-19)
(0.670652 0.336302 4.47262e-21)
(0.589678 0.289084 2.02168e-19)
(0.441042 0.216731 -9.63307e-19)
(0.244931 0.11995 9.82457e-19)
(0.0655196 0.0315354 -1.16817e-18)
(0.441808 0.245842 3.89203e-23)
(1.01629 0.536834 0)
(1.24404 0.677764 0)
(1.2824 0.699671 -1.20644e-19)
(1.24916 0.702877 -2.42781e-19)
(1.19382 0.685242 2.21188e-19)
(1.13099 0.664313 -4.19002e-19)
(1.06291 0.639265 0)
(0.989768 0.607622 -6.73464e-19)
(0.912923 0.568514 7.41006e-19)
(0.840676 0.521421 7.48628e-19)
(0.783098 0.477553 -3.73271e-19)
(0.742275 0.441193 -4.42899e-19)
(0.718163 0.413429 1.03407e-18)
(0.68821 0.388735 -3.08237e-19)
(0.645482 0.354133 -3.66346e-19)
(0.56549 0.308221 -2.18724e-19)
(0.423794 0.227845 -1.03618e-18)
(0.233017 0.124468 1.49638e-19)
(0.0603474 0.0318517 1.25757e-18)
(0.438138 0.264421 7.721e-20)
(1.00493 0.572937 1.43384e-19)
(1.23128 0.723213 2.34384e-20)
(1.2695 0.746983 -3.84182e-23)
(1.23539 0.749457 -1.54484e-19)
(1.17961 0.72973 4.36929e-19)
(1.11597 0.706981 0)
(1.047 0.67988 2.10519e-19)
(0.972425 0.645739 -1.65997e-19)
(0.892184 0.602715 1.24591e-18)
(0.815988 0.552624 -1.6791e-19)
(0.758944 0.506992 1.89588e-19)
(0.720282 0.467694 0)
(0.682673 0.434485 -5.57564e-19)
(0.660263 0.404479 6.67222e-19)
(0.626561 0.377122 0)
(0.550236 0.322022 -4.7163e-19)
(0.406613 0.23837 1.38628e-18)
(0.21999 0.126857 1.62891e-19)
(0.0545538 0.0313395 -1.54532e-18)
(0.436224 0.281307 1.47167e-19)
(0.995436 0.608215 -1.87975e-19)
(1.21866 0.766565 0)
(1.25623 0.791786 -2.5596e-19)
(1.22129 0.793312 0)
(1.16509 0.771669 -4.92026e-19)
(1.10092 0.747402 0)
(1.03106 0.718581 0)
(0.95461 0.682847 -1.99057e-19)
(0.872155 0.639207 -1.17719e-18)
(0.795557 0.588685 -1.37749e-18)
(0.735571 0.536855 2.14771e-19)
(0.690265 0.493677 7.62726e-19)
(0.668649 0.458768 6.08272e-19)
(0.639873 0.429297 -2.14113e-18)
(0.599708 0.388354 -8.55019e-19)
(0.523363 0.336007 5.00663e-19)
(0.385647 0.243187 0)
(0.205789 0.12735 1.40232e-18)
(0.0486016 0.0298885 -1.6624e-18)
(0.434861 0.297075 -1.42411e-19)
(0.985511 0.640539 1.89486e-19)
(1.20575 0.806539 0)
(1.24277 0.833652 -1.04664e-20)
(1.20719 0.834667 1.16395e-19)
(1.15068 0.811341 0)
(1.0859 0.785559 1.27847e-19)
(1.01514 0.755103 1.33155e-19)
(0.937885 0.717682 -3.96119e-19)
(0.854879 0.670998 1.65191e-19)
(0.77457 0.614874 0)
(0.711075 0.561815 8.98142e-19)
(0.669782 0.516469 4.30428e-21)
(0.631634 0.476244 3.27336e-19)
(0.609788 0.439115 3.86745e-19)
(0.578809 0.407557 0)
(0.505553 0.342669 -8.18256e-19)
(0.366171 0.24779 1.60643e-18)
(0.191016 0.125962 -1.70093e-18)
(0.0428728 0.0279333 3.57624e-18)
(0.433837 0.31213 0)
(0.976966 0.672277 0)
(1.19338 0.844558 1.23099e-19)
(1.22942 0.873084 0)
(1.1932 0.873393 0)
(1.13642 0.848608 -5.13945e-19)
(1.07119 0.821646 1.34048e-19)
(0.999729 0.789759 1.72856e-20)
(0.920916 0.751158 -9.75577e-20)
(0.833925 0.704085 0)
(0.749266 0.648763 -2.04525e-19)
(0.685294 0.59123 -7.28683e-19)
(0.639116 0.539241 -8.63653e-19)
(0.615325 0.497057 -3.42766e-19)
(0.588516 0.460682 4.18287e-19)
(0.550367 0.411405 -9.85353e-19)
(0.47675 0.35152 1.75865e-18)
(0.342579 0.246821 4.86134e-21)
(0.176071 0.122832 -1.63185e-18)
(0.0375519 0.0256383 -2.40972e-19)
(0.432778 0.326843 0)
(0.968208 0.701584 1.36495e-19)
(1.18111 0.879631 -1.21159e-19)
(1.21629 0.909867 0)
(1.17953 0.909856 0)
(1.12253 0.883832 1.08211e-18)
(1.05691 0.855693 0)
(0.984788 0.822577 0)
(0.90471 0.782843 -8.83293e-19)
(0.817561 0.733777 2.10778e-19)
(0.73395 0.673865 -1.86329e-18)
(0.664992 0.615301 0)
(0.61566 0.563492 -9.30667e-19)
(0.57598 0.51284 1.11911e-20)
(0.55455 0.464969 -1.34144e-18)
(0.527172 0.425184 5.29767e-19)
(0.458157 0.34889 2.85227e-21)
(0.325061 0.245002 -1.85407e-18)
(0.163114 0.118538 8.78514e-19)
(0.0330983 0.0235639 2.58066e-19)
(0.431841 0.341117 0)
(0.960682 0.730356 1.0964e-19)
(1.16943 0.913075 -1.3032e-19)
(1.20342 0.944424 -4.12995e-19)
(1.16612 0.943814 -1.51242e-19)
(1.10902 0.916743 1.35048e-19)
(1.04313 0.887785 -1.22641e-19)
(0.970397 0.853658 1.01128e-18)
(0.889285 0.812904 9.44874e-19)
(0.799025 0.763808 1.6784e-18)
(0.708662 0.706016 1.5489e-18)
(0.634803 0.64404 2.6427e-19)
(0.584315 0.583534 1.33583e-18)
(0.556707 0.531405 8.08759e-19)
(0.53037 0.484157 9.61454e-19)
(0.495637 0.418824 -5.77465e-19)
(0.427624 0.349378 -6.77915e-19)
(0.302389 0.234565 7.94198e-19)
(0.150584 0.111753 -4.69543e-19)
(0.0317223 0.0254442 8.33949e-19)
(0.430843 0.35494 -1.09815e-19)
(0.952943 0.756728 -1.81716e-19)
(1.1579 0.943928 -6.53213e-20)
(1.19094 0.976648 1.63115e-20)
(1.15324 0.975738 4.53545e-19)
(1.09603 0.947768 -3.07509e-19)
(1.02993 0.917986 1.27387e-19)
(0.956786 0.882976 -2.12709e-20)
(0.874868 0.841775 -1.11358e-18)
(0.78393 0.791621 -1.81057e-18)
(0.693653 0.730676 1.11265e-19)
(0.618653 0.667644 0)
(0.560828 0.609183 0)
(0.51354 0.54832 -4.24159e-19)
(0.489344 0.48275 -1.56148e-18)
(0.46614 0.426336 1.24263e-18)
(0.410102 0.326602 7.39185e-19)
(0.302254 0.214958 0)
(0.158876 0.0898354 1.49761e-18)
(0.0257208 0.00284874 -8.92591e-19)
(0.429973 0.368068 6.05853e-20)
(0.946167 0.782465 -4.83383e-20)
(1.14693 0.97335 1.26106e-19)
(1.1788 1.00686 2.02632e-19)
(1.14066 1.00535 1.45821e-19)
(1.08347 0.976588 -8.64459e-20)
(1.01731 0.946315 0)
(0.943905 0.910702 -1.28565e-18)
(0.861164 0.868834 1.35929e-19)
(0.767686 0.818737 0)
(0.671669 0.760047 0)
(0.588745 0.696707 1.61935e-19)
(0.52699 0.630407 2.07909e-19)
(0.491436 0.566402 -4.55833e-19)
(0.459449 0.50338 1.11917e-18)
(0.424786 0.410006 -1.34681e-18)
(0.368965 0.311628 -1.58037e-18)
(0.290894 0.190304 1.39469e-18)
(0.197748 0.116604 -5.35013e-19)
(0.1164 0.0861931 3.13541e-19)
(0.428875 0.380434 -4.39947e-20)
(0.939075 0.805837 0)
(1.13614 1.00042 0)
(1.16714 1.03502 7.93292e-20)
(1.12873 1.03319 -6.4219e-20)
(1.07158 1.00372 -2.09746e-20)
(1.00543 0.972886 5.20891e-19)
(0.931806 0.936772 1.38668e-18)
(0.848232 0.89463 2.06204e-18)
(0.753837 0.844358 -1.32777e-19)
(0.657843 0.783635 2.64219e-19)
(0.574225 0.719279 -1.47834e-18)
(0.505858 0.657878 -1.42e-18)
(0.444087 0.588388 -2.43615e-19)
(0.405188 0.500315 0)
(0.376263 0.419185 -1.1059e-20)
(0.333513 0.253278 8.57437e-19)
(0.289185 0.0905933 -1.46833e-18)
(0.248657 -0.0530561 1.1258e-18)
(0.0798748 -0.093517 9.51516e-19)
(0.427845 0.392234 8.59926e-20)
(0.932726 0.828669 2.55595e-20)
(1.12584 1.02633 6.70082e-21)
(1.15576 1.06157 -5.53634e-20)
(1.11701 1.05922 0)
(1.05993 1.0292 -6.29313e-19)
(0.993756 0.998137 -7.0454e-19)
(0.91988 0.961734 4.02777e-20)
(0.835726 0.91957 -1.09351e-18)
(0.739409 0.869409 -1.30983e-19)
(0.638094 0.81213 1.21658e-19)
(0.545836 0.751019 1.29553e-18)
(0.469937 0.683317 1.38652e-18)
(0.419635 0.608993 2.3632e-19)
(0.370879 0.53373 1.17734e-18)
(0.306357 0.40139 0)
(0.198903 0.243856 0)
(0.0283809 0.249945 9.97642e-19)
(-0.0724221 0.628843 -3.27798e-20)
(0.00280511 1.51781 -1.18402e-18)
(0.426487 0.403427 -4.1592e-20)
(0.926108 0.849488 -1.38068e-19)
(1.11569 1.05038 3.23651e-19)
(1.14477 1.08672 -3.10201e-19)
(1.10578 1.08425 8.55119e-20)
(1.04873 1.05386 -6.81742e-19)
(0.982549 1.02261 0)
(0.908492 0.986229 -1.19864e-18)
(0.823683 0.944397 0)
(0.726319 0.895321 1.96249e-18)
(0.624054 0.836532 -1.37981e-19)
(0.531995 0.774991 1.54713e-19)
(0.452479 0.715917 1.58232e-18)
(0.366392 0.648335 -5.00931e-19)
(0.280228 0.544141 -5.96417e-19)
(0.208583 0.462299 0)
(0.10234 0.556161 0)
(0.0326421 1.28076 0)
(0.0759265 2.44146 -5.70712e-19)
(0.105447 2.90011 -3.46685e-19)
(0.425138 0.414092 0)
(0.920175 0.869794 0)
(1.10603 1.07345 -1.07767e-19)
(1.13412 1.11046 2.70607e-19)
(1.09478 1.10774 -2.9226e-19)
(1.03779 1.07712 6.41878e-19)
(0.971556 1.04604 8.63755e-20)
(0.897333 1.00987 -6.72515e-20)
(0.811997 0.968633 1.49109e-19)
(0.712935 0.92014 -2.25452e-18)
(0.606905 0.865875 2.60802e-19)
(0.506795 0.81208 1.29776e-18)
(0.413434 0.750612 -1.58331e-18)
(0.342647 0.673775 -1.67829e-18)
(0.272224 0.608671 5.60604e-19)
(0.203276 0.731133 0)
(0.136647 1.51449 7.81252e-19)
(0.134845 2.67838 8.83644e-19)
(0.142184 3.08273 -9.88756e-19)
(0.132908 3.21972 1.07917e-18)
(0.42347 0.424138 0)
(0.913991 0.888126 -4.97964e-20)
(1.09655 1.09475 3.11634e-20)
(1.12391 1.13292 -2.71073e-19)
(1.08435 1.1303 3.06774e-19)
(1.0274 1.09962 0)
(0.9612 1.06866 0)
(0.886825 1.03289 0)
(0.80097 0.992534 9.50186e-19)
(0.701179 0.946086 1.1434e-19)
(0.593774 0.892427 0)
(0.491829 0.835619 -1.29879e-18)
(0.406322 0.784837 0)
(0.29299 0.728895 1.20442e-18)
(0.21314 0.803754 -8.11687e-19)
(0.166863 1.45088 -6.47232e-19)
(0.170437 2.66786 -1.52529e-18)
(0.190476 3.12614 -8.21901e-19)
(0.180925 3.27002 -1.19244e-18)
(0.165966 3.31075 9.43049e-19)
(0.421904 0.433479 7.64247e-21)
(0.908453 0.906005 1.53649e-20)
(1.08759 1.11521 2.96818e-20)
(1.11407 1.15408 2.34585e-19)
(1.07419 1.15144 0)
(1.01731 1.12084 0)
(0.951053 1.09034 0)
(0.876607 1.05516 8.26788e-20)
(0.790474 1.01585 -1.19134e-18)
(0.689568 0.970711 0)
(0.580193 0.921382 0)
(0.476909 0.87676 0)
(0.367364 0.827928 0)
(0.310435 0.816364 8.99498e-19)
(0.280221 1.18185 2.17664e-18)
(0.266121 2.35257 6.40541e-19)
(0.276764 3.08191 1.34449e-18)
(0.270007 3.28848 -1.07636e-18)
(0.219915 3.35572 4.03808e-19)
(0.186194 3.36828 0)
(0.420074 0.442373 -2.99945e-21)
(0.902454 0.922457 5.84863e-20)
(1.07855 1.13459 4.25787e-20)
(1.10443 1.17469 2.097e-20)
(1.06437 1.17236 -8.16317e-20)
(1.00757 1.1419 7.4115e-19)
(0.941407 1.11174 -6.66981e-20)
(0.866906 1.07719 -1.15701e-18)
(0.780575 1.03922 0)
(0.679613 0.996957 -1.30394e-19)
(0.568131 0.949957 1.18617e-19)
(0.45786 0.900269 0)
(0.373118 0.867679 0)
(0.320286 0.994298 -1.12652e-18)
(0.28828 1.84341 1.72625e-19)
(0.283982 2.93459 -5.20877e-19)
(0.30307 3.29331 1.12833e-18)
(0.276474 3.39418 8.91505e-19)
(0.20903 3.41946 -1.35768e-18)
(0.183353 3.42825 6.79526e-19)
(0.418037 0.45138 8.09979e-21)
(0.896523 0.940052 -2.48913e-20)
(1.06924 1.15487 -6.48357e-20)
(1.09436 1.19562 0)
(1.05407 1.19331 0)
(0.997438 1.163 -5.65123e-19)
(0.931341 1.13338 5.55822e-19)
(0.857058 1.09959 1.04343e-18)
(0.77081 1.06278 5.80114e-20)
(0.668782 1.02187 1.82867e-18)
(0.558258 0.978611 -1.91893e-18)
(0.45283 0.942541 0)
(0.375086 0.953009 0)
(0.3474 1.34911 -8.05864e-19)
(0.350207 2.46009 -9.48503e-19)
(0.391687 3.19928 0)
(0.417383 3.37879 -1.33491e-18)
(0.347312 3.44328 -6.86334e-20)
(0.27436 3.48749 9.56733e-19)
(0.25042 3.5133 -4.04555e-19)
(0.415361 0.460804 -2.46268e-20)
(0.889319 0.95756 4.41912e-21)
(1.05887 1.17566 0)
(1.08352 1.21764 0)
(1.0432 1.21556 0)
(0.986815 1.18522 0)
(0.92107 1.15582 -6.08102e-19)
(0.847024 1.12249 1.06951e-18)
(0.760952 1.08703 0)
(0.660262 1.04933 -1.67152e-18)
(0.548438 1.01049 3.48031e-18)
(0.439193 0.977225 1.36561e-19)
(0.381882 1.05654 1.69671e-19)
(0.392356 1.73069 1.34308e-18)
(0.416739 2.88632 -7.68702e-19)
(0.454494 3.32685 0)
(0.436342 3.45568 4.0714e-19)
(0.348455 3.5436 9.63014e-20)
(0.267402 3.61067 2.44957e-20)
(0.19175 3.59041 2.06091e-19)
(0.412373 0.470444 1.59643e-20)
(0.881901 0.977033 -2.63637e-20)
(1.04782 1.19802 0)
(1.07183 1.24035 4.60687e-20)
(1.03141 1.2381 -2.23097e-19)
(0.975393 1.20772 0)
(0.909977 1.17868 0)
(0.836554 1.14605 -1.92033e-18)
(0.751104 1.11156 -1.2361e-19)
(0.649541 1.07508 1.73813e-18)
(0.537913 1.03827 -1.67394e-18)
(0.453052 1.02601 9.28838e-19)
(0.421145 1.24283 0)
(0.44497 2.1632 -7.26935e-19)
(0.485449 3.14311 4.53837e-19)
(0.544008 3.43416 3.61536e-19)
(0.537918 3.53384 0)
(0.471239 3.62255 6.57841e-20)
(0.397214 3.6664 -2.04742e-19)
(0.314544 3.6372 -3.22666e-20)
(0.408352 0.480438 -5.84793e-20)
(0.872785 0.996242 4.52296e-20)
(1.03545 1.22092 -2.83298e-20)
(1.05916 1.26437 1.57587e-20)
(1.01885 1.26214 3.37698e-19)
(0.963332 1.23144 0)