/*--------------------------------*- C++ -*----------------------------------*\
  =========                 |
  \\      /  F ield         | OpenFOAM: The Open Source CFD Toolbox
   \\    /   O peration     | Website:  https://openfoam.org
    \\  /    A nd           | Version:  9
     \\/     M anipulation  |
\*---------------------------------------------------------------------------*/
FoamFile
{
    format      ascii;
    class       volScalarField;
    location    "33";
    object      p;
}
// * * * * * * * * * * * * * * * * * * * * * * * * * * * * * * * * * * * * * //

dimensions      [0 2 -2 0 0 0 0];

internalField   nonuniform List<scalar> 
918
(
0.570434
1.22097
0.0141572
0.569729
-0.00996437
1.18802
-0.485584
0.740279
0.550554
-0.0760036
-0.0108648
0.544803
1.04848
0.814879
-1.11588
0.115544
0.691203
-0.365481
0.549553
-0.0859882
0.773153
0.557161
0.560198
0.550788
0.611261
0.796741
0.929188
-0.0522864
-0.00683003
-0.0267154
0.00343735
0.0108344
0.0393535
1.07168
1.12275
1.14543
0.518998
0.344578
-0.345958
-0.417713
-0.409693
-0.525208
0.731726
0.733698
-0.155383
0.741063
0.750726
0.537815
0.549917
0.550808
0.551918
0.55086
0.552262
0.427035
-0.0836516
-0.114417
-0.0549308
-0.0462187
0.101789
-0.0137003
-0.0185451
-0.00774619
-0.012567
0.470666
0.54096
0.538064
0.549573
0.557371
1.16051
1.13244
1.15858
1.07219
1.08873
1.02648
0.999066
0.835426
0.856815
0.799695
0.78884
-1.55385
-2.51699
-0.51963
-0.265101
-0.0427386
0.100431
0.102807
0.68214
0.681876
0.692233
0.704672
1.09254
-0.360327
-0.482686
0.549695
0.548488
0.556873
0.557566
0.553576
0.552671
-0.0808845
-0.0679811
-0.0949238
-0.0900292
-0.089009
0.762206
0.761067
0.551333
0.548354
0.56473
0.584882
0.576918
0.304424
0.615861
0.63
0.617344
0.786183
0.780404
0.789236
0.90269
0.865792
0.966544
0.989763
-0.0484097
-0.0602029
0.131741
0.0887832
0.103605
0.514961
0.507729
0.533657
0.522343
0.524745
0.259895
0.124498
0.430782
0.456245
-0.257465
-0.320412
-0.419182
-0.439044
-0.541666
0.616286
0.720336
0.721073
-0.17501
-0.0959641
-0.2326
-0.0227135
-0.0838663
0.528251
0.535139
0.530216
0.545551
0.540073
0.542009
0.55414
0.551222
0.552781
0.491064
0.615644
0.354389
0.321864
-0.226647
-0.132595
-0.229043
-0.0342862
-0.0282871
0.108056
0.126917
0.0912549
0.0835001
-0.0259316
-0.0190916
-0.0243628
-0.0163471
-0.0220782
0.463671
0.453177
0.482742
0.489737
0.531598
0.532651
0.535649
0.534334
0.949898
0.972186
0.979732
0.953596
-3.5188
-6.32328
0.0645115
0.203764
-0.109714
-0.106401
-0.0602982
-0.0159494
-0.0389257
-0.00987741
0.067963
0.0626164
0.0734776
0.0787744
0.666666
0.666289
1.0094
1.00662
0.99351
0.943229
0.53775
0.539872
0.545437
0.541279
-0.0341991
-0.0599805
-0.0432374
0.749377
0.756573
0.756185
0.268076
0.183585
0.352834
0.380118
0.652438
0.6352
0.649492
0.678366
0.714829
0.997175
1.01541
1.0137
1.02214
1.06625
1.08272
1.04794
0.495207
0.504758
0.499985
0.536909
0.534569
0.535534
0.530889
0.53248
0.530212
-0.0278731
-0.411901
0.514066
0.530171
0.505401
0.514241
0.693095
0.76519
0.703899
0.712949
0.712957
0.0431977
-0.0139614
0.278313
0.244359
0.40657
0.441009
0.421126
0.920912
0.881619
0.931564
0.904981
0.866429
0.891998
-0.363685
-1.87842
-0.988963
0.5593
0.370019
0.458573
0.0681999
0.0607944
0.0655017
0.999486
1.07905
0.671383
0.835665
0.845449
0.754115
0.784943
0.838709
0.764364
0.798946
0.834116
0.816156
0.573335
0.527067
0.532033
0.833071
0.888121
0.157391
0.103416
0.0593484
0.148059
0.200899
0.179181
1.04533
0.944895
1.0166
0.548099
0.548787
-0.0998852
-0.102974
0.552902
0.552933
-0.0187035
0.0364007
0.441194
-0.825459
0.146546
0.541363
0.53169
0.548563
-0.0606644
0.385607
-0.019821
0.0933726
0.0609576
0.542101
0.480536
0.442097
-0.163735
0.0874218
-0.0736874
-0.189118
0.545773
0.544086
0.548027
0.549027
0.549683
-0.189146
-0.144025
-0.16208
-0.116969
-0.113101
-0.104399
0.513406
0.530389
-0.142002
0.548141
0.550285
0.550092
0.543247
0.548916
0.547147
0.0474489
0.0451916
0.0949058
0.253713
0.372431
0.688863
0.78464
0.653835
0.427023
0.188196
0.588279
0.654257
0.556188
0.715199
0.713711
0.7326
0.20926
0.061575
0.217323
0.160314
0.539232
0.537888
0.529928
0.527046
0.543434
0.541531
0.546068
0.543018
0.545995
0.547428
-0.0192157
-0.0389679
-0.0587609
-0.117452
0.34277
0.602221
0.279479
0.31073
0.182512
-0.00648932
-0.0118463
-0.0193082
-0.02586
0.0355121
0.0403523
0.0878722
0.0959931
0.0787189
0.0557869
0.0336405
0.0295716
0.0213803
0.536051
0.534807
0.540682
0.548984
0.489651
0.493512
0.460062
0.479777
0.465802
0.406808
0.441389
0.416644
-0.0401425
-0.115242
-0.0599915
0.0651672
0.0589244
-0.100123
-0.157425
-0.135547
-0.13975
-0.15458
-0.0559006
-0.0581973
-0.149995
-0.264167
0.996563
0.937142
0.135046
0.535001
0.541392
0.538203
0.542988
0.546069
0.546932
0.544687
0.541253
0.53101
0.532787
0.52912
0.529717
-0.0817249
-0.218853
-0.043678
-0.110821
0.153738
0.645479
0.385788
0.326488
0.320168
0.541316
0.93784
0.733905
0.7308
0.753804
-0.329847
0.0666141
-0.262962
0.355461
0.177663
0.686455
0.737434
0.76074
0.707146
0.658334
-0.0983084
0.561179
-0.0311824
0.0137405
0.205853
0.0984286
0.731919
0.697164
0.702582
0.719887
0.738694
0.702792
0.682388
0.677045
0.716211
0.721144
0.516706
0.286685
0.242092
0.203623
0.68096
0.557725
0.615581
0.528573
0.534154
0.536963
0.535537
0.518068
0.525352
0.52108
0.526878
0.530034
0.539154
0.539496
0.534922
0.537089
-0.0231966
-0.0262396
-0.00460155
-0.114114
-0.101678
-0.160627
-0.0437466
0.0913182
0.0561528
0.247966
0.354581
0.0673296
-0.0463114
-0.0158486
0.0127228
0.192299
0.217523
0.0998924
0.197233
0.176296
0.163436
0.264983
0.273796
0.00857483
0.00218562
-0.00514305
-0.00432414
0.060722
0.134035
0.144641
0.0341625
0.031939
-0.00232731
-0.00794098
0.00703968
0.00304086
0.0068187
0.0451993
-0.0439042
0.0322537
0.0341341
0.0380037
0.0456973
0.0382233
0.529703
0.531583
0.531375
0.538351
0.554987
0.569905
0.531054
0.511445
0.502483
0.505476
0.479417
0.489309
0.485824
0.498139
0.518443
0.526761
0.525058
0.527509
0.510872
0.512353
0.499951
0.503369
0.480096
0.461651
0.450096
-0.071815
-0.0877915
-0.0788257
-0.0533204
-0.0523673
-0.0312354
0.0585478
0.0623455
0.0545448
0.0539751
0.049855
-0.079605
-0.0705722
-0.0602687
0.0175708
-0.168634
-0.201865
-0.273843
0.901874
1.01935
0.827778
0.605157
0.614439
0.852698
0.939825
0.568068
0.749108
0.774385
0.588531
0.848825
0.539807
0.539364
0.536968
0.536462
0.537688
0.00615436
0.10621
0.116585
0.170563
0.286099
0.399797
0.322324
0.194603
0.328361
0.334147
0.640427
0.656342
0.603294
0.626927
0.624339
0.452662
0.530217
0.58593
0.538324
0.584355
0.606621
0.567196
0.597592
0.543463
0.500337
0.499005
0.44573
0.466391
0.444724
0.426892
0.529369
0.507228
0.517746
0.508272
0.528004
0.554044
0.549106
0.576151
0.587379
0.513246
0.473325
0.483014
0.511472
0.471869
0.484795
0.500408
0.237523
0.137855
0.221277
-0.0713402
0.0094811
-0.00586368
-0.0528527
-0.0069463
0.279307
-0.419687
-0.392783
-1.02585
0.501451
0.969071
0.685774
0.657174
0.734365
0.712948
0.715544
0.738298
0.745559
0.670603
0.688447
0.69252
0.647842
0.671788
0.693575
0.691883
0.535071
0.409801
0.400697
0.361551
0.23725
0.27047
0.472999
0.395219
0.322217
0.326276
0.488474
0.37778
0.443953
0.482266
0.413976
0.369111
0.572201
0.639035
0.629284
0.604883
0.520189
0.533101
0.558425
0.59444
0.621609
0.653321
0.526629
0.532425
0.533697
0.531218
0.52836
0.531278
0.531358
0.533894
0.534741
0.537648
0.536647
-0.0192007
-0.00739663
-0.0143301
-0.0222302
0.00601351
-0.00156786
0.0415055
0.029363
0.018823
0.026324
-0.00187683
-0.00727061
9.92866e-05
0.00917917
0.12077
0.134721
0.116643
0.0757143
0.260484
0.392724
0.461275
0.339713
0.23384
0.25687
0.282363
0.0167025
0.0498189
0.033626
0.0760541
0.0612178
0.00194704
-0.00498531
-0.00809525
0.0109495
0.0193576
-0.0115578
-0.0336072
-0.0146424
-0.015579
-0.0185843
-0.0347584
0.513558
0.507154
0.508458
0.502598
0.501435
0.515037
0.519261
0.520967
0.526215
0.528078
0.518765
0.524118
0.527604
0.0205748
-0.0468524
-0.0196606
-0.00965408
-0.0343842
-0.0483195
-0.0348559
0.129207
0.0548551
0.0606051
0.0188529
-0.10587
-0.049441
0.495898
0.495067
0.498582
0.72176
0.57336
0.493703
0.590603
0.695445
0.277077
0.477146
0.309496
0.890615
0.782885
0.927754
0.546943
0.24996
0.404556
0.454447
0.263744
0.336493
0.340926
0.231057
0.26283
0.294059
0.393829
0.273756
0.248502
0.00640217
0.194464
0.310739
0.29162
0.420249
0.48388
0.26817
0.189737
0.143629
0.632608
0.652275
0.671648
0.641414
0.666142
0.588782
0.580264
0.598289
0.606087
0.600422
-0.754226
-0.462151
-1.40656
-0.721954
-0.272592
0.530853
0.495191
0.770792
0.659992
0.724839
0.710391
0.671326
0.637385
0.648798
0.681324
0.38214
0.491935
0.466537
0.472426
0.375069
0.308419
0.607535
0.601417
0.637029
0.661396
0.629015
0.662325
0.524303
0.524017
0.523573
0.520123
0.518633
0.520736
0.0814957
0.0530803
0.0841552
0.0643501
0.0436032
0.0330578
0.0339045
0.0195086
0.010685
0.00223713
0.0326752
0.0394595
0.171693
0.113227
0.0359031
0.0661325
0.0083612
-0.0581567
-0.0767968
0.0220852
0.114284
0.105412
0.408829
0.65986
0.48189
0.650817
0.489592
0.545315
0.489017
0.479415
0.509087
0.38968
0.468086
0.230464
-0.272143
-0.181283
0.78633
0.805058
0.587422
0.401031
0.171812
0.360663
0.562106
0.498685
0.537384
0.606069
0.598157
0.0176751
0.0850209
0.344866
0.573213
0.242308
0.233214
0.228404
0.40274
0.327086
)
;

boundaryField
{
    wall-4
    {
        type            zeroGradient;
    }
    velocity-inlet-5
    {
        type            zeroGradient;
    }
    velocity-inlet-6
    {
        type            zeroGradient;
    }
    pressure-outlet-7
    {
        type            fixedValue;
        value           uniform 0;
    }
    wall-8
    {
        type            zeroGradient;
    }
    frontAndBackPlanes
    {
        type            empty;
    }
}


// ************************************************************************* //
