/*--------------------------------*- C++ -*----------------------------------*\
  =========                 |
  \\      /  F ield         | OpenFOAM: The Open Source CFD Toolbox
   \\    /   O peration     | Website:  https://openfoam.org
    \\  /    A nd           | Version:  9
     \\/     M anipulation  |
\*---------------------------------------------------------------------------*/
FoamFile
{
    format      ascii;
    class       surfaceScalarField;
    location    "33";
    object      phi;
}
// * * * * * * * * * * * * * * * * * * * * * * * * * * * * * * * * * * * * * //

dimensions      [0 3 -1 0 0 0 0];

internalField   nonuniform List<scalar> 
1300
(
3.75095
5.62643
-3.49992
3.75095
-5.01028
5.62643
-4.44642
4.44642
-1.00857
1.00857
1.87644
1.87451
-2.97131
2.97131
-2.40992
2.40992
-2.56093
2.56093
-5.24646
5.24646
-5.06903
5.06903
4.6675
-4.6675
-5.71613
5.71613
-1.37139
1.37139
-3.829
3.829
3.16977
-3.16977
-2.28046
2.28046
-0.266467
0.266467
-0.553532
4.30449
3.19742
3.19742
-2.0589
2.0589
-4.86302
4.86302
6.21812
-6.21812
4.94466
-4.94466
-1.44475
-2.75707
0.707241
-10.1248
-4.30304
-4.30304
-8.44038
8.44038
-2.81395
2.81248
2.94341
-2.94341
-1.78085
1.78085
-4.38865
-0.0577716
-4.38865
4.43625
0.0101726
4.43625
-1.10529
0.0967274
-1.10529
3.93453
-3.93453
0.865439
0.143126
0.865439
3.06472
-3.06472
-1.87705
3.75349
1.8739
-1.87186
6.17635
-1.87909
3.7536
-5.94024
5.94024
-3.18334
0.212034
-3.18334
2.77606
0.195252
2.77606
-6.71916
6.71916
-2.40458
-0.00534073
-2.40458
2.40586
0.00406074
2.40586
2.86618
-2.86618
-2.65935
0.0984251
-2.65935
2.45253
0.108395
2.45253
0.353527
5.2729
-5.97996
8.79244
-5.2729
0.0264408
5.20838
0.0380831
5.20838
-5.10611
0.0370874
-5.10611
5.01137
0.0576567
5.01137
4.7583
-0.0907978
4.7583
-4.78285
0.115349
-4.78285
-3.32179
-5.46728
-6.08374
0.367609
-6.08374
-1.37341
0.00202944
-1.37341
1.32988
0.0415096
1.32988
-3.58907
3.58907
-4.21133
0.382336
-4.21133
3.1242
0.0455762
3.1242
1.86851
1.88244
5.61946
-5.61946
2.44969
-2.31054
0.0300829
-2.31054
-2.2872
-2.65747
2.2872
-0.00673951
-0.533224
0.266757
-0.533224
3.15926
0.0381618
3.15926
2.29631
0.156224
-2.29631
0.237409
3.20385
-3.20385
1.42555
0.633354
1.42555
-5.56612
5.56612
4.95388
0.0574863
-4.95388
0.0908633
6.15712
0.0609986
6.15712
-6.19959
-0.0185293
-6.19959
1.63384
-4.39092
-3.50374
5.09428
0.62185
-5.09428
0.79124
2.91388
0.0295327
2.91388
-2.9211
2.9211
-2.98299
0.0395821
-2.98299
-2.18251
0.401662
-2.18251
1.47985
0.300994
1.47985
-4.26119
-0.127458
-4.26119
-4.35442
0.143088
4.35442
0.0818287
1.08481
-1.08481
-1.21373
0.10844
-1.21373
-4.08903
-0.172165
4.08903
-0.154497
-3.80844
-0.126087
-3.80844
-3.02338
0.0403833
3.02338
0.041338
3.11256
0.0466994
-3.11256
0.0478447
-1.87084
3.75328
-1.88012
3.75402
-5.55735
-0.382895
-5.55735
6.24926
-0.30902
6.24926
3.52467
0.304324
-3.52467
0.341333
2.62486
0.151196
2.62486
-6.70084
-0.0183154
-6.70084
6.68996
0.0291984
6.68996
2.49535
0.129508
-2.49535
0.090776
2.35435
0.0515049
2.35435
2.88105
-0.0148721
2.88105
-2.86409
-0.00208411
-2.86409
2.80159
-2.80159
2.73465
0.066941
-2.73465
0.0752924
-11.1329
11.1144
-0.035159
-11.0978
5.17322
5.17322
4.18765
0.570647
4.18765
-4.998
0.21515
-4.998
2.33297
-5.83671
4.86924
-8.19103
5.48016
-15.605
3.77471
-9.242
6.50294
-6.50294
6.32059
0.182348
-6.32059
0.236848
-1.39707
0.0236575
-1.39707
-2.98189
-0.607171
-2.98189
4.24469
-0.655626
4.24469
-3.02908
3.02908
-3.07795
0.0488713
3.07795
0.0462444
2.29755
0.0568039
-2.29755
-0.0129928
0.702434
0.163005
-0.702434
0.16921
3.40113
-0.197279
3.40113
-3.02486
-0.178987
-3.02486
-1.41206
0.0149926
1.41206
0.0134815
-5.81496
0.248837
-5.81496
-11.1907
0.0929878
-11.1527
-6.1066
-6.1066
2.33378
11.1262
-2.88638
0.0222893
2.88638
0.0274955
2.97624
0.0528463
-2.97624
0.055131
-2.86312
0.0615337
2.86312
0.0579837
-2.56011
0.377608
-2.56011
-1.07178
1.07178
-1.24493
0.173151
1.24493
0.234922
1.33214
-0.247332
1.33214
1.28297
0.0469096
-1.28297
0.0692322
-3.69744
-0.111008
-3.69744
6.47489
-0.225629
6.47489
-2.93113
-0.0937309
2.93113
-0.0500798
-0.0333213
11.1477
-5.1399
0.0337849
5.1399
-11.2087
11.2425
-3.23425
0.674136
3.23425
0.953402
5.2887
0.277424
-5.2887
0.2907
6.6225
0.0674568
-6.6225
0.119568
-2.49159
-0.490309
-2.49159
-4.97358
-0.583768
4.97358
-0.728887
-11.4748
-0.20458
11.6794
-11.4172
6.01954
0.13758
-6.01954
11.3801
-1.00548
-0.0793363
1.00548
0.066301
1.64614
-0.313994
1.64614
3.58994
-0.188816
-3.58994
-0.107492
-6.62535
-0.0754951
6.62535
-0.150457
-2.05392
-0.437661
2.05392
-0.407786
-4.26698
4.30514
1.90937
-1.68016
-2.71075
-4.33763
1.85205
1.90123
4.30174
-10.2259
-5.37911
-9.43464
7.26656
-6.97586
-9.27054
9.17974
7.61876
-7.74485
-5.78536
5.8316
6.48204
-6.4407
1.87865
1.87484
7.88577
-7.67373
-15.6999
15.317
7.45479
-7.46014
15.7913
-15.8097
-17.8048
17.8723
-5.72274
5.82116
-6.72576
6.72368
-6.93888
6.8888
-2.88989
-5.30114
13.0855
-12.7179
7.55143
-7.52135
-8.50492
8.88726
3.38244
0.922701
3.42914
-1.88231
3.76096
-1.8713
3.78066
3.58908
-6.47897
2.24763
-4.95838
3.41495
4.13649
-3.40821
-0.929421
-5.91871
5.94824
-5.82182
5.87981
8.96158
-9.01936
-1.88516
3.76
-1.86886
3.77009
-3.4252
-2.36016
3.37963
0.922112
7.67752
5.40799
-8.29937
-1.13527
-7.86178
7.67297
-8.1378
7.95881
-0.441941
5.82008
-5.37814
4.42108
-1.55863
7.37871
5.70793
5.92308
5.8665
-5.58908
1.10936
-6.4875
-6.39664
-2.53639
2.64483
2.47952
-2.33639
5.98465
1.63411
5.83016
-5.57938
-2.16547
-5.69039
3.82122
2.01038
3.8701
4.07674
2.4053
4.11712
3.03078
-3.03575
0.0049613
-3.0563
6.08708
0.724254
-5.41646
-4.49435
4.93065
2.95512
5.1259
-5.47755
-2.19618
-5.13622
-9.57199
-6.12789
-10.1558
10.1276
5.18938
9.81859
-11.9864
11.8359
4.75276
2.70203
4.75682
-4.92488
-2.53525
-4.8341
11.6452
-2.55411
-9.0911
-10.3025
-7.50231
10.2733
5.51803
10.915
6.95728
11.0346
4.42616
7.21904
-9.9442
2.44189
-3.86913
-1.85361
-3.79383
3.6941
2.12706
3.80249
-4.21297
-2.5128
-4.19068
-4.28568
-2.6532
4.30055
2.42313
-4.39535
-3.74245
4.48908
2.39972
5.16204
-10.5412
4.07995
-9.3811
-9.17502
-3.54287
-8.93817
4.08172
3.03292
-7.11463
-2.39726
8.28506
-4.14857
7.35564
-4.47095
-3.0504
-4.48394
-6.79777
-1.70716
-6.65468
-8.89913
8.40882
-9.21027
8.55464
12.6659
-5.7117
-6.95424
-3.96808
-2.47262
3.92024
-0.491098
-3.71109
3.71605
0.0498717
3.83054
4.75324
4.26214
-3.88722
-1.9346
-3.83209
3.83265
2.04716
3.89418
6.74492
2.21666
6.7551
-6.46363
-2.55572
-6.59109
9.07187
-8.67021
2.90175
-2.88675
5.29218
2.66664
-5.0949
-2.76689
6.20891
-3.14553
-3.06338
-12.2101
10.558
1.65206
-4.83136
-0.410279
-0.143812
-5.49909
-3.77145
5.38375
0.539335
11.0973
7.32589
-5.51255
5.76139
6.16684
6.22432
-0.172314
5.83312
-5.15898
5.32004
-2.42131
-2.89873
5.32194
-5.4941
-1.26915
-5.34033
4.07118
0.336057
1.72834
-1.46158
-2.00479
-0.531596
-1.93556
1.47935
1.00017
1.64235
0.960451
1.68438
-2.95187
0.555288
2.39659
-1.99142
-1.78111
-3.69301
-1.03354
4.72654
5.58846
2.08451
-5.48096
-0.209424
2.69535
-2.65384
-0.780351
-2.91266
2.12753
-2.90788
-3.62485
-1.89493
5.51978
-3.37079
-0.461299
3.31794
0.552153
-3.82516
-2.09355
3.78558
0.33154
-3.12485
6.1901
-3.06525
-5.05946
2.52878
3.55831
4.53915
-4.78994
2.44623
2.34371
-1.23164
4.22101
0.90489
4.3722
-6.72673
4.53055
5.74085
3.14641
-6.04517
0.908955
-5.81778
8.45547
-7.27559
-1.17988
4.07913
4.37634
7.16444
5.5015
-5.73379
12.8982
-1.15477
-6.12082
6.97254
-3.82613
4.77189
-8.59802
-10.2734
4.15256
-9.24814
11.008
-1.75982
-3.61615
-8.37023
12.8643
-1.22273
-11.6416
8.59586
-4.22176
-4.27117
8.49293
-6.77586
6.80642
-1.98385
-4.82257
-10.1259
-5.68378
10.2014
1.63455
-9.8449
12.2868
-2.62586
3.92999
0.826839
3.98149
3.26508
-5.39745
2.13237
3.51078
-5.49464
2.07613
-7.47359
-7.02761
12.6166
-5.589
-10.5705
-9.63226
-0.938227
2.49294
9.79385
-9.45022
7.35352
2.09669
3.31012
0.584068
-3.37706
-0.416778
0.262148
4.54228
-4.80443
4.06464
4.22087
3.36375
1.17853
3.83959
2.10866
-3.86708
-0.323595
-4.1547
1.5015
-1.73157
-3.65885
5.16035
-4.06457
0.405715
-2.73136
-3.50818
6.23954
-4.58497
3.03934
3.15076
5.0865
-4.9109
1.40272
-2.40055
-2.51034
2.66185
-4.39342
1.95061
3.20974
4.35033
0.607879
6.4311
6.18551
-9.46402
0.0829228
11.5935
-10.4582
2.5259
8.50867
-9.87942
0.24716
-8.69101
1.44784
-5.59641
-5.66679
5.09235
-6.79951
-3.50566
6.13832
0.616782
-6.22014
-0.434536
-6.04616
-2.85297
-6.48382
-3.06277
-6.1475
-8.79656
-1.65415
-7.14241
6.75467
-6.69835
-3.45741
7.42724
1.12741
-7.40931
7.32997
-7.49402
7.18003
0.0948465
3.6212
4.35699
1.88437
-2.38957
4.27393
-5.07691
7.29357
-8.59011
3.5132
4.05595
-6.61167
-4.53416
5.03644
4.03543
5.33744
8.93812
-10.44
1.50187
-10.7529
12.0913
-1.33835
-16.5332
5.78026
-7.59509
2.63525
0.266493
2.65891
0.652398
2.43658
-3.08897
-2.23436
-2.22087
-2.35243
-3.43714
5.78958
1.16036
-3.43668
2.27633
-3.49576
4.65612
-0.073238
-3.36345
5.29288
-2.8563
5.55937
-3.569
1.99037
3.35261
5.71588
-2.36326
4.36094
-1.69431
1.84309
-4.20635
-1.59406
-2.96812
5.09518
-3.27142
3.67714
-0.290749
3.96788
-4.0861
0.940564
-0.722345
3.49852
3.73593
4.28874
-3.11021
2.98099
-4.6753
-1.22536
-4.06742
-0.857679
-0.299964
-3.7654
4.06536
6.03408
-6.33405
-5.25765
9.56306
-4.30541
7.71714
-5.40249
-2.31464
-4.27125
-4.39896
3.89364
1.93948
9.65661
0.209352
-5.61184
-4.94963
-3.99623
3.21274
2.1073
-1.92507
3.57713
2.06888
-0.340548
0.56723
1.07512
1.85786
-1.29063
0.217244
1.64062
-1.24433
1.97912
0.716233
-2.02603
0.0904694
-1.35782
3.48535
1.03877
-2.03894
0.748309
1.06573
-3.48703
4.84682
-2.48854
-2.35828
5.91255
1.16422
-3.65276
4.17612
-3.84006
2.33432
-3.36785
-1.31844
-5.1585
-3.52439
-2.54503
4.82136
-3.24454
5.32905
1.19651
-5.11962
6.31614
-3.58052
1.68559
-3.07306
3.7893
-1.0756
-1.99747
2.80787
2.71191
-2.94233
0.0296704
-0.134455
2.33499
-2.46944
-0.572893
-2.56432
-4.57141
4.90295
-2.10783
4.55407
2.1661
-1.91426
6.46833
1.81158
-3.72584
-3.24788
-3.70918
-1.38213
3.15703
-0.570584
-4.26352
-5.39316
4.13401
0.238189
-6.8597
7.66858
-0.808874
-3.90458
-0.625967
4.7051
-5.96857
0.473933
-3.89243
3.77614
4.68103
4.91922
-11.4492
-0.192386
-6.25979
1.15323
-7.41302
5.52957
-3.59779
7.75036
-10.4278
6.97044
-9.30044
6.57048
-0.842545
6.25343
-4.12106
2.83767
-8.52146
-6.88691
5.44974
-2.74771
6.27658
-3.11936
9.39594
-5.74522
5.09977
4.29617
-0.672588
-3.81135
-5.32671
4.65412
-0.226942
3.75455
4.97357
-2.86491
4.64998
2.25624
-4.65679
-2.13718
-6.49832
1.84153
-3.34756
-1.91552
3.75705
3.17097
3.75504
1.24671
-3.33826
7.41699
-8.35522
-1.82799
-3.83881
5.36219
-0.708074
3.28462
-7.12342
-2.31179
4.87006
-0.79898
-4.07108
0.841641
-4.34731
1.65525
-6.00256
5.14426
-5.57879
2.20926
-9.80435
-5.20005
-5.13375
-2.24814
-5.24588
-7.61703
5.36888
-1.83676
5.49321
-8.59453
7.79555
-3.49676
8.86565
-5.44036
-1.04346
5.84815
1.33188
10.1975
0.170811
-4.70497
-1.87982
3.94703
-2.06721
1.33292
-3.59459
0.352437
2.47761
3.43493
-6.54879
-0.0628766
-4.76785
-3.92304
7.95847
5.64003
11.6741
1.23412
9.15006
-1.19159
10.3842
4.14584
4.38077
-3.05138
4.55325
1.01399
4.52719
-0.836474
2.82685
1.82244
1.82447
0.829378
2.31321
1.42272
3.25377
0.1648
-2.05607
4.63775
-8.63398
-0.974098
-8.06333
1.11642
5.72728
-4.61086
3.10069
-0.993395
1.03349
0.102105
-1.61833
1.51623
-2.79663
-1.95888
-0.318261
-1.61076
2.35906
1.87459
-2.0408
-0.755822
0.32327
-3.84766
3.04458
-3.01491
-0.303003
6.01313
-2.74997
0.280523
-1.06438
-2.28379
-2.81539
2.72492
6.17732
0.291008
3.11207
5.19395
3.1004
0.235489
3.9203
-5.68012
-3.55329
-5.87251
-0.342932
4.36216
1.7424
8.05145
6.03857
5.3305
-1.79292
-10.1481
6.59334
-2.04009
5.25498
-1.1839
-4.81865
4.97066
2.3229
-5.58745
0.00865341
-4.81
-6.85009
-0.525723
8.32128
-9.6718
8.62835
5.77537
1.36704
-4.40811
-0.725638
4.23496
0.145806
10.53
-1.12928
-6.815
7.94428
-4.598
3.6239
0.835307
2.74183
2.35153
1.35814
-5.45686
-10.0677
-1.91167
-1.57536
-4.26995
0.456591
-2.33118
6.24979
-2.62589
3.93515
5.31839
6.35187
-2.15833
-4.17571
6.46374
-2.5286
3.82328
)
;

boundaryField
{
    wall-4
    {
        type            calculated;
        value           uniform 0;
    }
    velocity-inlet-5
    {
        type            calculated;
        value           uniform -3.75095;
    }
    velocity-inlet-6
    {
        type            calculated;
        value           uniform -5.62643;
    }
    pressure-outlet-7
    {
        type            calculated;
        value           nonuniform List<scalar> 8(3.49992 5.01028 4.20182 9.41759 8.78908 5.13758 7.20221 9.25487);
    }
    wall-8
    {
        type            calculated;
        value           uniform 0;
    }
    frontAndBackPlanes
    {
        type            empty;
        value           nonuniform List<scalar> 0();
    }
}


// ************************************************************************* //
