/*--------------------------------*- C++ -*----------------------------------*\
  =========                 |
  \\      /  F ield         | OpenFOAM: The Open Source CFD Toolbox
   \\    /   O peration     | Website:  https://openfoam.org
    \\  /    A nd           | Version:  9
     \\/     M anipulation  |
\*---------------------------------------------------------------------------*/
FoamFile
{
    format      ascii;
    class       volVectorField;
    location    "33";
    object      U;
}
// * * * * * * * * * * * * * * * * * * * * * * * * * * * * * * * * * * * * * //

dimensions      [0 1 -1 0 0 0 0];

internalField   nonuniform List<vector> 
918
(
(0.985166 -0.000496975 0)
(0.00501226 2.96625 0)
(-0.045744 0.931912 0)
(0.9797 0.0021521 0)
(-0.0566367 1.33649 1.51266e-21)
(-0.00704476 2.94879 -2.54504e-18)
(0.832857 1.17689 4.27098e-19)
(0.334874 0.153045 -1.6429e-20)
(0.999907 -0.000291909 0)
(0.050354 0.847656 0)
(0.00252681 0.667754 0)
(0.734503 -0.0111195 0)
(0.0111224 2.93038 0)
(0.00214893 2.79509 0)
(-0.0177503 3.15703 7.69586e-19)
(-0.0892899 1.80612 -1.01522e-19)
(0.410431 0.0498792 1.07846e-18)
(0.190086 1.19086 3.00412e-19)
(0.962786 0.00503187 0)
(-0.0175143 0.640119 0)
(0.0796796 0.194753 -7.73559e-19)
(1.00198 -0.00498316 0)
(1.00022 -0.00979837 0)
(0.975716 -0.00644062 0)
(0.587794 -0.0399217 0)
(0.0164426 2.63801 0)
(-0.0149919 2.9101 9.41409e-19)
(-0.0678364 0.839085 0)
(-0.177308 1.1196 0)
(-0.0566498 0.867024 0)
(-0.244179 2.51029 0)
(-0.0941353 1.51369 -1.19149e-21)
(-0.116288 1.29689 0)
(-0.0206075 2.9876 -9.17109e-23)
(-0.0166894 3.00529 1.97795e-18)
(0.00209959 3.00018 0)
(0.870449 -0.00949462 0)
(0.40387 0.937499 1.86928e-19)
(0.814049 1.19272 -4.6357e-19)
(0.96345 1.03191 5.15073e-19)
(0.684093 1.28586 -9.94205e-20)
(0.682009 1.26996 5.78443e-19)
(0.375749 0.239662 1.60278e-20)
(0.351752 0.12273 0)
(1.14115 0.555436 0)
(0.339537 0.239876 7.32758e-20)
(0.298787 0.161396 -7.60424e-20)
(0.919681 -0.00745764 0)
(1.00027 0.000134188 0)
(0.99991 0.000327699 0)
(1.00364 -0.00777884 0)
(1.00096 -0.000927201 0)
(1.00017 2.80455e-05 0)
(0.0791419 1.79356 -8.18442e-19)
(0.0307005 1.00565 0)
(0.0858619 0.908683 0)
(0.0256916 0.955633 0)
(0.0307963 0.77859 0)
(0.0254698 2.00142 0)
(-0.0154085 0.812576 0)
(0.0164703 0.664613 0)
(-0.00669299 0.813055 0)
(-0.00550622 0.667817 0)
(0.836213 -0.0150808 0)
(0.851144 0.0272726 0)
(0.768364 -0.00142787 0)
(0.825057 0.0358301 0)
(0.702318 -0.0157047 0)
(0.0146867 3.00041 9.44452e-19)
(0.0114932 3.00803 0)
(0.0061101 3.00277 0)
(0.0135381 2.99736 1.07306e-23)
(0.00797114 2.95847 -1.40369e-18)
(0.0144959 2.98205 0)
(0.010862 2.90357 0)
(0.0243946 2.93069 2.17372e-24)
(0.0045569 2.82523 0)
(0.0308266 2.9163 0)
(-0.00516061 2.74479 0)
(0.308511 3.55397 0)
(-0.131924 3.6355 0)
(0.139564 3.24757 -7.16188e-19)
(-0.0126793 2.98302 0)
(-0.305871 2.3435 0)
(-0.0878083 1.94805 1.00089e-19)
(-0.0418489 1.89325 -8.05846e-20)
(0.495721 0.148902 -3.73082e-19)
(0.408811 0.0285645 -3.6042e-19)
(0.480725 0.172175 -1.12376e-18)
(0.394887 0.0709548 -7.41777e-19)
(0.216934 0.9338 0)
(0.272093 1.32936 -3.61642e-19)
(0.378186 1.27451 6.06037e-19)
(0.987492 0.00855054 0)
(0.941932 0.00585804 0)
(1.0003 0.000575919 0)
(1.00287 0.00930188 0)
(1.00302 0.0084656 -2.81154e-18)
(0.991917 0.00969479 2.12322e-18)
(0.00314716 0.776165 0)
(-0.0086569 0.630976 0)
(-0.0451986 0.856802 0)
(-0.0120181 0.775129 0)
(0.017152 0.630993 0)
(0.125242 0.202104 2.39225e-19)
(0.181142 0.180416 0)
(0.993534 -0.00838924 0)
(0.954395 -0.00653069 0)
(0.777792 0.0442897 0)
(0.717368 0.0538289 0)
(0.659847 -0.0309292 0)
(0.949714 -0.00925266 0)
(0.637779 0.0661883 0)
(0.468257 -0.0199342 1.56048e-18)
(-0.0367303 2.86303 7.08059e-19)
(0.0417433 2.90922 0)
(0.0547161 2.88508 0)
(-0.00480146 2.6992 0)
(-0.0130061 2.9853 8.93281e-19)
(-0.0179758 2.89526 0)
(-0.0153577 2.98808 -2.76579e-18)
(-0.0133129 2.92522 9.46285e-19)
(-0.224237 1.16603 0)
(-0.257943 1.37082 0)
(-0.131605 1.81466 -3.39342e-21)
(-0.146256 1.67608 0)
(-0.0864629 1.60226 0)
(0.93768 -0.00761836 0)
(0.855957 -0.0094782 0)
(0.863619 0.00673109 0)
(0.94899 -0.00802688 0)
(0.883496 -0.00814591 0)
(0.516017 1.13132 -2.3581e-19)
(0.565563 1.18296 0)
(0.367808 0.881703 3.46924e-20)
(0.310054 0.741502 0)
(0.922853 1.0701 -1.39582e-19)
(1.03512 0.872872 2.7716e-19)
(0.373423 1.37825 0)
(0.537039 1.34912 0)
(0.545967 1.30169 0)
(0.110284 0.182681 -3.03593e-19)
(0.409744 0.223098 0)
(0.376929 0.113175 2.09158e-19)
(1.00495 0.927049 0)
(1.06974 0.774497 0)
(1.09521 0.716001 -2.04249e-19)
(1.12124 0.615787 0)
(1.16622 0.399422 5.51465e-20)
(0.957384 -0.00890262 0)
(0.962293 -0.0101256 0)
(0.901355 -0.00796473 0)
(0.984157 -0.00918082 0)
(0.974603 -0.00939121 0)
(0.937014 -0.00640263 0)
(1.00019 0.00233663 0)
(1.00091 0.001398 0)
(0.999912 0.000849175 0)
(0.0339717 2.05464 4.51761e-19)
(0.119476 1.73362 0)
(0.0137683 2.16938 7.06425e-19)
(0.0542733 1.8533 -5.99151e-19)
(0.106646 1.19374 -2.45706e-19)
(0.0467314 1.0798 0)
(0.142693 1.05596 0)
(0.0138852 0.911577 0)
(0.0219867 0.726705 0)
(-0.00747845 2.19455 -1.41079e-21)
(0.0375975 1.99742 0)
(-0.00648146 2.1714 -7.61083e-20)
(0.0249393 1.99999 1.41838e-19)
(0.0192191 0.86697 0)
(0.00443962 0.828491 0)
(0.0213632 0.69196 0)
(-0.00690132 0.80187 0)
(-0.0259576 0.651488 0)
(0.934101 0.00866061 0)
(0.84338 -0.0148797 0)
(0.924607 -0.00042831 0)
(0.83881 -0.0122507 0)
(0.812977 0.00261376 0)
(0.902886 0.0190029 0)
(0.880336 0.0233271 0)
(0.789836 0.00121699 0)
(0.00563187 3.06473 -8.84905e-21)
(0.0166417 3.0579 0)
(0.0146699 2.96906 0)
(0.00856333 2.87622 0)
(0.925684 3.97065 0)
(1.24036 3.3028 9.32152e-19)
(0.0700895 3.0752 0)
(-0.0282094 2.90625 0)
(-0.227428 1.51697 0)
(-0.290303 2.22942 0)
(-0.317912 1.92044 0)
(-0.244784 2.51262 -1.36629e-20)
(-0.26639 2.47636 0)
(-0.261889 2.46716 0)
(0.0147627 1.98025 -7.84915e-22)
(-0.0261907 2.07102 5.7121e-20)
(-0.0428531 2.0184 8.16189e-20)
(-0.00750259 1.94493 0)
(0.522548 0.122218 5.58921e-19)
(0.424336 0.00604534 -5.48861e-19)
(0.261278 1.5649 0)
(0.265755 0.710002 -3.15013e-19)
(0.177979 1.64993 -1.06366e-18)
(0.227037 1.18004 1.06644e-18)
(0.902365 0.00660205 0)
(0.967551 0.0109579 0)
(0.974634 0.0107442 0)
(0.923508 0.00652759 0)
(-0.00689337 0.796367 0)
(-0.0028457 0.785984 0)
(-0.00530499 0.628879 0)
(0.288384 0.234913 6.73007e-19)
(0.236268 0.215122 -7.96277e-19)
(0.249391 0.173592 0)
(1.07384 0.0830956 2.99355e-20)
(1.05479 0.0378996 0)
(0.993867 0.0374526 0)
(0.891685 -0.00814394 0)
(0.54635 0.0958312 0)
(0.577159 0.073313 -2.49869e-18)
(0.441241 -0.0034238 9.39168e-19)
(0.00911729 2.98104 7.55329e-19)
(-0.0329224 2.86604 4.69452e-20)
(0.00368345 3.05019 -1.87048e-20)
(0.020164 3.04342 6.65587e-19)
(-0.0150081 2.99657 3.10466e-20)
(-0.0129752 2.94949 -1.24877e-22)
(-0.0172614 3.01194 -5.73468e-19)
(0.0148614 3.02381 4.14779e-19)
(0.00736104 3.03678 -6.58191e-19)
(0.932119 -0.00247459 0)
(0.938176 -0.00395186 0)
(0.843487 -0.0085545 0)
(0.956839 0.0116139 0)
(0.94327 0.0128024 0)
(0.881961 0.00624561 0)
(0.918705 0.0156869 0)
(0.926894 0.0143832 0)
(0.8391 0.00456011 0)
(0.71959 1.41038 3.51851e-20)
(0.753296 1.51974 0)
(0.193732 0.336836 7.39373e-20)
(0.213936 0.652159 5.95558e-19)
(0.258341 0.717486 -3.43445e-19)
(0.267898 0.542412 6.82187e-19)
(0.324754 0.772951 1.59215e-18)
(0.128015 0.216576 3.70141e-19)
(0.456005 0.195471 7.87717e-19)
(0.432386 0.211979 2.03767e-19)
(0.388028 0.0964371 3.91648e-19)
(1.15567 0.457729 1.87927e-20)
(1.16634 0.252318 1.24912e-20)
(0.00425687 2.20748 2.78974e-19)
(0.052411 1.92104 0)
(0.959706 0.0265299 0)
(0.936893 0.0119928 0)
(0.85849 -0.0186063 0)
(0.0111948 3.07445 0)
(0.0197244 2.94401 1.22319e-18)
(0.0164673 2.95636 0)
(0.00627441 2.85069 -1.21345e-18)
(0.00618232 3.0909 2.97279e-19)
(0.00729983 3.08263 0)
(0.786394 1.82274 -1.59197e-19)
(1.24807 2.50157 4.05476e-19)
(0.768617 1.96273 -1.23746e-18)
(0.0203405 2.98186 -6.54299e-19)
(0.0361009 3.00261 0)
(-0.033343 2.87925 0)
(-0.0115163 2.1473 -7.6074e-21)
(-0.0123604 2.11055 -1.12106e-19)
(0.0202316 1.99659 -3.23073e-21)
(0.2748 1.37142 1.02661e-18)
(0.219485 0.493781 -7.04111e-19)
(0.0634386 1.98047 7.87635e-19)
(0.136601 1.86914 -9.30819e-19)
(0.17841 1.47301 8.94023e-20)
(0.00182845 3.1188 -1.86198e-18)
(0.0161558 3.11803 1.99659e-18)
(-0.00890616 2.98123 8.23772e-19)
(-0.0034175 2.97762 -7.80989e-19)
(-0.0211223 2.88155 -8.38989e-19)
(0.00870138 3.09986 -2.21368e-18)
(0.00243673 3.10603 2.162e-18)
(0.269313 0.677273 0)
(0.229195 0.665633 -1.22809e-18)
(0.0996297 0.222003 5.43658e-19)
(0.34256 0.896847 1.1033e-18)
(0.182553 0.258806 -1.70145e-18)
(1.15726 0.171997 7.81362e-20)
(1.1674 0.306825 0)
(1.14429 0.120042 -2.63512e-20)
(-0.00870143 2.20564 -2.0334e-21)
(-0.00200366 2.21394 0)
(0.0418127 1.96497 0)
(0.337543 1.27693 -3.70653e-19)
(0.362384 1.10529 -7.97744e-19)
(0.195516 0.352919 1.41907e-18)
(1.00587 -0.0108737 0)
(1.00766 -0.00765997 5.18977e-19)
(-0.132898 1.19935 0)
(-0.0776624 1.02422 0)
(1.00222 0.00347873 1.78493e-21)
(1.00364 0.0094138 1.05904e-18)
(-0.242857 2.51505 1.82148e-20)
(-0.222812 2.48955 0)
(0.0365209 3.17948 4.3747e-19)
(0.395765 3.49266 0)
(1.13548 0.652075 -7.73986e-20)
(1.01296 0.0130524 -2.14253e-21)
(1.02118 -0.0104919 0)
(1.00169 0.000105589 6.07392e-23)
(0.0965146 1.352 0)
(0.147657 2.58366 0)
(0.0218472 1.30657 0)
(-0.00323977 2.62378 6.64847e-20)
(-0.0267003 2.57306 5.41632e-20)
(1.00382 0.0271336 2.42563e-21)
(1.06161 0.00313014 0)
(1.09298 0.0193863 0)
(-0.218546 2.14074 0)
(-0.0476483 2.54526 0)
(0.0215328 1.15892 0)
(0.283917 1.46407 -1.48825e-19)
(1.01124 -0.00966814 0)
(1.0094 -0.0149516 0)
(1.00234 0.000690782 6.62413e-19)
(1.00547 -0.00485419 -7.79481e-19)
(1.00117 -0.00101822 0)
(-0.099392 1.80196 0)
(-0.0886727 1.26699 0)
(-0.16321 1.58942 0)
(0.00857938 1.12218 0)
(0.0239802 1.02329 0)
(0.00830778 0.969195 0)
(1.03414 -0.0066447 0)
(1.02088 0.0157377 -9.77248e-22)
(0.795948 1.26012 2.35478e-19)
(1.00231 0.000260037 -6.62445e-19)
(1.00406 0.00521942 7.73171e-19)
(1.00118 0.00205857 0)
(1.01283 0.0102694 6.57371e-19)
(1.00806 0.00827655 -7.96156e-19)
(1.00861 0.0146833 0)
(-0.123731 2.57041 0)
(-0.197003 2.54741 6.14049e-20)
(-0.139405 2.52322 -5.9351e-20)
(1.21177 0.258552 6.50928e-19)
(1.14948 0.0773588 0)
(0.0456488 3.07744 -9.68049e-19)
(0.0659903 2.85335 -7.05753e-20)
(0.142538 3.19392 1.46911e-18)
(0.137341 3.22288 -2.17186e-19)
(0.135683 3.23553 0)
(0.0207855 3.1378 2.50261e-19)
(0.077401 3.16081 9.55368e-19)
(0.0700586 3.18704 -4.71509e-19)
(0.0235396 3.12944 0)
(0.657355 0.303799 0)
(0.576355 0.35572 0)
(1.10606 0.684096 1.92509e-19)
(1.10242 0.814829 -1.94872e-19)
(1.16464 0.570925 0)
(1.19406 0.512546 0)
(1.0162 0.0132484 -1.22582e-18)
(1.01499 0.0142329 1.53834e-18)
(1.02511 -0.010045 0)
(1.02316 -0.0119238 0)
(1.00645 0.00261659 0)
(1.01038 0.00364808 0)
(1.00458 0.00186638 0)
(1.0099 0.00606674 0)
(1.00787 0.0060371 0)
(1.00447 0.00459026 0)
(0.0871124 1.34805 0)
(0.079012 1.32038 0)
(0.115955 1.38317 0)
(0.126777 1.39966 0)
(0.145238 2.60746 0)
(0.186216 2.67116 -4.44255e-19)
(0.0986707 2.66482 0)
(0.0881533 2.66594 2.18982e-19)
(0.0404946 2.68242 -2.0244e-19)
(0.0229867 1.301 0)
(0.00888524 1.23538 0)
(0.0213741 1.32398 0)
(0.0429091 1.27261 0)
(-0.0103174 1.98965 -2.78649e-20)
(-0.0302931 2.60241 3.13569e-20)
(-0.0129328 2.66543 5.79892e-20)
(-0.0217036 2.67526 0)
(-0.0376565 2.60762 -1.1908e-19)
(-0.0360973 2.60143 -7.17289e-20)
(-0.000784551 1.99077 2.16802e-20)
(-0.0242751 2.41346 -4.20416e-20)
(-0.0218314 2.43012 -6.57857e-20)
(1.01254 0.0348358 1.24229e-18)
(1.00837 0.0169404 -1.53943e-18)
(1.00509 0.0413762 -1.24943e-18)
(0.983561 0.0223774 1.58715e-18)
(1.06253 0.00679268 0)
(1.04782 -0.00901582 0)
(1.09045 0.0302451 0)
(1.0718 0.0103586 0)
(1.06923 -0.00100833 0)
(1.13231 0.0712851 0)
(1.1051 0.0370569 0)
(1.10709 0.024754 0)
(-0.228616 2.52985 7.44628e-21)
(-0.189894 2.36795 0)
(-0.250273 2.46064 0)
(-0.0715608 2.57542 2.92838e-20)
(-0.0475565 2.58415 -1.49655e-21)
(0.0535605 1.85522 -1.52096e-19)
(-0.00286007 1.72874 1.53689e-19)
(0.0688933 1.37708 0)
(0.0422777 1.38039 0)
(0.0194257 1.35857 0)
(0.0391129 1.1743 0)
(-0.00550587 1.0361 0)
(0.375571 1.47855 2.43083e-19)
(0.412956 1.48578 1.35964e-19)
(0.595567 2.45294 -2.39017e-19)
(0.404361 2.54694 7.04892e-19)
(0.355229 2.0754 7.35132e-20)
(1.02086 -0.00827246 0)
(1.0154 -0.00982141 0)
(1.01485 -0.0156078 0)
(1.00745 -0.00124423 0)
(1.00492 -0.000978091 0)
(1.00776 -0.00478357 0)
(1.00922 -0.00381354 0)
(1.01412 -0.00455402 0)
(1.02156 0.0159077 1.19935e-18)
(1.0182 0.0158124 -1.53909e-18)
(1.02206 0.017808 -1.20766e-18)
(1.01976 0.0164824 1.51431e-18)
(0.763717 1.30835 0)
(0.697585 1.36314 2.23608e-19)
(0.872117 1.20631 7.04536e-20)
(0.915115 1.16061 -9.37541e-20)
(1.15728 2.60823 2.98839e-19)
(0.814519 0.0948451 6.1511e-19)
(1.14969 0.0955595 0)
(1.19191 0.18352 -5.22071e-19)
(1.1766 0.148179 -2.19881e-20)
(1.00624 0.13646 0)
(0.138563 2.96244 5.58067e-19)
(0.115337 2.86819 -1.22257e-18)
(0.02697 2.36999 8.28963e-19)
(0.093014 0.00512782 -3.71565e-19)
(0.34034 3.42159 -2.04715e-19)
(0.194494 3.3143 0)
(0.237267 3.35653 2.66607e-19)
(0.246602 3.03553 -1.84215e-18)
(0.341581 3.19454 0)
(0.00657027 3.12095 4.84983e-20)
(0.0162561 3.12983 -5.71817e-19)
(0.0148206 3.12585 8.41611e-19)
(0.0362008 3.14005 0)
(0.0347982 3.15079 0)
(1.2154 2.60819 0)
(0.530089 0.842468 -5.37221e-19)
(1.03342 0.989238 1.92604e-20)
(0.971875 1.06094 0)
(0.817223 0.960164 -1.20932e-19)
(1.05667 0.87705 2.95024e-20)
(0.368585 0.411986 -9.5975e-19)
(0.700919 0.328719 -2.29417e-20)
(0.680245 0.24982 4.4162e-19)
(0.59164 0.391052 3.26518e-20)
(0.510098 0.367074 -1.31532e-18)
(0.672284 0.340388 0)
(0.701934 0.42622 7.48384e-19)
(0.709036 0.425767 0)
(0.629843 0.371942 0)
(0.606536 0.298688 0)
(0.787361 0.617061 4.40504e-19)
(1.20833 0.279632 -5.53469e-19)
(1.20374 0.416989 0)
(1.21524 0.363699 0)
(0.758767 0.193619 6.58924e-19)
(0.833354 0.536925 -4.08173e-19)
(0.738888 0.51353 7.20113e-19)
(0.934822 0.420935 -7.96381e-19)
(1.01989 0.0145838 8.25717e-19)
(1.01795 0.014101 -8.3026e-19)
(1.01597 0.0155932 0)
(1.03562 -0.00623501 0)
(1.02944 -0.00879874 -7.78232e-19)
(1.02735 -0.0123255 7.70592e-19)
(1.02509 0.00964978 0)
(1.0238 0.0130432 0)
(1.01139 0.00402332 0)
(1.01432 0.00890086 0)
(1.01507 0.00386615 0)
(1.01418 0.00272412 0)
(0.0622308 1.33265 0)
(0.064363 1.29393 0)
(0.14767 1.346 -1.39157e-20)
(0.262372 1.46209 7.54269e-20)
(0.152559 1.43209 1.54645e-19)
(0.183159 1.4413 -2.54714e-19)
(0.161403 1.37315 0)
(0.132601 1.58841 -8.80917e-20)
(0.110965 1.55827 0)
(0.353496 2.02981 -1.06846e-19)
(0.349899 2.36285 6.36838e-19)
(0.184507 1.43943 7.682e-20)
(0.260775 1.37003 1.69819e-20)
(0.196095 1.35418 -1.37492e-20)
(0.270647 1.31007 -1.08691e-19)
(0.239753 1.57329 0)
(0.26123 1.6152 1.17563e-19)
(0.030777 2.27789 -3.98847e-20)
(0.0372925 2.67499 0)
(0.0621551 2.41423 1.57727e-19)
(0.0554969 2.43521 0)
(0.0688051 2.67963 -2.42414e-19)
(0.0495274 2.70433 0)
(0.0215985 1.41584 -1.7651e-21)
(0.0242972 1.46383 0)
(0.0255177 1.38235 0)
(0.0181623 1.38745 2.01614e-21)
(-0.00430932 2.65375 -2.19151e-20)
(0.0253656 2.69958 2.32517e-19)
(0.0101526 2.72242 1.62119e-21)
(-0.00518952 1.84683 2.66026e-20)
(-0.0162954 1.66474 1.22991e-20)
(0.0479413 1.28113 0)
(0.0369871 1.14581 0)
(0.0400759 1.56974 1.3267e-20)
(0.0254575 1.44599 7.76525e-21)
(0.0291963 1.51105 -9.6913e-21)
(0.0348463 1.59172 0)
(-0.0814011 2.35893 4.19516e-20)
(-0.099298 2.55307 -2.60415e-20)
(-0.0306187 2.4832 -9.83059e-21)
(-0.0214133 1.8527 -3.21022e-20)
(-0.0504178 2.49199 -1.53464e-20)
(-0.023777 2.44068 7.76695e-20)
(1.02026 0.0203766 -8.20568e-19)
(1.01674 0.0255547 8.22946e-19)
(1.0152 0.0162448 0)
(1.01557 0.0645374 1.12607e-18)
(0.994705 0.0555608 -1.29395e-18)
(0.956704 0.0433879 1.44704e-18)
(1.01714 0.100378 -1.54436e-19)
(1.04183 -0.00632071 0)
(1.04982 -0.00233637 7.43395e-19)
(1.03804 -0.0104178 -7.45343e-19)
(1.0698 0.038738 -4.43347e-20)
(1.06339 0.0211387 3.82335e-19)
(1.06229 0.0498609 0)
(1.05363 0.0438443 -1.37073e-19)
(1.03251 0.038855 0)
(1.02633 0.0351705 0)
(1.0277 0.0126764 0)
(1.02443 0.0154317 0)
(1.03874 0.0297737 2.82325e-19)
(1.03901 0.0252429 -6.22894e-19)
(1.05044 0.0318935 -3.0022e-19)
(1.0469 0.0321621 -3.29578e-19)
(1.06786 0.0563533 6.46306e-19)
(1.09188 0.0438354 0)
(1.09888 0.0869436 0)
(-0.0663389 2.37605 8.49129e-20)
(-0.113964 2.30219 1.14561e-20)
(-0.0622322 2.2754 0)
(-0.123433 2.51062 -8.34892e-20)
(-0.19909 2.51844 -1.85061e-20)
(-0.162932 2.51422 -3.86305e-21)
(-0.0374326 2.61099 6.19881e-20)
(-0.064621 2.54763 -4.9082e-21)
(-0.0399976 2.51632 1.99922e-20)
(-0.0433309 2.59874 -3.23106e-20)
(-0.0407582 2.60263 3.98755e-20)
(0.124883 1.60356 4.7211e-21)
(0.06448 1.83439 -7.98766e-20)
(0.365408 1.41835 -9.97961e-20)
(0.363278 1.35958 3.95352e-20)
(0.644889 1.40844 -2.16256e-19)
(0.511649 1.47279 -1.31416e-19)
(0.563653 1.44622 0)
(0.591151 2.42817 2.12933e-19)
(0.658128 2.41941 3.39141e-19)
(0.41077 2.5229 8.17721e-20)
(0.405439 2.55402 -6.34044e-19)
(0.514968 2.50174 6.1248e-19)
(0.550266 2.46653 0)
(0.488416 2.52045 -5.66576e-19)
(0.248274 2.59733 1.18769e-18)
(0.353534 2.5717 -8.34733e-20)
(0.284659 2.65818 -1.62492e-18)
(0.939849 2.38116 7.31639e-19)
(0.833009 2.38654 0)
(1.01095 0.000373787 2.68812e-20)
(1.0153 -0.00557214 -2.18609e-20)
(1.01762 -0.00368302 -3.99149e-19)
(1.01494 -0.00111342 4.01224e-19)
(1.01232 0.000932203 0)
(0.633541 1.27731 0)
(0.653551 1.17235 0)
(0.754254 1.07985 0)
(0.644484 1.13958 0)
(1.186 2.62295 5.95167e-20)
(1.07571 2.36732 0)
(0.840179 2.18694 3.90446e-21)
(0.827821 2.45403 0)
(0.923002 2.54259 -4.2834e-19)
(0.959145 2.49754 2.85251e-19)
(0.824644 0.147687 0)
(0.795741 0.129122 1.68891e-19)
(0.924839 0.126934 9.73766e-19)
(0.844872 0.12218 -3.67159e-19)
(0.824218 0.0646828 -1.11958e-18)
(1.06979 0.22201 -9.52908e-19)
(0.989752 0.278458 -1.55225e-20)
(0.915124 0.273727 9.09753e-19)
(1.00256 0.206071 7.5889e-19)
(0.950252 0.167975 -1.29602e-18)
(0.918363 0.171129 1.6217e-19)
(0.94829 0.233817 -3.48114e-19)
(0.927333 0.19515 0)
(0.996617 0.168591 6.39228e-19)
(1.04497 0.171931 0)
(1.04232 0.198543 0)
(1.09781 0.106363 3.03298e-19)
(1.07177 0.161672 -1.36079e-20)
(1.06368 0.225329 -1.65118e-19)
(1.09422 0.192285 0)
(1.02279 0.0432455 6.36882e-19)
(1.04182 0.0537976 7.93552e-19)
(1.0328 0.0409212 -6.31837e-19)
(1.04235 0.0587486 -5.31658e-19)
(1.01686 0.0661857 -7.97114e-19)
(0.99167 0.142483 0)
(1.00119 0.0961177 0)
(0.972569 0.0619054 -5.15042e-19)
(0.924912 0.0807812 2.02983e-19)
(1.03988 0.0948187 7.36528e-19)
(1.06915 0.108303 -8.74167e-19)
(1.07423 0.14093 7.80835e-19)
(1.03381 0.131994 0)
(1.0742 0.096253 0)
(1.05876 0.0797258 -3.55094e-19)
(1.0468 0.0876453 -6.0342e-19)
(0.582062 1.08158 1.42839e-19)
(0.612469 1.41244 -4.53225e-20)
(1.15666 2.74085 -2.30689e-19)
(1.22309 3.08218 1.60286e-21)
(1.24897 2.72243 -1.39222e-19)
(1.27894 2.70649 -2.74597e-20)
(1.20716 2.34618 -1.00829e-20)
(1.21033 2.98586 -9.46408e-20)
(1.22987 2.95079 2.37392e-19)
(1.21412 3.23597 -1.43911e-19)
(1.37536 2.96751 1.99044e-19)
(1.36604 2.88579 0)
(0.537295 0.849659 -5.00896e-20)
(0.138927 1.26107 5.78266e-19)
(0.528471 0.468607 6.20893e-19)
(0.362842 0.219625 6.84937e-19)
(0.530631 0.39705 7.41784e-19)
(0.539959 0.48574 -1.22129e-18)
(0.54313 0.492776 9.98159e-19)
(0.49702 0.41736 -3.74267e-19)
(0.42502 0.35476 8.51152e-19)
(0.762304 0.250654 -3.76983e-19)
(0.723061 0.28812 0)
(0.717326 0.219973 9.8884e-21)
(0.720537 0.513546 3.93758e-19)
(0.692197 0.482952 -1.43562e-18)
(0.612004 0.485095 1.6538e-20)
(0.624545 0.465618 0)
(0.665634 0.737721 4.0854e-19)
(0.81435 0.77053 4.17936e-19)
(0.742627 0.85386 -4.88619e-19)
(0.856097 0.802302 -1.69091e-19)
(0.889853 0.845176 -4.29725e-20)
(0.898247 0.846704 4.39882e-20)
(0.827169 0.642748 -7.31883e-19)
(0.904187 0.698252 1.57095e-19)
(0.961773 0.712432 0)
(0.951807 0.688381 -2.18106e-19)
(1.01489 0.319259 2.30504e-19)
(1.12349 0.290405 3.21822e-19)
(1.05468 0.260267 3.89423e-19)
(0.997341 0.353339 -4.62469e-19)
(1.0366 0.420129 0)
(1.08944 0.406504 0)
(0.902873 0.349277 4.77754e-21)
(0.839552 0.282714 0)
(0.864694 0.275903 4.28116e-19)
(0.899384 0.280192 -6.09668e-21)
(0.926455 0.424133 2.21998e-18)
(0.882316 0.485337 5.72951e-19)
(0.888099 0.449866 -6.07994e-19)
(0.815942 0.435592 6.50999e-19)
(0.798305 0.430961 3.90624e-19)
(0.769683 0.418634 -3.84037e-19)
(1.02701 -0.000699238 6.64779e-19)
(1.02 -0.00034726 0)
(1.01852 0.00058316 4.33359e-19)
(1.02156 -0.0019489 -9.81853e-19)
(1.02231 0.00393298 4.76799e-19)
(1.02048 0.0108512 -9.98517e-19)
(1.02147 0.0102654 0)
(1.02076 0.0105902 -2.08036e-19)
(1.01602 0.00745762 5.21829e-19)
(1.01678 0.0102292 -2.60344e-19)
(1.01748 0.0095668 1.91789e-19)
(0.0319633 1.31475 0)
(0.0390222 1.35158 0)
(0.0491548 1.31333 0)
(0.0478398 1.27514 0)
(0.0713553 1.36693 4.00354e-21)
(0.0780893 1.33977 5.72415e-21)
(0.111277 1.49463 -2.49036e-20)
(0.0856826 1.3377 7.41923e-21)
(0.0327356 1.44839 -3.12862e-20)
(0.0366991 1.43854 2.44736e-20)
(0.0654265 1.3506 -7.87054e-21)
(0.0594128 1.35253 6.76859e-21)
(0.0530381 1.33141 6.88501e-22)
(0.0411248 1.35242 -2.61461e-21)
(0.103748 2.3869 -1.74337e-19)
(0.0930733 2.43131 0)
(0.168962 2.06425 1.14895e-19)
(0.106842 1.71087 4.85789e-20)
(0.231225 2.05575 -9.33986e-20)
(0.209178 2.45266 0)
(0.268482 2.40418 -6.07536e-19)
(0.306066 2.40244 4.31333e-19)
(0.231758 2.01437 -2.59877e-19)
(0.15258 2.18187 1.72189e-19)
(0.145808 2.30199 0)
(0.00900348 1.88433 -3.88775e-20)
(-0.0172398 2.40653 -1.03829e-19)
(-0.00257396 2.16517 0)
(0.00681933 2.46821 -1.4973e-20)
(0.0194565 2.31641 3.08361e-20)
(0.0172538 1.40002 -2.58198e-22)
(0.0329067 1.38233 1.72563e-20)
(0.0494693 1.40757 -1.21516e-20)
(0.00992959 1.40316 2.0036e-21)
(0.0213309 1.4201 0)
(0.0517214 1.38748 0)
(0.0690463 1.19527 -3.50521e-20)
(0.105655 1.37867 8.69877e-21)
(0.0873223 1.37657 0)
(0.0507778 1.25049 -2.20424e-20)
(0.0383172 1.03791 5.05253e-20)
(1.04018 0.0108358 0)
(1.04584 0.00706575 -6.97958e-20)
(1.03836 0.0200825 -5.01943e-19)
(1.0475 0.0192111 0)
(1.05167 0.01918 0)
(1.03635 0.0105742 -6.46519e-21)
(1.03122 0.0104351 8.05506e-19)
(1.03193 0.0153402 9.77845e-19)
(1.02593 0.0193548 0)
(1.02336 0.0198522 0)
(1.03504 0.0234181 5.01145e-19)
(1.02637 0.0248484 0)
(1.02498 0.0247324 0)
(-0.0246299 2.04907 0)
(0.0425941 1.83104 1.64154e-20)
(0.0338268 1.8947 -1.67946e-20)
(0.0847534 1.39677 0)
(0.0842804 1.65573 -1.16003e-20)
(0.110207 1.52339 2.75805e-20)
(0.0910828 1.43521 0)
(0.396587 1.68453 0)
(0.364327 1.28746 -7.93054e-20)
(0.306828 1.33926 0)
(0.42021 1.28781 2.75473e-20)
(0.464342 1.44596 0)
(0.445401 1.39037 1.27928e-20)
(1.03395 2.68943 -1.56455e-20)
(0.962208 2.41139 -9.19796e-19)
(0.910755 2.18666 1.06755e-18)
(0.84608 2.37834 2.43557e-19)
(0.846285 2.50254 0)
(0.916612 2.49687 0)
(0.923176 2.37493 0)
(0.900693 2.36162 -9.4642e-19)
(0.692847 2.4736 -3.97082e-19)
(0.802319 2.46453 -9.78808e-20)
(0.813822 2.43637 7.47544e-20)
(0.693017 2.39469 0)
(0.796784 2.3907 0)
(0.755658 2.40315 -3.67657e-19)
(0.769859 2.49394 0)
(0.612914 1.09578 0)
(0.482876 0.929623 -5.05995e-19)
(0.551689 0.964813 -3.22333e-20)
(0.52266 1.05857 0)
(0.521673 1.00762 7.59972e-19)
(0.766619 0.880055 -1.37484e-19)
(0.778471 1.01104 0)
(0.75139 0.968442 2.01673e-19)
(0.639847 1.03436 0)
(0.644662 0.944386 0)
(1.16475 2.76175 -2.37511e-19)
(1.14234 2.82551 -1.016e-19)
(0.932551 2.34614 1.07421e-19)
(0.900219 2.32535 -8.56765e-20)
(1.12971 2.73494 0)
(1.08316 2.70516 1.03147e-19)
(1.08935 2.48748 -3.23537e-19)
(0.984834 2.23419 -3.05658e-20)
(0.502731 1.36247 0)
(0.515245 1.07923 -1.26049e-19)
(0.562871 1.16121 0)
(0.860552 0.211966 0)
(0.802769 0.167096 0)
(0.756734 0.14443 0)
(0.855063 0.22077 -6.73836e-19)
(0.779521 0.213296 3.95508e-19)
(0.936793 0.0672055 -4.19202e-19)
(0.950279 0.111643 0)
(0.927975 0.118282 1.80789e-19)
(0.870781 0.0940443 7.24784e-19)
(0.850548 0.0547072 -4.53243e-19)
(1.16165 3.36159 -7.22976e-19)
(1.20911 3.28085 0)
(1.16031 3.38968 -1.49011e-18)
(0.647827 3.55059 1.26598e-18)
(0.872521 3.11814 7.52504e-20)
(0.511237 0.854516 6.02621e-19)
(0.429314 0.848022 0)
(0.339167 0.502379 -1.54023e-19)
(0.443603 0.686399 8.71108e-19)
(0.531146 0.474949 -2.13556e-19)
(0.505933 0.526267 2.41749e-19)
(0.653616 0.5397 5.29984e-19)
(0.680819 0.556239 0)
(0.63418 0.622196 0)
(0.591775 0.559195 0)
(0.963162 0.596787 1.09332e-19)
(0.884886 0.535013 -5.5738e-19)
(0.908126 0.567257 4.27395e-19)
(0.943302 0.502449 -4.32467e-19)
(1.0468 0.478107 0)
(1.05691 0.566128 -1.0967e-19)
(0.839147 0.386252 -8.91042e-19)
(0.843224 0.371091 -1.10118e-18)
(0.791015 0.386375 6.95304e-19)
(0.787375 0.354406 -7.13168e-19)
(0.838696 0.308193 -5.56328e-19)
(0.793084 0.307184 6.83661e-19)
(1.02685 0.00535646 -5.10632e-19)
(1.02647 0.00569096 1.04313e-18)
(1.02918 -0.000600511 6.4459e-19)
(1.03323 0.000590027 -7.76514e-19)
(1.0328 0.00796134 0)
(1.03003 0.00868537 -1.26013e-18)
(0.0548293 1.64278 2.72284e-20)
(0.0401714 1.56765 0)
(0.0805351 1.69534 1.61569e-19)
(0.0943951 1.67741 -1.42693e-19)
(0.0794752 1.51245 4.67239e-20)
(0.0798204 1.49725 0)
(0.0101692 1.71532 0)
(0.023043 1.55396 -5.07103e-21)
(0.0607114 1.48128 4.56261e-21)
(0.0428383 1.63537 2.01673e-20)
(0.0125067 1.91985 -1.01229e-20)
(-0.0130628 1.94321 1.24177e-20)
(0.5003 1.37596 -2.80308e-19)
(0.495091 1.38195 3.07599e-19)
(0.443554 1.28563 -3.99896e-20)
(0.438535 1.2952 8.41938e-21)
(0.625832 1.28977 0)
(0.541499 1.37725 8.83514e-20)
(0.559803 1.38571 -8.60501e-20)
(0.45137 1.27385 3.85206e-20)
(0.510066 1.2274 0)
(0.564812 1.19733 0)
(0.659651 2.43331 5.83407e-19)
(0.670419 2.46892 1.27332e-18)
(0.717338 2.48265 -8.76358e-19)
(0.617923 2.46184 -2.07631e-19)
(0.563824 2.55196 2.86053e-19)
(0.512715 2.52501 -7.58649e-19)
(0.974935 2.37831 -5.97116e-19)
(1.01232 2.39329 0)
(0.92096 2.16574 -6.90482e-19)
(1.05293 2.68482 0)
(1.05516 2.67157 0)
(0.612486 2.27836 -1.1e-19)
(1.04187 3.16463 1.39712e-19)
(0.913096 3.03505 -4.69841e-20)
(0.283011 0.919935 0)
(0.323173 0.781665 -3.18938e-19)
(0.479337 0.735211 -3.18541e-19)
(0.390963 2.02656 0)
(0.468582 2.78739 -5.23875e-20)
(0.424337 2.55161 0)
(0.67761 0.684403 -8.66588e-19)
(0.759209 0.681585 1.18697e-18)
(0.77872 0.624633 -1.17592e-18)
(0.658834 0.646531 -1.12506e-19)
(0.714899 0.599784 -4.67512e-19)
(1.00373 2.76826 -1.06231e-19)
(1.04094 2.82421 -1.65165e-19)
(0.640239 2.15368 6.57273e-19)
(0.596426 1.72089 -4.69362e-19)
(0.699604 1.91035 -4.08716e-19)
(0.989541 2.45112 -1.15256e-19)
(0.994637 2.4443 3.00543e-19)
(0.660368 1.84999 2.81832e-20)
(0.451079 1.33891 1.4711e-19)
)
;

boundaryField
{
    wall-4
    {
        type            noSlip;
    }
    velocity-inlet-5
    {
        type            fixedValue;
        value           uniform (1 0 0);
    }
    velocity-inlet-6
    {
        type            fixedValue;
        value           uniform (0 3 0);
    }
    pressure-outlet-7
    {
        type            zeroGradient;
    }
    wall-8
    {
        type            noSlip;
    }
    frontAndBackPlanes
    {
        type            empty;
    }
}


// ************************************************************************* //
