/*--------------------------------*- C++ -*----------------------------------*\
  =========                 |
  \\      /  F ield         | OpenFOAM: The Open Source CFD Toolbox
   \\    /   O peration     | Website:  https://openfoam.org
    \\  /    A nd           | Version:  9
     \\/     M anipulation  |
\*---------------------------------------------------------------------------*/
FoamFile
{
    format      ascii;
    class       volScalarField;
    location    "14";
    object      p;
}
// * * * * * * * * * * * * * * * * * * * * * * * * * * * * * * * * * * * * * //

dimensions      [0 2 -2 0 0 0 0];

internalField   nonuniform List<scalar> 
2200
(
0.400316
0.378854
0.363018
0.347422
0.332941
0.320655
0.310519
0.302562
0.296963
0.293985
0.294253
0.297688
0.303616
0.311818
0.322128
0.334541
0.349107
0.364751
0.380618
0.402096
0.33263
0.329385
0.326553
0.322556
0.317268
0.31097
0.304534
0.298807
0.294459
0.292085
0.292325
0.2952
0.299907
0.305896
0.312518
0.318939
0.324314
0.328378
0.331252
0.334509
0.292375
0.292706
0.294985
0.296606
0.297316
0.296667
0.294834
0.292301
0.289811
0.288244
0.288548
0.290652
0.293533
0.296348
0.298379
0.299169
0.298561
0.297009
0.294783
0.294473
0.269602
0.271128
0.274085
0.276918
0.279648
0.28196
0.283442
0.28391
0.283598
0.283108
0.283493
0.28457
0.285313
0.285172
0.283929
0.281788
0.279182
0.276434
0.273531
0.27202
0.255457
0.257405
0.260373
0.263362
0.266421
0.269457
0.272238
0.274426
0.275906
0.276693
0.277096
0.276997
0.276072
0.274271
0.271772
0.268932
0.266012
0.263122
0.260219
0.25828
0.248696
0.250157
0.252508
0.255423
0.258384
0.261186
0.263679
0.265988
0.268057
0.269556
0.270022
0.269384
0.268015
0.26619
0.26401
0.261434
0.258624
0.255808
0.253517
0.252061
0.247015
0.24783
0.249395
0.251997
0.254741
0.257224
0.259302
0.261237
0.262992
0.264378
0.264971
0.264638
0.263701
0.262359
0.260673
0.258486
0.255939
0.25346
0.251946
0.251142
0.247724
0.248075
0.249005
0.250899
0.25304
0.255121
0.257001
0.258736
0.260219
0.261422
0.262139
0.262159
0.261596
0.260622
0.259313
0.257624
0.255744
0.254021
0.25316
0.252815
0.248051
0.24815
0.248576
0.249538
0.250735
0.25213
0.253694
0.255355
0.256906
0.258272
0.259193
0.259404
0.259024
0.258273
0.257392
0.256448
0.255548
0.254785
0.254446
0.254348
0.246214
0.246249
0.246376
0.246741
0.247275
0.248026
0.249084
0.250476
0.252026
0.253607
0.254854
0.255448
0.255447
0.255077
0.254756
0.254497
0.254294
0.25415
0.254115
0.254089
0.243038
0.242996
0.243106
0.24338
0.243826
0.244391
0.245192
0.246305
0.247688
0.249313
0.250822
0.25191
0.252504
0.252764
0.252839
0.252886
0.252875
0.252862
0.252878
0.252889
0.239615
0.239597
0.239763
0.240116
0.240649
0.241368
0.242325
0.243491
0.244948
0.246712
0.248476
0.249892
0.250924
0.251493
0.251808
0.251959
0.251975
0.251954
0.251952
0.251957
0.23602
0.236044
0.236184
0.236524
0.237079
0.237858
0.238936
0.240328
0.242103
0.244262
0.24649
0.248251
0.249533
0.250351
0.250879
0.251178
0.251323
0.251392
0.251428
0.25143
0.231726
0.231728
0.231869
0.232172
0.232698
0.233475
0.234625
0.236209
0.238332
0.241021
0.24391
0.246242
0.247887
0.249061
0.249854
0.250379
0.250718
0.250927
0.251031
0.25103
0.226678
0.226666
0.226866
0.22719
0.227738
0.228612
0.229909
0.231757
0.234301
0.237612
0.241269
0.244333
0.246508
0.248094
0.249185
0.249917
0.250394
0.250685
0.250826
0.250829
0.220776
0.220764
0.220996
0.221478
0.222226
0.223335
0.224951
0.227235
0.230375
0.234484
0.239053
0.24294
0.245772
0.247805
0.249172
0.250094
0.250691
0.25105
0.251218
0.251215
0.214174
0.21417
0.214446
0.21502
0.215954
0.217363
0.219415
0.222313
0.226272
0.23144
0.237169
0.242043
0.245617
0.248123
0.249826
0.250968
0.251697
0.252126
0.252323
0.252318
0.206385
0.206389
0.206768
0.20752
0.208714
0.21049
0.213072
0.216723
0.22172
0.228229
0.235408
0.241481
0.245917
0.249025
0.251158
0.252592
0.253525
0.254087
0.254345
0.254337
0.19728
0.197274
0.197728
0.198637
0.200137
0.202416
0.205721
0.210382
0.216718
0.224916
0.233883
0.241428
0.246922
0.250789
0.253447
0.255228
0.256377
0.257054
0.257359
0.257343
0.186148
0.186174
0.186817
0.188053
0.190017
0.192949
0.197199
0.203173
0.21124
0.221562
0.232711
0.242028
0.248793
0.253548
0.25681
0.258994
0.260417
0.261275
0.261667
0.261653
0.172707
0.172708
0.173503
0.175087
0.177677
0.181595
0.187175
0.194926
0.205232
0.218198
0.23199
0.243424
0.251709
0.257549
0.261573
0.264286
0.266043
0.267074
0.267532
0.267495
0.155657
0.155764
0.156955
0.159183
0.162709
0.16794
0.175359
0.185514
0.198704
0.214927
0.231862
0.245776
0.255842
0.262956
0.267867
0.271173
0.273338
0.274637
0.27522
0.275187
0.134396
0.134452
0.136047
0.139194
0.144137
0.151426
0.161468
0.174802
0.191639
0.211786
0.232385
0.24915
0.261277
0.269898
0.275934
0.280072
0.282788
0.284402
0.285106
0.285021
0.106031
0.106529
0.109112
0.113867
0.121193
0.131495
0.145269
0.162857
0.184218
0.209009
0.233811
0.253799
0.268267
0.278647
0.285988
0.291091
0.294516
0.296568
0.297495
0.297388
0.0684453
0.0691994
0.0735064
0.081462
0.0928506
0.107859
0.126849
0.149849
0.176663
0.206799
0.236237
0.259721
0.276737
0.289069
0.297991
0.304367
0.308798
0.31159
0.312853
0.312591
0.0184572
0.0191283
0.0272364
0.0406615
0.0587157
0.0806558
0.106453
0.136075
0.169276
0.20536
0.239768
0.266956
0.286738
0.301257
0.311972
0.319891
0.325575
0.32913
0.330431
0.330046
-0.0505301
-0.0463506
-0.0288696
-0.00587066
0.0210558
0.0512425
0.0848827
0.122043
0.162341
0.205068
0.245161
0.276797
0.300141
0.317695
0.331048
0.341298
0.349186
0.35486
0.356925
0.356847
-0.132582
-0.117698
-0.0874153
-0.0538111
-0.0172794
0.0213797
0.0633089
0.108288
0.155882
0.205662
0.252081
0.288896
0.316486
0.337764
0.354642
0.368194
0.379053
0.387142
0.392848
0.393639
-0.197793
-0.180502
-0.141776
-0.100126
-0.0549717
-0.00763463
0.0425885
0.0951126
0.149813
0.206395
0.258743
0.300232
0.331433
0.355573
0.374662
0.390093
0.402282
0.411547
0.416589
0.417251
-0.246421
-0.230984
-0.187683
-0.141139
-0.0892443
-0.0344814
0.0229837
0.0824324
0.143912
0.206905
0.264683
0.310079
0.343825
0.3696
0.389576
0.405365
0.417797
0.426903
0.431941
0.432729
-0.286219
-0.27105
-0.225632
-0.17612
-0.118958
-0.0585567
0.00480187
0.0703736
0.137971
0.20665
0.269031
0.317372
0.352755
0.379351
0.39966
0.41537
0.42787
0.437015
0.442252
0.443011
-0.320374
-0.304885
-0.257456
-0.205667
-0.144565
-0.0800245
-0.0119623
0.0588179
0.131654
0.205295
0.271748
0.322693
0.359429
0.38666
0.407342
0.423154
0.435705
0.444711
0.450176
0.450712
-0.350438
-0.334985
-0.285215
-0.231026
-0.166896
-0.0993695
-0.0275434
0.0475947
0.124958
0.203187
0.273565
0.326988
0.365154
0.393187
0.414285
0.430238
0.442699
0.451831
0.456871
0.457509
-0.377444
-0.362249
-0.310409
-0.253701
-0.186964
-0.117063
-0.0421272
0.0366857
0.118048
0.200549
0.274713
0.330816
0.370621
0.399487
0.421007
0.437201
0.449557
0.458662
0.46359
0.464183
-0.402189
-0.387062
-0.334135
-0.275007
-0.205819
-0.133624
-0.0558997
0.0260957
0.111059
0.197668
0.275829
0.334816
0.376211
0.405982
0.427839
0.444049
0.456384
0.465325
0.470281
0.470908
-0.425521
-0.409899
-0.356833
-0.295698
-0.224293
-0.149684
-0.0692462
0.0156457
0.103938
0.194428
0.276376
0.338054
0.381266
0.412026
0.434494
0.451112
0.463525
0.472398
0.477309
0.477855
-0.447435
-0.43164
-0.378349
-0.315828
-0.242688
-0.165743
-0.0826905
0.00490429
0.0962513
0.190288
0.275901
0.340936
0.386473
0.418679
0.441705
0.458489
0.470886
0.479616
0.484511
0.485107
-0.468124
-0.452449
-0.398653
-0.335171
-0.260814
-0.181909
-0.0965411
-0.0064641
0.0877706
0.185326
0.275105
0.34354
0.391339
0.42493
0.44891
0.466166
0.478815
0.487559
0.492319
0.492808
-0.488113
-0.472236
-0.417947
-0.353714
-0.278432
-0.198007
-0.110725
-0.0184065
0.0785968
0.17955
0.273119
0.345027
0.396039
0.431843
0.456918
0.474694
0.487331
0.495744
0.500457
0.500939
-0.507803
-0.491265
-0.436564
-0.371653
-0.295477
-0.213828
-0.124987
-0.0307287
0.0687191
0.172671
0.269864
0.346001
0.400456
0.438852
0.465361
0.483634
0.496362
0.504952
0.509301
0.509576
-0.527187
-0.509833
-0.454798
-0.389182
-0.312051
-0.229326
-0.13919
-0.043315
0.0582144
0.164933
0.266043
0.346083
0.403957
0.445405
0.474162
0.493575
0.506415
0.514172
0.518239
0.51838
-0.546143
-0.528143
-0.472746
-0.406345
-0.328284
-0.24458
-0.153328
-0.0560728
0.0472721
0.156434
0.260801
0.344745
0.407062
0.452209
0.483896
0.504666
0.517367
0.524572
0.527792
0.527546
-0.564527
-0.546118
-0.490319
-0.423109
-0.344225
-0.259652
-0.167416
-0.0689824
0.0358956
0.147055
0.254204
0.342255
0.408594
0.458216
0.493863
0.517389
0.53058
0.535677
0.536542
0.536035
-0.582268
-0.563583
-0.507353
-0.439396
-0.359836
-0.274531
-0.18146
-0.0820455
0.0240556
0.136897
0.246627
0.338158
0.408807
0.463097
0.503602
0.531559
0.546796
0.549993
0.546315
0.543352
-0.599305
-0.580386
-0.523731
-0.455127
-0.37503
-0.289135
-0.195388
-0.0951744
0.0119226
0.126147
0.237894
0.332244
0.406793
0.466224
0.512862
0.547189
0.568018
0.569599
0.561139
0.565407
-0.615606
-0.596465
-0.539391
-0.470241
-0.389714
-0.303356
-0.209081
-0.108253
-0.000344483
0.114959
0.228159
0.324795
0.402995
0.46678
0.519114
0.561679
0.593382
0.59388
0.551227
0.498316
-0.631119
-0.611864
-0.554388
-0.484807
-0.403965
-0.317286
-0.222675
-0.121468
-0.013031
0.102966
0.217073
0.315134
0.395666
0.463676
0.521429
0.573383
0.620518
0.653598
0.683212
0.735042
-0.6458
-0.626654
-0.56883
-0.498965
-0.417951
-0.331144
-0.236426
-0.135111
-0.026572
0.0896134
0.204186
0.30267
0.384487
0.454724
0.514056
0.564047
0.601397
0.626056
0.614381
0.618713
-0.659664
-0.640785
-0.582694
-0.512678
-0.431606
-0.344832
-0.250204
-0.149055
-0.0407712
0.0751973
0.189623
0.287646
0.368574
0.436863
0.493157
0.534449
0.543077
0.512619
0.463871
0.458442
-0.672788
-0.654228
-0.595982
-0.525959
-0.44494
-0.35836
-0.264014
-0.163299
-0.055586
0.0595561
0.172911
0.269174
0.346337
0.408502
0.457515
0.472833
0.442922
0.376982
0.307108
0.300741
-0.685219
-0.667019
-0.608721
-0.538826
-0.45798
-0.371747
-0.277845
-0.177772
-0.070989
0.0427421
0.154204
0.248132
0.319448
0.368984
0.393317
0.380416
0.332952
0.23075
0.141753
0.127293
-0.69736
-0.679576
-0.62129
-0.55163
-0.471067
-0.385286
-0.291952
-0.192732
-0.0871541
0.024815
0.133753
0.224337
0.288949
0.32265
0.312417
0.270194
0.161798
0.0342522
-0.0777764
-0.0997936
-0.710028
-0.692665
-0.634353
-0.564956
-0.484746
-0.399433
-0.30674
-0.208498
-0.104315
0.00543935
0.1109
0.196824
0.254097
0.26665
0.21844
0.122826
-0.0470863
-0.209093
-0.342257
-0.367277
-0.723684
-0.706648
-0.648179
-0.579017
-0.499176
-0.414294
-0.322267
-0.225089
-0.122513
-0.0152555
0.0863238
0.167233
0.212887
0.199061
0.121043
-0.044798
-0.270647
-0.503654
-0.696156
-0.744537
-0.738378
-0.721561
-0.662772
-0.593825
-0.514311
-0.429821
-0.338489
-0.242479
-0.141673
-0.0371423
0.059645
0.134936
0.16834
0.113887
0.000108979
-0.22169
-0.493015
-0.824032
-1.17765
-1.31765
-0.754135
-0.737439
-0.678161
-0.609468
-0.53017
-0.446043
-0.355445
-0.260649
-0.161781
-0.0603587
0.0312637
0.0996635
0.117419
0.0258826
-0.145757
-0.40328
-0.691531
-1.09939
-1.74974
-2.3546
-0.770947
-0.754258
-0.694363
-0.625991
-0.546715
-0.462922
-0.373042
-0.279483
-0.182667
-0.084546
0.00207497
0.0638853
0.0654342
-0.0612287
-0.295774
-0.598597
-0.865894
-1.1778
-1.84925
-3.58106
-0.788806
-0.772005
-0.711462
-0.643493
-0.564041
-0.480587
-0.391497
-0.299204
-0.204568
-0.109999
-0.0285755
0.0237462
0.00669514
-0.137521
-0.417459
-0.740915
-0.959446
-1.05992
-1.11842
-1.57103
-0.807648
-0.790566
-0.729634
-0.662182
-0.582406
-0.499437
-0.41127
-0.320377
-0.228192
-0.137828
-0.0615538
-0.0168763
-0.0608964
-0.196676
-0.489821
-0.787516
-0.967532
-1.01484
-0.977736
-1.03143
-0.827316
-0.809974
-0.749012
-0.681988
-0.601793
-0.519477
-0.432378
-0.343059
-0.253596
-0.168025
-0.0971584
-0.060627
-0.124624
-0.253839
-0.540525
-0.790741
-0.937593
-0.986996
-1.01509
-1.03777
-0.847452
-0.829879
-0.769608
-0.702707
-0.622097
-0.540651
-0.454763
-0.367082
-0.280586
-0.200059
-0.133818
-0.101273
-0.181734
-0.326255
-0.590587
-0.798675
-0.920123
-0.918942
-0.949058
-0.947637
-0.86797
-0.850249
-0.791105
-0.723977
-0.64309
-0.562788
-0.478023
-0.392165
-0.30875
-0.233548
-0.174055
-0.144441
-0.23837
-0.409245
-0.645234
-0.809974
-0.908965
-0.911992
-0.924431
-0.929952
-0.888435
-0.870783
-0.812683
-0.745368
-0.664514
-0.585571
-0.501861
-0.417925
-0.337497
-0.267396
-0.214809
-0.189146
-0.306954
-0.507986
-0.715954
-0.831865
-0.890254
-0.932167
-0.91548
-0.925468
-0.908578
-0.891149
-0.833786
-0.766358
-0.68593
-0.608654
-0.525643
-0.443908
-0.366319
-0.30047
-0.25644
-0.227622
-0.358626
-0.608392
-0.811961
-0.877487
-0.835013
-0.909001
-0.906547
-0.91962
-0.927615
-0.910612
-0.853616
-0.786194
-0.707349
-0.631165
-0.548593
-0.469888
-0.394141
-0.331337
-0.299561
-0.27048
-0.411236
-0.700641
-0.929243
-0.979872
-0.89361
-0.921961
-0.955367
-0.963178
-0.944778
-0.928266
-0.871737
-0.804626
-0.728247
-0.651418
-0.570604
-0.494885
-0.419992
-0.357592
-0.337847
-0.29592
-0.462442
-0.788738
-1.09355
-1.2668
-1.25983
-1.20322
-1.19527
-1.18317
-0.958881
-0.943154
-0.887622
-0.82096
-0.746178
-0.669461
-0.59152
-0.516965
-0.443935
-0.379839
-0.364049
-0.302322
-0.477667
-0.826327
-1.25402
-1.70906
-1.86256
-1.78326
-1.69794
-1.63197
-0.968892
-0.953985
-0.89966
-0.833503
-0.759801
-0.684422
-0.608815
-0.536438
-0.463903
-0.40116
-0.375734
-0.305658
-0.469286
-0.798521
-1.243
-1.74586
-1.96625
-1.86627
-1.76553
-1.69598
-0.972959
-0.958969
-0.906253
-0.840823
-0.76818
-0.69482
-0.621636
-0.55293
-0.480908
-0.410563
-0.368881
-0.300563
-0.415003
-0.60391
-0.842106
-1.0666
-1.14014
-1.0888
-0.984449
-0.885281
-0.969675
-0.956624
-0.905645
-0.841286
-0.77025
-0.699458
-0.629736
-0.56515
-0.501047
-0.416933
-0.348867
-0.27191
-0.237072
-0.171172
-0.0641289
0.0213093
0.102107
0.186219
0.235095
0.269175
-0.956528
-0.944872
-0.896442
-0.833678
-0.764686
-0.696855
-0.631703
-0.570782
-0.513736
-0.448742
-0.346862
-0.225797
-0.0383068
0.221219
0.548259
0.837876
1.05216
1.16402
1.1966
1.20997
-0.932234
-0.921889
-0.876666
-0.816336
-0.750191
-0.686705
-0.627808
-0.575355
-0.532348
-0.498843
-0.39422
-0.247712
0.0461423
0.425487
0.838724
1.20738
1.47677
1.60506
1.63508
1.64465
-0.895618
-0.887019
-0.845008
-0.788377
-0.727082
-0.669541
-0.619089
-0.583429
-0.57895
-0.596945
-0.572902
-0.402176
-0.0197808
0.413536
0.859766
1.25553
1.51318
1.6301
1.66146
1.67095
-0.845401
-0.838983
-0.801767
-0.751128
-0.69539
-0.644591
-0.605426
-0.593573
-0.640646
-0.75751
-0.887681
-0.69097
-0.226576
0.26137
0.740461
1.10402
1.31939
1.40422
1.44163
1.45437
-0.783208
-0.778173
-0.746238
-0.702093
-0.652663
-0.609071
-0.579857
-0.584648
-0.674738
-0.871937
-1.18579
-1.03327
-0.280212
0.166817
0.564361
0.824232
1.00716
1.08249
1.1217
1.13549
-0.71184
-0.706778
-0.677679
-0.639215
-0.595922
-0.557351
-0.52957
-0.526502
-0.626824
-0.780284
-1.06736
-0.869999
-0.335738
0.0609155
0.372509
0.573837
0.698127
0.75308
0.790735
0.804815
-0.615327
-0.612387
-0.589582
-0.55898
-0.522342
-0.488125
-0.460803
-0.453384
-0.496475
-0.591861
-0.727994
-0.496875
-0.129406
0.1307
0.329259
0.452847
0.521889
0.560889
0.585888
0.594349
-0.491442
-0.491145
-0.479874
-0.458357
-0.431404
-0.403386
-0.376779
-0.358823
-0.363635
-0.397638
-0.423941
-0.206827
0.0163131
0.185919
0.306327
0.37417
0.417366
0.441327
0.456189
0.459572
-0.373806
-0.372448
-0.365136
-0.352543
-0.334676
-0.313343
-0.289071
-0.264796
-0.244968
-0.232824
-0.187234
-0.0247922
0.102726
0.20774
0.271258
0.308059
0.332817
0.346713
0.353711
0.355357
-0.262015
-0.262166
-0.258918
-0.251733
-0.240835
-0.225919
-0.205746
-0.180479
-0.148422
-0.105578
-0.040019
0.0652923
0.147247
0.205448
0.236819
0.256065
0.269126
0.276282
0.280317
0.282104
-0.167784
-0.168467
-0.167184
-0.163498
-0.157401
-0.147934
-0.132658
-0.110233
-0.0777283
-0.0273464
0.0330907
0.107719
0.159069
0.190389
0.20624
0.216181
0.223033
0.227523
0.230287
0.230753
-0.0948383
-0.0956952
-0.0958691
-0.0943768
-0.0906991
-0.0844262
-0.0733556
-0.0555499
-0.0282822
0.0141844
0.0657029
0.122574
0.152749
0.170956
0.180109
0.185854
0.189579
0.191722
0.192539
0.191911
-0.0423974
-0.043212
-0.0444306
-0.0446228
-0.0426265
-0.0380492
-0.0295303
-0.0158263
0.0055137
0.0388458
0.0788777
0.119488
0.139718
0.151963
0.15808
0.161433
0.162961
0.1632
0.162616
0.16174
-0.00673038
-0.00738664
-0.00889011
-0.0102746
-0.00984195
-0.0068662
-0.000325733
0.0105898
0.0273674
0.052999
0.0830291
0.111617
0.126286
0.134981
0.139102
0.14069
0.140615
0.139631
0.138558
0.137791
0.0160697
0.0155729
0.0142611
0.0126007
0.0120586
0.0134164
0.0178547
0.0263952
0.0397744
0.0596419
0.0822633
0.102688
0.113559
0.119756
0.122368
0.122861
0.1221
0.120763
0.119717
0.119086
0.029617
0.0292523
0.0282875
0.0270117
0.0263064
0.0266196
0.0292414
0.0352586
0.0454681
0.0608079
0.078119
0.0930712
0.101267
0.105732
0.107404
0.107479
0.106744
0.105651
0.10486
0.104366
0.0375749
0.03729
0.0366746
0.0359028
0.035506
0.0356211
0.0372057
0.0410038
0.0481373
0.0594363
0.0725165
0.0835265
0.0896894
0.0929596
0.0941808
0.0942289
0.0937346
0.0929731
0.0924345
0.0920713
0.0428466
0.0426244
0.0422233
0.0417079
0.0415063
0.0417189
0.0429388
0.0453955
0.0501389
0.0578831
0.0672268
0.0750668
0.0795547
0.08195
0.0829161
0.082972
0.0825839
0.0819841
0.0815941
0.0813315
0.0463398
0.0461659
0.04581
0.0452526
0.0449021
0.0449885
0.0459174
0.0477216
0.0510455
0.0562612
0.062624
0.0679841
0.0711469
0.0728494
0.0735338
0.073488
0.0730645
0.072502
0.0721735
0.0719771
0.0476952
0.0475467
0.0471675
0.046497
0.0459227
0.0457095
0.0461657
0.0474398
0.0498975
0.0536533
0.0581141
0.0618115
0.0640231
0.0651653
0.065547
0.0653797
0.0649308
0.0644079
0.064122
0.0639682
0.0469157
0.0467895
0.0464299
0.0457667
0.0451442
0.0447565
0.0447862
0.0455059
0.0472005
0.0499802
0.0532852
0.0559608
0.057526
0.0582635
0.0584278
0.0582161
0.0578155
0.0573738
0.0571421
0.057022
0.0447062
0.0446089
0.0443215
0.0437684
0.0432469
0.0428676
0.0427119
0.0430418
0.0440637
0.0459802
0.0483692
0.0502982
0.05139
0.0518651
0.0519196
0.0517263
0.0514056
0.0510565
0.0508803
0.0507892
0.0417366
0.0416685
0.0414546
0.0410131
0.0406057
0.0402832
0.0400984
0.0402507
0.0408184
0.0420388
0.0436298
0.0449307
0.0456486
0.0459451
0.0459425
0.0457749
0.0455189
0.0452437
0.0451094
0.0450405
0.0382372
0.0381892
0.0380224
0.0376604
0.0373296
0.037041
0.0368497
0.0369163
0.037228
0.0379992
0.0390104
0.039845
0.0402904
0.0404584
0.0404123
0.0402554
0.0400398
0.0398153
0.0397076
0.0396547
0.0343048
0.0342701
0.0341341
0.0338353
0.0335599
0.0332965
0.0330965
0.0330957
0.0332535
0.0337587
0.0344096
0.0349446
0.0352063
0.0352799
0.0352018
0.0350528
0.0348686
0.0346839
0.0345957
0.034555
0.0300564
0.0300304
0.0299232
0.0296896
0.0294689
0.0292426
0.0290501
0.0290015
0.0290511
0.0293724
0.0297913
0.0301324
0.0302754
0.0302928
0.0302061
0.030075
0.0299242
0.0297779
0.0297073
0.029675
0.025623
0.0256044
0.0255216
0.0253448
0.0251731
0.0249911
0.0248224
0.0247527
0.0247364
0.0249221
0.025177
0.0253864
0.025456
0.0254422
0.025357
0.025244
0.0251203
0.0250036
0.0249471
0.0249224
0.0210813
0.021068
0.0210072
0.0208789
0.0207483
0.0206081
0.0204717
0.0204036
0.0203596
0.0204549
0.0205912
0.0207043
0.0207249
0.0206939
0.0206156
0.0205207
0.0204212
0.0203302
0.0202862
0.020268
0.0164798
0.0164697
0.0164227
0.0163281
0.0162282
0.0161219
0.016014
0.0159522
0.0159011
0.0159474
0.0160161
0.0160712
0.0160644
0.0160273
0.0159605
0.0158837
0.0158053
0.0157344
0.0156994
0.0156848
0.0118276
0.0118224
0.0117883
0.0117199
0.0116453
0.0115671
0.0114853
0.0114345
0.0113867
0.0114034
0.0114341
0.0114587
0.0114437
0.0114096
0.0113553
0.011295
0.011235
0.0111818
0.0111564
0.0111469
0.00713034
0.00712617
0.00710377
0.00706027
0.00701264
0.00696513
0.00691371
0.00688223
0.00684487
0.00684872
0.00685942
0.00686781
0.00685104
0.00682701
0.00679104
0.0067519
0.00671215
0.00667595
0.0066586
0.00665167
0.00240293
0.00240114
0.00238915
0.00236708
0.00234579
0.00232876
0.00230696
0.00229875
0.00228123
0.00228503
0.0022871
0.00229159
0.00228293
0.00227358
0.0022588
0.00224323
0.00222502
0.0022052
0.00219623
0.00219236
-1.65619
-0.717535
-0.440938
-0.136711
0.0714135
0.252805
0.407214
0.564514
0.731614
0.810296
-0.593489
-0.141808
-0.102117
0.102683
0.249732
0.381467
0.497107
0.59853
0.635357
0.588669
-0.160576
0.0783165
0.133755
0.277913
0.381495
0.474945
0.552611
0.610415
0.618062
0.628311
0.102678
0.26536
0.305278
0.420494
0.486449
0.553141
0.604457
0.640411
0.65178
0.674149
0.304253
0.417318
0.446581
0.529498
0.57485
0.622881
0.658518
0.684617
0.696018
0.726524
0.458582
0.536794
0.567322
0.618942
0.656913
0.690448
0.716982
0.738481
0.753915
0.781534
0.587002
0.642453
0.66941
0.701223
0.7313
0.756853
0.778315
0.798322
0.813854
0.839835
0.696316
0.736378
0.75866
0.780894
0.803408
0.82404
0.842268
0.860896
0.875947
0.899372
0.794391
0.824301
0.842059
0.858125
0.875194
0.89186
0.907791
0.925113
0.938835
0.961239
0.884857
0.90614
0.921488
0.935063
0.949068
0.963236
0.976912
0.991794
1.00353
1.02325
0.971671
0.987655
1.00181
1.01397
1.02629
1.03819
1.04949
1.0612
1.06875
1.08553
1.05748
1.07058
1.0846
1.09654
1.10727
1.11703
1.12572
1.13375
1.13734
1.14856
1.14729
1.15829
1.17185
1.18106
1.18847
1.19559
1.20279
1.20949
1.21053
1.2179
1.24566
1.25039
1.25843
1.26293
1.2662
1.27074
1.27677
1.28456
1.28852
1.29841
1.35912
1.3454
1.33798
1.33232
1.32964
1.33102
1.33754
1.35
1.36471
1.39434
1.47998
1.42442
1.39346
1.37634
1.3682
1.36823
1.37692
1.39629
1.42822
1.49739
)
;

boundaryField
{
    wall-4
    {
        type            zeroGradient;
    }
    pressure-outlet-7
    {
        type            fixedValue;
        value           uniform 0;
    }
    velocity-inlet-6
    {
        type            zeroGradient;
    }
    velocity-inlet-5
    {
        type            zeroGradient;
    }
    frontAndBackPlanes
    {
        type            empty;
    }
}


// ************************************************************************* //
