/*--------------------------------*- C++ -*----------------------------------*\
  =========                 |
  \\      /  F ield         | OpenFOAM: The Open Source CFD Toolbox
   \\    /   O peration     | Website:  https://openfoam.org
    \\  /    A nd           | Version:  9
     \\/     M anipulation  |
\*---------------------------------------------------------------------------*/
FoamFile
{
    format      ascii;
    class       volVectorField;
    location    "14";
    object      U;
}
// * * * * * * * * * * * * * * * * * * * * * * * * * * * * * * * * * * * * * //

dimensions      [0 1 -1 0 0 0 0];

internalField   nonuniform List<vector> 
2200
(
(0.87848 -0.03022 0)
(1.00565 -0.051252 0)
(1.00311 -0.035149 0)
(1.00027 -0.0242437 0)
(0.999719 -0.016409 0)
(0.999563 -0.0103653 0)
(0.999699 -0.00652742 0)
(1.00003 -0.00401025 0)
(1.00013 -0.0022144 0)
(1.00014 -0.000716941 0)
(1.00008 0.000897771 0)
(1.00014 0.00243754 0)
(1.00002 0.00418221 0)
(0.999655 0.00664257 0)
(0.999529 0.0104306 0)
(0.999701 0.0164564 0)
(1.00027 0.0242896 0)
(1.00314 0.0351945 0)
(1.00566 0.0512638 0)
(0.878481 0.0302373 0)
(0.71345 -0.0328595 0)
(0.996959 -0.0625673 0)
(1.03368 -0.0558711 0)
(1.02518 -0.0462922 0)
(1.01664 -0.0361544 0)
(1.01018 -0.0263453 0)
(1.00583 -0.0183365 0)
(1.00331 -0.0117301 0)
(1.00213 -0.00628241 0)
(1.00197 -0.0017577 0)
(1.00188 0.00233327 0)
(1.00206 0.00675068 0)
(1.00321 0.0121229 0)
(1.00574 0.0186876 0)
(1.01012 0.0267083 0)
(1.0166 0.0364671 0)
(1.02511 0.0465333 0)
(1.03355 0.0560226 0)
(0.996842 0.0627103 0)
(0.713308 0.0328877 0)
(0.535708 -0.0237986 0)
(0.970853 -0.0564891 0)
(1.05572 -0.0537805 0)
(1.05119 -0.0476264 0)
(1.0354 -0.0393364 0)
(1.0244 -0.0315692 0)
(1.01633 -0.0232796 0)
(1.01095 -0.0152162 0)
(1.00779 -0.00827529 0)
(1.00621 -0.00223542 0)
(1.0062 0.0031259 0)
(1.00767 0.00919955 0)
(1.0108 0.0160618 0)
(1.01622 0.0240879 0)
(1.02424 0.0321996 0)
(1.0352 0.039844 0)
(1.05097 0.0480201 0)
(1.0555 0.0541226 0)
(0.970426 0.056678 0)
(0.535092 0.0238589 0)
(0.396217 -0.0125727 0)
(0.914704 -0.0448909 0)
(1.05935 -0.0448165 0)
(1.06961 -0.0415165 0)
(1.05385 -0.0348727 0)
(1.03861 -0.0289071 0)
(1.02691 -0.022752 0)
(1.01845 -0.0163231 0)
(1.01313 -0.00952794 0)
(1.01058 -0.00270449 0)
(1.01043 0.00413749 0)
(1.01286 0.0108636 0)
(1.01811 0.0175078 0)
(1.02643 0.0236685 0)
(1.03807 0.0296999 0)
(1.05328 0.0355213 0)
(1.069 0.0420424 0)
(1.05858 0.0451989 0)
(0.913702 0.0451199 0)
(0.395068 0.0126299 0)
(0.318182 -0.00366552 0)
(0.854055 -0.0299754 0)
(1.05311 -0.0369178 0)
(1.08138 -0.0350486 0)
(1.06882 -0.0298863 0)
(1.05176 -0.0245419 0)
(1.03805 -0.0195774 0)
(1.02755 -0.0145703 0)
(1.0202 -0.00900398 0)
(1.0164 -0.00262744 0)
(1.0163 0.00460042 0)
(1.01991 0.0106663 0)
(1.02699 0.0159677 0)
(1.03741 0.020889 0)
(1.05107 0.0256079 0)
(1.06811 0.030812 0)
(1.08057 0.0358288 0)
(1.05199 0.0375051 0)
(0.852327 0.0302785 0)
(0.316477 0.00372624 0)
(0.279625 0.000560865 0)
(0.800659 -0.0169357 0)
(1.03814 -0.02712 0)
(1.08564 -0.0277189 0)
(1.07815 -0.0246277 0)
(1.06097 -0.0199235 0)
(1.04753 -0.0157602 0)
(1.03698 -0.011685 0)
(1.02894 -0.00701366 0)
(1.02457 -0.00177143 0)
(1.02433 0.00439593 0)
(1.02833 0.00940394 0)
(1.03615 0.0138325 0)
(1.04654 0.0175686 0)
(1.05986 0.0215176 0)
(1.07699 0.0259123 0)
(1.08427 0.0287349 0)
(1.03618 0.0278546 0)
(0.797772 0.0172726 0)
(0.277263 -0.000473256 0)
(0.263145 0.00165034 0)
(0.760713 -0.00748262 0)
(1.02036 -0.0168497 0)
(1.08375 -0.0188804 0)
(1.08091 -0.0181145 0)
(1.06484 -0.0155837 0)
(1.0511 -0.0131367 0)
(1.04053 -0.00982151 0)
(1.03303 -0.0056167 0)
(1.02913 -0.000917285 0)
(1.02877 0.00416661 0)
(1.03213 0.008741 0)
(1.0392 0.012612 0)
(1.04943 0.0154505 0)
(1.06305 0.0173664 0)
(1.07893 0.0195408 0)
(1.08143 0.0199513 0)
(1.01731 0.0175714 0)
(0.756672 0.00781948 0)
(0.260016 -0.00154665 0)
(0.260013 0.00141569 0)
(0.737064 -0.00148331 0)
(1.00458 -0.00772773 0)
(1.07758 -0.010247 0)
(1.07831 -0.0113358 0)
(1.06388 -0.0113474 0)
(1.0509 -0.0105516 0)
(1.04124 -0.00811951 0)
(1.03442 -0.00463868 0)
(1.03076 -0.000195313 0)
(1.03035 0.00425921 0)
(1.03334 0.00839832 0)
(1.03968 0.0113459 0)
(1.04877 0.0130329 0)
(1.06154 0.0134772 0)
(1.07568 0.0130154 0)
(1.07448 0.0115505 0)
(1.0005 0.00860143 0)
(0.731982 0.00188788 0)
(0.255975 -0.00130451 0)
(0.261844 0.000940345 0)
(0.727678 0.000709044 0)
(0.993882 -0.00253053 0)
(1.07125 -0.00512461 0)
(1.07505 -0.00690881 0)
(1.06332 -0.00818668 0)
(1.05181 -0.0081562 0)
(1.04303 -0.0065329 0)
(1.03666 -0.00370979 0)
(1.033 0.000423396 0)
(1.03243 0.00461085 0)
(1.03516 0.00836697 0)
(1.04091 0.0106956 0)
(1.04915 0.011933 0)
(1.06022 0.0112138 0)
(1.07152 0.0093017 0)
(1.06718 0.00696912 0)
(0.988617 0.00375855 0)
(0.72087 -0.000123821 0)
(0.256874 -0.000766591 0)
(0.264785 0.00029721 0)
(0.725241 0.00058774 0)
(0.988297 -0.00110266 0)
(1.06686 -0.00360797 0)
(1.07304 -0.00541403 0)
(1.06417 -0.00659998 0)
(1.05501 -0.00647128 0)
(1.04753 -0.00496303 0)
(1.04181 -0.00242711 0)
(1.03813 0.0013782 0)
(1.03716 0.00521094 0)
(1.03932 0.00860161 0)
(1.04397 0.0105375 0)
(1.05076 0.0111355 0)
(1.05943 0.0104202 0)
(1.06802 0.00846618 0)
(1.06114 0.00591832 0)
(0.980956 0.00262544 0)
(0.716569 8.75938e-05 0)
(0.258179 -0.000118898 0)
(0.265905 -3.69683e-06 0)
(0.724682 0.000439777 0)
(0.984358 -0.000593588 0)
(1.06248 -0.00290554 0)
(1.07024 -0.0046622 0)
(1.06377 -0.00570684 0)
(1.05661 -0.00534019 0)
(1.05061 -0.00369041 0)
(1.04585 -0.00107128 0)
(1.04252 0.00257584 0)
(1.04138 0.00612039 0)
(1.04262 0.00906153 0)
(1.04575 0.0104868 0)
(1.05064 0.0108789 0)
(1.05776 0.0102885 0)
(1.06357 0.00825409 0)
(1.05476 0.00561501 0)
(0.974492 0.0024396 0)
(0.713257 0.000552721 0)
(0.257737 9.61036e-05 0)
(0.266927 0.000187736 0)
(0.724851 0.000624483 0)
(0.980214 0.000339405 0)
(1.0577 -0.00144937 0)
(1.06678 -0.00298306 0)
(1.06235 -0.0040263 0)
(1.05657 -0.00362732 0)
(1.05149 -0.00212923 0)
(1.04725 0.000399687 0)
(1.04406 0.00374809 0)
(1.0428 0.00705924 0)
(1.04349 0.00957573 0)
(1.04578 0.0105935 0)
(1.0498 0.0107345 0)
(1.05442 0.00966695 0)
(1.05795 0.00743591 0)
(1.04767 0.00475556 0)
(0.968189 0.00191568 0)
(0.709916 0.000494211 0)
(0.256392 0.000100676 0)
(0.26869 0.000321394 0)
(0.725871 0.000894178 0)
(0.978669 0.00143001 0)
(1.05414 0.000349136 0)
(1.06419 -0.000616301 0)
(1.06142 -0.00137132 0)
(1.0571 -0.00102707 0)
(1.05285 0.00020211 0)
(1.04894 0.00238457 0)
(1.04565 0.0052108 0)
(1.04392 0.00806277 0)
(1.04408 0.0098954 0)
(1.04566 0.0105569 0)
(1.04812 0.0101085 0)
(1.05108 0.00869166 0)
(1.05278 0.00648141 0)
(1.04132 0.0039896 0)
(0.962818 0.00159839 0)
(0.707168 0.000466755 0)
(0.25533 0.000114921 0)
(0.270975 0.000272262 0)
(0.728347 0.0010868 0)
(0.978882 0.0018059 0)
(1.05286 0.00148489 0)
(1.06342 0.0011207 0)
(1.06188 0.000946594 0)
(1.05877 0.00157437 0)
(1.05532 0.00284112 0)
(1.05173 0.00484318 0)
(1.0483 0.0072532 0)
(1.0459 0.00951576 0)
(1.04515 0.0106651 0)
(1.04548 0.0107445 0)
(1.04694 0.0096905 0)
(1.04844 0.00809632 0)
(1.04868 0.00599614 0)
(1.03635 0.00382845 0)
(0.958571 0.00183898 0)
(0.704643 0.000733776 0)
(0.254044 0.000200385 0)
(0.273625 0.000297146 0)
(0.731985 0.0013079 0)
(0.979953 0.00222211 0)
(1.05305 0.00263766 0)
(1.06355 0.00285899 0)
(1.06273 0.00333656 0)
(1.06037 0.00427416 0)
(1.05744 0.00568202 0)
(1.05404 0.00757823 0)
(1.0504 0.00966588 0)
(1.04729 0.0112952 0)
(1.04546 0.0117885 0)
(1.04486 0.0112085 0)
(1.04506 0.00995077 0)
(1.04551 0.00820169 0)
(1.04483 0.00618345 0)
(1.032 0.00419906 0)
(0.954507 0.00237546 0)
(0.701369 0.00108974 0)
(0.251996 0.000288388 0)
(0.27647 0.00037057 0)
(0.735703 0.00150138 0)
(0.982427 0.00277911 0)
(1.05454 0.00351406 0)
(1.06509 0.00439686 0)
(1.06444 0.00546442 0)
(1.06226 0.00696202 0)
(1.05939 0.00876262 0)
(1.05583 0.0107925 0)
(1.05171 0.0127144 0)
(1.04785 0.0137748 0)
(1.04501 0.0136047 0)
(1.04356 0.0123463 0)
(1.0427 0.0107315 0)
(1.04235 0.00864838 0)
(1.04098 0.0065358 0)
(1.02777 0.00455524 0)
(0.950315 0.00278082 0)
(0.697485 0.00132708 0)
(0.249382 0.000333646 0)
(0.280605 0.000538518 0)
(0.74161 0.00207189 0)
(0.986386 0.00394191 0)
(1.05702 0.00544768 0)
(1.06737 0.00682607 0)
(1.06685 0.00840147 0)
(1.06466 0.0102135 0)
(1.06159 0.0122773 0)
(1.05756 0.0144086 0)
(1.05261 0.0161955 0)
(1.04762 0.0167968 0)
(1.04365 0.015985 0)
(1.04116 0.014242 0)
(1.03956 0.0121074 0)
(1.03855 0.00980894 0)
(1.03672 0.00758296 0)
(1.02319 0.00548785 0)
(0.945393 0.00351994 0)
(0.692383 0.00167871 0)
(0.246019 0.000418082 0)
(0.285244 0.000674965 0)
(0.747654 0.00248331 0)
(0.991389 0.00474053 0)
(1.06117 0.00663728 0)
(1.07107 0.00876441 0)
(1.07029 0.0111276 0)
(1.06779 0.013783 0)
(1.06426 0.0164955 0)
(1.05951 0.0190304 0)
(1.0535 0.0208365 0)
(1.04723 0.0210218 0)
(1.04215 0.019498 0)
(1.03871 0.0170914 0)
(1.03638 0.0142603 0)
(1.03477 0.0114059 0)
(1.03244 0.00871563 0)
(1.01838 0.00626311 0)
(0.93989 0.00406236 0)
(0.686586 0.00199196 0)
(0.24212 0.000496815 0)
(0.292384 0.000898349 0)
(0.757632 0.0034944 0)
(0.998672 0.00661961 0)
(1.0666 0.00936068 0)
(1.07609 0.0118987 0)
(1.07505 0.0148711 0)
(1.07206 0.0180086 0)
(1.06774 0.0213241 0)
(1.06189 0.0243248 0)
(1.05438 0.0262614 0)
(1.04639 0.0261158 0)
(1.03983 0.0238967 0)
(1.03519 0.0207479 0)
(1.03194 0.0172849 0)
(1.02968 0.0139858 0)
(1.02691 0.0109393 0)
(1.01245 0.00815693 0)
(0.933239 0.00543874 0)
(0.679119 0.00261513 0)
(0.237019 0.00063469 0)
(0.300132 0.00119684 0)
(0.768035 0.0041149 0)
(1.00722 0.00791873 0)
(1.07386 0.0113257 0)
(1.08257 0.0151336 0)
(1.0809 0.0192129 0)
(1.07708 0.0235234 0)
(1.07165 0.0277118 0)
(1.06428 0.0312954 0)
(1.05489 0.033356 0)
(1.0449 0.0327581 0)
(1.03672 0.0297059 0)
(1.0309 0.0256177 0)
(1.02688 0.0212255 0)
(1.02411 0.0169807 0)
(1.02086 0.0130824 0)
(1.00551 0.00949928 0)
(0.924606 0.00624103 0)
(0.669683 0.00306189 0)
(0.230928 0.000764343 0)
(0.312302 0.00157 0)
(0.783916 0.00602671 0)
(1.01937 0.0110749 0)
(1.08329 0.0156417 0)
(1.09116 0.0198427 0)
(1.08859 0.0249604 0)
(1.08366 0.0301832 0)
(1.07666 0.0353841 0)
(1.06733 0.0397382 0)
(1.05557 0.0419769 0)
(1.04314 0.0408765 0)
(1.03294 0.0368626 0)
(1.02561 0.0316385 0)
(1.02046 0.0261968 0)
(1.01685 0.0210965 0)
(1.01298 0.0164739 0)
(0.997071 0.0123673 0)
(0.915222 0.00830908 0)
(0.659014 0.00400549 0)
(0.223339 0.000936632 0)
(0.326121 0.002203 0)
(0.802695 0.00706089 0)
(1.03406 0.0136084 0)
(1.09548 0.0193449 0)
(1.1022 0.0257296 0)
(1.09833 0.0325291 0)
(1.09166 0.039255 0)
(1.08242 0.04572 0)
(1.0704 0.0507417 0)
(1.0556 0.0529972 0)
(1.0402 0.0511041 0)
(1.02765 0.0458338 0)
(1.01865 0.0392886 0)
(1.01235 0.0325488 0)
(1.00795 0.026146 0)
(1.0034 0.0202724 0)
(0.985993 0.0147379 0)
(0.901126 0.00966447 0)
(0.643379 0.00464311 0)
(0.213817 0.00114095 0)
(0.34734 0.0031548 0)
(0.828003 0.0112109 0)
(1.05376 0.0194965 0)
(1.11093 0.0270174 0)
(1.1161 0.034405 0)
(1.11029 0.0427358 0)
(1.10123 0.0511227 0)
(1.0892 0.0586831 0)
(1.07389 0.0642815 0)
(1.05556 0.0662589 0)
(1.03684 0.0632806 0)
(1.02168 0.0564796 0)
(1.01079 0.0482773 0)
(1.00312 0.0399547 0)
(0.997683 0.0321034 0)
(0.99219 0.0250832 0)
(0.973792 0.018914 0)
(0.887491 0.012714 0)
(0.628251 0.00613607 0)
(0.202875 0.00138001 0)
(0.376064 0.00437351 0)
(0.864153 0.0132389 0)
(1.0795 0.0254669 0)
(1.1312 0.0350336 0)
(1.13409 0.0462717 0)
(1.12505 0.0569743 0)
(1.11264 0.0671041 0)
(1.09666 0.0758711 0)
(1.07722 0.0817875 0)
(1.0546 0.0830724 0)
(1.03193 0.0785593 0)
(1.01367 0.0698844 0)
(1.00048 0.0598866 0)
(0.991041 0.0498611 0)
(0.984262 0.0404418 0)
(0.977561 0.0315389 0)
(0.956657 0.023005 0)
(0.865068 0.0150763 0)
(0.6026 0.00697116 0)
(0.187896 0.00156599 0)
(0.411759 0.00862943 0)
(0.90595 0.0235227 0)
(1.11302 0.0376242 0)
(1.15742 0.0507611 0)
(1.15558 0.0642371 0)
(1.14233 0.0768825 0)
(1.12521 0.0885478 0)
(1.10437 0.0977996 0)
(1.08002 0.103091 0)
(1.05253 0.102944 0)
(1.02564 0.0962566 0)
(1.0042 0.0851967 0)
(0.988723 0.0729665 0)
(0.977557 0.0608568 0)
(0.969279 0.0493836 0)
(0.961012 0.0391386 0)
(0.938127 0.0296419 0)
(0.844841 0.0199635 0)
(0.581664 0.00962436 0)
(0.174346 0.00174913 0)
(0.497408 0.0122176 0)
(0.978279 0.0327413 0)
(1.1571 0.0568046 0)
(1.18918 0.0731129 0)
(1.18132 0.0906937 6.51612e-35)
(1.16151 0.105179 -4.56024e-35)
(1.13839 0.11723 0)
(1.11183 0.125698 0)
(1.08181 0.129509 0)
(1.04909 0.126998 0)
(1.01772 0.117436 0)
(0.992835 0.103678 0)
(0.974653 0.0891986 0)
(0.961255 0.0752834 0)
(0.951107 0.0623198 0)
(0.940676 0.0498652 0)
(0.913393 0.0378997 0)
(0.809301 0.0256075 0)
(0.533735 0.0110708 0)
(0.147386 0.00166685 0)
(0.559068 0.0276638 -8.54313e-21)
(1.06019 0.0578491 5.77057e-21)
(1.2065 0.0887847 0)
(1.22507 0.109384 4.99831e-22)
(1.20748 0.129904 -4.04811e-22)
(1.18055 0.14335 4.8112e-35)
(1.15089 0.154125 0)
(1.11777 0.16105 4.58808e-21)
(1.08152 0.162701 -1.65031e-20)
(1.04281 0.157296 3.66359e-21)
(1.00612 0.144667 0)
(0.97694 0.12813 -1.21484e-20)
(0.955242 0.111292 -1.52568e-20)
(0.938767 0.0950635 2.68472e-20)
(0.925662 0.0798813 -2.16109e-20)
(0.911708 0.0660195 0)
(0.877748 0.0513778 -8.35682e-21)
(0.761845 0.0353209 0)
(0.491075 0.0202684 -4.52528e-20)
(0.130287 0.00347131 5.37975e-20)
(0.5797 0.0540544 -2.83992e-22)
(1.10461 0.104166 -4.88843e-20)
(1.24779 0.14125 1.26704e-20)
(1.25778 0.159712 1.88722e-20)
(1.23123 0.177828 -2.41623e-23)
(1.19754 0.188943 7.24572e-22)
(1.16098 0.1983 0)
(1.12109 0.203395 0)
(1.07855 0.202652 2.5681e-20)
(1.0335 0.194703 0)
(0.990922 0.179503 4.14659e-20)
(0.956614 0.160866 1.3033e-20)
(0.930381 0.142675 4.0363e-22)
(0.909694 0.125853 -3.01226e-20)
(0.89251 0.110323 0)
(0.874607 0.0960582 0)
(0.839317 0.0827615 -1.41936e-19)
(0.732836 0.0653946 3.58079e-19)
(0.479572 0.0385225 -2.12696e-19)
(0.132887 0.0127909 -2.54421e-19)
(0.580282 0.0862794 8.38715e-20)
(1.13108 0.164514 -2.44216e-20)
(1.27846 0.20713 -6.4594e-21)
(1.28429 0.220729 -3.60527e-20)
(1.25089 0.233861 1.35668e-20)
(1.21076 0.241187 3.63882e-21)
(1.16766 0.247539 2.83777e-21)
(1.12178 0.249406 0)
(1.07333 0.245504 -5.27954e-20)
(1.02216 0.234603 5.97776e-20)
(0.973833 0.216783 -1.13354e-19)
(0.934569 0.196669 5.54116e-20)
(0.904277 0.178061 -4.12741e-20)
(0.880052 0.161497 9.02743e-20)
(0.859835 0.147219 0)
(0.839881 0.133784 -3.56136e-20)
(0.805349 0.120783 0)
(0.70826 0.101606 2.05631e-19)
(0.477833 0.0657204 -4.88039e-19)
(0.146595 0.0220472 3.06704e-19)
(0.565045 0.116934 -3.89681e-19)
(1.14263 0.226046 1.5574e-19)
(1.29717 0.277604 2.48192e-20)
(1.30218 0.28607 0)
(1.26394 0.294721 2.03054e-20)
(1.21885 0.297951 -2.2258e-20)
(1.17059 0.300136 -2.74619e-21)
(1.11969 0.29796 0)
(1.0658 0.290567 3.71526e-20)
(1.00929 0.276505 -4.09456e-20)
(0.9562 0.256147 9.91774e-20)
(0.91311 0.23443 0)
(0.879636 0.215036 -8.66189e-20)
(0.852975 0.198281 4.77964e-20)
(0.83137 0.184259 1.30129e-19)
(0.811479 0.17183 -1.14378e-19)
(0.779534 0.157765 1.90452e-19)
(0.692717 0.136945 -4.24303e-19)
(0.479098 0.0926612 2.69892e-19)
(0.155112 0.0319032 -3.39816e-19)
(0.544536 0.141817 2.38291e-19)
(1.14105 0.28242 -1.75511e-19)
(1.30596 0.346064 7.76095e-20)
(1.31167 0.351688 -1.07365e-19)
(1.26994 0.357192 7.28653e-20)
(1.22153 0.35633 -1.2503e-20)
(1.16958 0.354196 3.77423e-21)
(1.11452 0.347859 -2.21201e-20)
(1.05596 0.336812 -3.6485e-20)
(0.994806 0.319143 -8.73175e-20)
(0.937263 0.295572 -2.13622e-19)
(0.890979 0.271914 -7.222e-20)
(0.856387 0.251799 2.84375e-21)
(0.829691 0.234504 -1.71048e-19)
(0.807983 0.219865 -6.23063e-21)
(0.788565 0.208417 1.67258e-19)
(0.759606 0.193229 -5.20468e-20)
(0.679915 0.171667 -3.07151e-20)
(0.476487 0.117906 0)
(0.157515 0.0408285 7.23446e-19)
(0.524178 0.164842 0)
(1.13163 0.334949 5.38525e-20)
(1.30712 0.410551 3.72721e-20)
(1.31398 0.415246 -1.20464e-20)
(1.26988 0.418906 -8.7968e-20)
(1.21944 0.414322 2.01733e-20)
(1.16494 0.408175 -8.94453e-22)
(1.10662 0.39793 4.0498e-20)
(1.04459 0.383161 -2.19775e-20)
(0.980236 0.361731 3.81582e-20)
(0.920556 0.335174 1.15027e-19)
(0.873509 0.309117 1.59967e-19)
(0.837329 0.286833 -9.99305e-20)
(0.809053 0.268536 1.85203e-19)
(0.787115 0.253154 -1.48865e-19)
(0.767777 0.241979 0)
(0.740802 0.226102 -3.98757e-19)
(0.665156 0.202661 5.36116e-19)
(0.469792 0.140114 4.07764e-20)
(0.155736 0.048284 -7.60751e-19)
(0.506543 0.186102 -6.10306e-21)
(1.11995 0.385208 -3.67391e-19)
(1.30281 0.472016 -2.80412e-19)
(1.31097 0.476073 2.34336e-19)
(1.26514 0.478359 -5.25865e-20)
(1.21359 0.470521 2.93958e-20)
(1.15734 0.460933 -1.50214e-20)
(1.09657 0.447215 -1.24047e-21)
(1.03193 0.428896 -7.5275e-20)
(0.964485 0.40381 1.15599e-21)
(0.901095 0.373502 -1.24765e-19)
(0.85054 0.34447 -1.69916e-19)
(0.814463 0.320845 1.12779e-19)
(0.78773 0.301332 -6.64582e-20)
(0.766095 0.2852 1.61976e-19)
(0.747126 0.272823 0)
(0.722154 0.256789 -2.47003e-19)
(0.649324 0.22951 3.65495e-19)
(0.458676 0.159758 7.03096e-19)
(0.151811 0.0539968 -8.22967e-19)
(0.491946 0.205598 -6.97772e-19)
(1.10556 0.432647 3.52299e-19)
(1.29477 0.530947 2.72452e-19)
(1.30402 0.53411 -2.53707e-19)
(1.25697 0.534919 1.10664e-20)
(1.20489 0.524145 7.76325e-20)
(1.14729 0.511758 1.75363e-21)
(1.08463 0.495052 -1.45235e-20)
(1.01785 0.473359 -4.68505e-20)
(0.947824 0.444552 8.34872e-20)
(0.883102 0.410848 1.16978e-19)
(0.833517 0.379241 2.66088e-19)
(0.795325 0.352624 0)
(0.765861 0.331426 5.41171e-21)
(0.744247 0.313482 -4.51083e-19)
(0.725894 0.300542 1.03507e-19)
(0.701641 0.283545 5.30368e-19)
(0.631546 0.252773 -1.54977e-19)
(0.445336 0.175994 3.34904e-19)
(0.146538 0.0587948 -2.72242e-20)
(0.481471 0.224201 6.83646e-21)
(1.09178 0.477775 3.25413e-19)
(1.28439 0.587158 2.06473e-19)
(1.29456 0.589412 -4.51008e-19)
(1.24658 0.588478 2.89444e-19)
(1.19405 0.574894 -9.4916e-20)
(1.13529 0.560176 -5.37405e-21)
(1.07111 0.540896 2.76317e-20)
(1.00267 0.516156 8.12392e-20)
(0.930409 0.484246 -1.08897e-19)
(0.862598 0.447218 0)
(0.808398 0.411434 -1.05612e-19)
(0.770867 0.382673 1.21251e-19)
(0.74392 0.359335 1.64238e-19)
(0.72275 0.341349 -9.42003e-20)
(0.704607 0.325415 -2.38506e-19)
(0.681072 0.307352 -7.26445e-20)
(0.612364 0.273617 -1.2806e-21)
(0.430649 0.189701 0)
(0.140188 0.0626509 0)
(0.472922 0.242099 -3.43398e-19)
(1.07809 0.520135 0)
(1.27259 0.639902 2.36495e-19)
(1.28352 0.64225 -1.08796e-19)
(1.23496 0.639457 -3.02115e-19)
(1.18192 0.623063 8.31754e-20)
(1.12198 0.606144 -1.18263e-20)
(1.05646 0.584569 -9.96659e-21)
(0.986321 0.557237 4.84705e-20)
(0.911386 0.522504 -4.61465e-20)
(0.841197 0.481407 6.54802e-20)
(0.788048 0.44375 3.29116e-19)
(0.749005 0.411961 1.32496e-20)
(0.719931 0.386179 -1.67347e-19)
(0.699042 0.364 3.24845e-19)
(0.682494 0.348195 4.4728e-21)
(0.660681 0.329329 7.77212e-20)
(0.594079 0.291534 -3.80134e-19)
(0.414881 0.201109 3.86797e-19)
(0.133089 0.0652713 -4.60138e-19)
(0.467061 0.262372 3.19622e-23)
(1.0655 0.560169 0)
(1.25994 0.688985 0)
(1.27134 0.692173 1.01762e-19)
(1.22245 0.68783 1.18126e-19)
(1.169 0.668905 -7.07042e-20)
(1.10799 0.649896 4.9454e-20)
(1.04137 0.626222 0)
(0.969828 0.596596 -8.12388e-20)
(0.893247 0.559175 1.59292e-19)
(0.821876 0.516146 2.01127e-19)
(0.765764 0.473789 -1.24531e-19)
(0.725867 0.438454 -1.5693e-19)
(0.698104 0.410395 3.7155e-19)
(0.677583 0.388793 -1.14919e-19)
(0.659784 0.36902 -1.39789e-19)
(0.636212 0.346679 -8.58457e-20)
(0.570516 0.306544 -4.12933e-19)
(0.397903 0.20986 5.73469e-20)
(0.124846 0.066959 5.00419e-19)
(0.463373 0.281469 -1.37281e-19)
(1.05373 0.597754 -2.15598e-19)
(1.2465 0.734628 2.39012e-20)
(1.25847 0.73897 3.07558e-22)
(1.2095 0.733522 4.0219e-20)
(1.15578 0.712456 -1.87507e-19)
(1.09392 0.691549 0)
(1.02643 0.665899 9.90756e-21)
(0.953532 0.634157 -7.81238e-21)
(0.874892 0.594723 2.48159e-19)
(0.799791 0.54774 -5.15819e-20)
(0.741082 0.502292 5.64966e-20)
(0.7 0.464569 0)
(0.670068 0.432444 -2.03072e-19)
(0.650078 0.406309 2.54209e-19)
(0.63612 0.385948 0)
(0.616747 0.363924 -1.88735e-19)
(0.552297 0.320092 5.51564e-19)
(0.379989 0.216508 6.61415e-20)
(0.116084 0.0671885 -6.21251e-19)
(0.460822 0.29881 -3.04488e-19)
(1.04249 0.633087 3.88894e-19)
(1.23269 0.77709 0)
(1.24498 0.782477 2.52952e-19)
(1.19597 0.776161 0)
(1.14222 0.753488 1.76858e-19)
(1.07981 0.73104 0)
(1.01168 0.703661 0)
(0.93733 0.670245 -2.88294e-20)
(0.856334 0.628953 -2.42936e-19)
(0.779037 0.579782 -3.74137e-19)
(0.719645 0.532506 7.21659e-20)
(0.678193 0.490311 2.71368e-19)
(0.651274 0.456391 2.29374e-19)
(0.629795 0.428087 -8.16251e-19)
(0.611631 0.403481 -3.38725e-19)
(0.58814 0.377749 1.9673e-19)
(0.524535 0.328815 0)
(0.360745 0.220535 5.72972e-19)
(0.106344 0.0663315 -6.75278e-19)
(0.458727 0.314894 3.3595e-19)
(1.03134 0.666136 -4.27119e-19)
(1.21889 0.816538 0)
(1.23155 0.823001 -9.8492e-21)
(1.18245 0.815973 -1.04316e-19)
(1.1287 0.791936 0)
(1.06584 0.76827 -1.63964e-20)
(0.997121 0.739461 1.74428e-20)
(0.921481 0.704663 -3.22094e-20)
(0.838852 0.661839 2.24773e-20)
(0.759691 0.610883 0)
(0.695302 0.559062 2.86748e-19)
(0.647934 0.513562 3.75156e-21)
(0.613956 0.473127 1.24833e-19)
(0.596498 0.440568 1.50687e-19)
(0.585233 0.4172 0)
(0.568409 0.386156 -3.34633e-19)
(0.504888 0.336884 6.56049e-19)
(0.340863 0.22228 -7.01222e-19)
(0.096556 0.0641099 1.47028e-18)
(0.456806 0.330157 0)
(1.0209 0.697751 0)
(1.20541 0.853422 -2.33351e-19)
(1.21807 0.860795 0)
(1.16872 0.85303 0)
(1.11508 0.82784 2.52389e-19)
(1.05195 0.803213 -2.04046e-20)
(0.982954 0.773237 1.66018e-20)
(0.906338 0.7374 -3.15622e-22)
(0.82191 0.693577 0)
(0.738423 0.641162 -6.04085e-20)
(0.671961 0.588165 -2.38198e-19)
(0.626726 0.540256 -3.00879e-19)
(0.598219 0.498101 -1.25592e-19)
(0.575719 0.463625 1.66483e-19)
(0.55883 0.426592 -3.96039e-19)
(0.535556 0.398766 7.25967e-19)
(0.474839 0.341354 9.16489e-21)
(0.319502 0.221602 -6.79107e-19)
(0.0861023 0.06068 -1.00943e-19)
(0.45484 0.344816 0)
(1.01078 0.72735 -3.31501e-19)
(1.19242 0.887792 2.60985e-19)
(1.20503 0.896151 0)
(1.15549 0.887744 0)
(1.10193 0.861418 -5.57209e-19)
(1.03855 0.83598 0)
(0.969226 0.804996 0)
(0.891548 0.768467 -4.71435e-20)
(0.805283 0.723902 4.63655e-20)
(0.71965 0.669667 -4.73631e-19)
(0.649764 0.613141 0)
(0.596886 0.55986 -3.26543e-19)
(0.557217 0.512712 1.19276e-20)
(0.536909 0.466545 -5.31818e-19)
(0.527099 0.438371 2.14964e-19)
(0.514433 0.39893 4.66512e-21)
(0.453936 0.340552 -7.80675e-19)
(0.29949 0.217712 3.70773e-19)
(0.0782093 0.0566763 1.07997e-19)
(0.452866 0.358761 0)
(1.00153 0.755733 -3.91178e-19)
(1.17982 0.920096 2.77092e-19)
(1.1921 0.929221 5.84978e-19)
(1.14239 0.920135 1.20064e-19)
(1.08904 0.892828 -8.45869e-20)
(1.02553 0.866684 5.30324e-20)
(0.95604 0.834916 -1.17013e-19)
(0.87751 0.797903 5.04299e-20)
(0.789704 0.753051 2.70432e-19)
(0.701389 0.69894 3.92701e-19)
(0.626117 0.642833 7.65371e-20)
(0.571772 0.589468 4.74914e-19)
(0.538963 0.535966 3.10484e-19)
(0.514371 0.492358 3.84327e-19)
(0.497482 0.444966 -2.41627e-19)
(0.477607 0.404981 -2.88937e-19)
(0.421395 0.338414 3.40648e-19)
(0.275488 0.211014 -2.02928e-19)
(0.0719396 0.0523057 3.54307e-19)
(0.450703 0.372018 5.20215e-19)
(0.992403 0.781916 6.20982e-19)
(1.16763 0.950149 1.51741e-19)
(1.1797 0.96012 1.60076e-20)
(1.12998 0.950468 -4.15388e-19)
(1.07683 0.922228 1.61096e-19)
(1.01324 0.895481 -6.04938e-20)
(0.943576 0.863069 -2.16435e-20)
(0.864381 0.825788 -3.53553e-20)
(0.775098 0.780855 -3.04114e-19)
(0.683431 0.726513 2.28488e-20)
(0.60426 0.668671 0)
(0.542767 0.612123 0)
(0.49374 0.55633 -1.57257e-19)
(0.466753 0.498898 -6.31163e-19)
(0.457309 0.449701 5.24218e-19)
(0.448803 0.390112 3.23209e-19)
(0.402034 0.320035 0)
(0.268217 0.189112 6.46278e-19)
(0.0659998 0.0371519 -3.86747e-19)
(0.448545 0.384341 -2.78327e-19)
(0.983898 0.806885 2.37912e-19)
(1.15575 0.978345 -3.39151e-19)
(1.16749 0.988932 -3.66736e-19)
(1.11782 0.978679 -1.63489e-19)
(1.06499 0.949685 3.8464e-20)
(1.00148 0.922456 0)
(0.931819 0.889495 1.67385e-19)
(0.852137 0.852096 8.82263e-21)
(0.761533 0.807349 0)
(0.667274 0.753963 0)
(0.584476 0.697389 5.40524e-20)
(0.51787 0.638845 8.41611e-20)
(0.474185 0.579475 -1.69286e-19)
(0.440016 0.523111 4.56759e-19)
(0.416852 0.451911 -5.76395e-19)
(0.400794 0.390446 -6.98178e-19)
(0.370295 0.300785 6.23185e-19)
(0.279396 0.191859 -2.33517e-19)
(0.138346 0.104419 1.33622e-19)
(0.445983 0.395839 3.21429e-19)
(0.975317 0.829664 0)
(1.14425 1.00446 0)
(1.15587 1.01576 -1.23929e-19)
(1.10637 1.00501 1.00288e-19)
(1.05384 0.975305 -2.07497e-20)
(0.990418 0.947635 -2.32212e-19)
(0.920739 0.914278 -2.50125e-19)
(0.840487 0.876938 9.40539e-21)
(0.748825 0.83247 -2.48776e-20)
(0.651807 0.779825 6.15813e-20)
(0.564446 0.722318 -4.39785e-19)
(0.494115 0.664759 -4.90143e-19)
(0.428144 0.606747 -9.0075e-20)
(0.383289 0.532642 0)
(0.360534 0.468406 -1.3637e-20)
(0.351305 0.357163 3.80712e-19)
(0.323733 0.212602 -6.58071e-19)
(0.297178 0.0412078 4.85456e-19)
(0.0920863 -0.068418 3.87863e-19)
(0.443438 0.406853 -6.98959e-19)
(0.967264 0.851466 -2.98343e-19)
(1.13305 1.02906 5.49801e-21)
(1.1444 1.04091 1.56786e-19)
(1.09506 1.02967 0)
(1.04285 0.999483 4.7753e-19)
(0.979649 0.971594 2.90313e-19)
(0.910074 0.938088 -4.71362e-20)
(0.829523 0.900867 1.0076e-20)
(0.73642 0.857447 -2.31449e-20)
(0.636943 0.806813 2.14976e-20)
(0.545218 0.753461 3.891e-19)
(0.463648 0.696542 4.79359e-19)
(0.407761 0.630644 8.64332e-20)
(0.357831 0.573064 4.79445e-19)
(0.302337 0.479203 0)
(0.213267 0.367288 0)
(0.0789692 0.343868 4.87917e-19)
(-0.0490252 0.635515 -3.2051e-20)
(-0.00318246 1.46174 -6.31517e-19)
(0.440554 0.417336 3.78419e-19)
(0.959201 0.87146 8.93957e-19)
(1.12217 1.05204 -1.34235e-18)
(1.1334 1.06466 8.11413e-19)
(1.08425 1.05314 -9.60787e-20)
(1.03233 1.02262 6.2116e-19)
(0.969293 0.994657 0)
(0.899793 0.961181 2.55517e-19)
(0.818969 0.924655 0)
(0.725307 0.882402 1.96076e-19)
(0.624338 0.832721 -3.53811e-20)
(0.528745 0.779634 3.9671e-20)
(0.448486 0.726755 5.28253e-19)
(0.359023 0.674361 -1.96145e-19)
(0.274462 0.60341 -2.52804e-19)
(0.205465 0.547852 0)
(0.113197 0.631662 0)
(0.053931 1.19236 0)
(0.0868926 2.39596 -2.75268e-19)
(0.119253 2.878 -1.7045e-19)
(0.437787 0.427028 0)
(0.951668 0.890578 0)
(1.11164 1.07377 4.79958e-19)
(1.12262 1.08698 -6.76666e-19)
(1.07363 1.07522 4.67315e-19)
(1.02201 1.04458 -5.69743e-19)
(0.959231 1.01674 -3.3844e-20)
(0.889852 0.983584 2.63519e-20)
(0.808897 0.947959 2.21311e-21)
(0.714158 0.906991 -2.22259e-19)
(0.609912 0.860396 5.23117e-20)
(0.510916 0.814411 3.61494e-19)
(0.41353 0.766651 -5.20092e-19)
(0.342997 0.706081 -6.08767e-19)
(0.278952 0.668191 2.13794e-19)
(0.214851 0.779384 0)
(0.160173 1.44653 3.07032e-19)
(0.162886 2.64794 3.51243e-19)
(0.164126 3.07287 -3.92983e-19)
(0.15547 3.21637 4.4289e-19)
(0.434819 0.435664 0)
(0.944089 0.907901 7.25617e-19)
(1.10145 1.09401 -1.24495e-19)
(1.11235 1.10804 8.5041e-19)
(1.06357 1.09619 -4.90514e-19)
(1.01222 1.06551 0)
(0.949678 1.0379 0)
(0.880578 1.00525 0)
(0.799626 0.970545 -1.02749e-19)
(0.704443 0.931641 -6.38846e-22)
(0.599447 0.88838 0)
(0.495074 0.844593 -3.51787e-19)
(0.407835 0.801363 0)
(0.295291 0.766018 4.32578e-19)
(0.224631 0.842895 -2.79876e-19)
(0.181615 1.41201 -2.34867e-19)
(0.196963 2.63817 -5.78193e-19)
(0.216715 3.12266 -2.85441e-19)
(0.20484 3.27566 -3.18407e-19)
(0.189365 3.31813 2.84787e-19)
(0.431976 0.443752 -2.45226e-19)
(0.936979 0.924437 1.44834e-20)
(1.09166 1.11313 -1.34078e-19)
(1.10235 1.12782 -6.81049e-19)
(1.05373 1.11592 0)
(1.00271 1.08541 0)
(0.940496 1.05815 0)
(0.871613 1.02608 -1.78158e-20)
(0.790792 0.992736 1.1982e-19)
(0.695375 0.956239 0)
(0.588469 0.91677 0)
(0.486824 0.879717 0)
(0.380667 0.84856 0)
(0.321342 0.844319 2.81419e-19)
(0.298704 1.16772 7.3397e-19)
(0.294945 2.2875 2.28767e-19)
(0.310304 3.07477 4.06215e-19)
(0.300177 3.29712 -2.45893e-19)
(0.246853 3.36884 9.083e-20)
(0.211751 3.38238 0)
(0.428859 0.451229 2.48363e-19)
(0.929628 0.939813 -1.56331e-18)
(1.08195 1.13145 -4.4169e-19)
(1.09262 1.14703 -1.08105e-19)
(1.04427 1.1352 1.25456e-19)
(0.993518 1.10482 -8.90304e-19)
(0.931589 1.07796 6.07799e-20)
(0.863103 1.04667 4.38022e-19)
(0.782595 1.01473 0)
(0.687212 0.980531 -1.24189e-20)
(0.580743 0.94498 1.12976e-20)
(0.470421 0.910577 0)
(0.379919 0.886152 0)
(0.326152 1.00455 -3.48151e-19)
(0.317847 1.78725 -7.5555e-21)
(0.31566 2.90048 -1.1193e-19)
(0.333579 3.29594 1.65715e-19)
(0.305087 3.40806 2.89871e-20)
(0.235619 3.43815 1.71214e-19)
(0.20807 3.44677 -8.70776e-20)
(0.425426 0.458759 4.78095e-19)
(0.922036 0.955881 1.49446e-18)
(1.07179 1.15027 5.43411e-19)
(1.08232 1.16649 0)
(1.03426 1.15463 0)
(0.983939 1.12448 6.82122e-19)
(0.922528 1.09797 -4.27828e-19)
(0.854582 1.0674 -4.02199e-19)
(0.774604 1.03676 -1.64477e-20)
(0.679517 1.00518 -1.18943e-20)
(0.571826 0.973882 -2.23961e-19)
(0.468401 0.946019 0)
(0.390488 0.959504 0)
(0.373062 1.31955 -1.89717e-19)
(0.383648 2.36666 -2.44306e-19)
(0.428198 3.19208 0)
(0.458227 3.39758 1.46247e-19)
(0.387464 3.4693 2.39251e-19)
(0.306612 3.51315 -5.55457e-19)
(0.278409 3.53953 3.16936e-19)
(0.421223 0.466208 -9.06564e-19)
(0.913325 0.972095 -7.10819e-19)
(1.06062 1.16984 0)
(1.07135 1.18687 0)
(1.0238 1.17495 0)
(0.973888 1.14474 0)
(0.913057 1.11846 4.57381e-19)
(0.845816 1.08848 -5.13221e-19)
(0.766624 1.05933 0)
(0.672706 1.03033 1.69232e-20)
(0.56761 1.00394 3.60543e-19)
(0.45976 0.985847 2.02551e-20)
(0.399779 1.06446 3.62953e-20)
(0.419549 1.65298 2.73742e-19)
(0.464722 2.83474 -5.57015e-20)
(0.502123 3.33298 0)
(0.484195 3.4753 -1.00038e-19)
(0.388164 3.5658 1.1058e-19)
(0.290153 3.64669 3.884e-19)
(0.210642 3.6316 -3.44692e-19)
(0.416477 0.473937 4.29536e-19)
(0.903904 0.989565 -6.97784e-19)
(1.04851 1.19039 0)
(1.05934 1.20785 -1.7401e-19)
(1.01224 1.19567 6.6193e-19)
(0.962999 1.1655 0)
(0.902992 1.13934 0)
(0.836756 1.11002 9.58354e-19)
(0.758765 1.08206 1.82311e-20)
(0.665563 1.05535 -1.29448e-19)
(0.559711 1.03315 -1.46236e-19)
(0.467319 1.02673 1.2868e-19)
(0.43926 1.2074 0)
(0.486011 2.05343 -1.2475e-19)
(0.537589 3.1056 1.10017e-19)
(0.597201 3.44266 -6.41728e-20)
(0.593808 3.56053 0)
(0.510803 3.67984 -2.29343e-19)
(0.429448 3.72969 -8.39622e-19)
(0.341095 3.70227 -2.10485e-19)
(0.410652 0.481431 -8.31947e-19)
(0.892979 1.00708 9.92899e-19)
(1.03507 1.21175 7.3741e-19)