/*--------------------------------*- C++ -*----------------------------------*\
  =========                 |
  \\      /  F ield         | OpenFOAM: The Open Source CFD Toolbox
   \\    /   O peration     | Website:  https://openfoam.org
    \\  /    A nd           | Version:  9
     \\/     M anipulation  |
\*---------------------------------------------------------------------------*/
FoamFile
{
    format      ascii;
    class       volScalarField;
    location    "50";
    object      p;
}
// * * * * * * * * * * * * * * * * * * * * * * * * * * * * * * * * * * * * * //

dimensions      [0 2 -2 0 0 0 0];

internalField   nonuniform List<scalar> 
2200
(
0.776591
0.755091
0.739184
0.723517
0.708905
0.696382
0.686023
0.677913
0.672201
0.669242
0.669693
0.673481
0.679817
0.688373
0.69905
0.71181
0.726589
0.742491
0.758522
0.780023
0.709028
0.705769
0.702844
0.698722
0.693254
0.686776
0.680152
0.674192
0.66968
0.667276
0.667753
0.671034
0.676194
0.682636
0.689609
0.696353
0.702016
0.706126
0.70899
0.712342
0.669114
0.669334
0.671388
0.67273
0.673122
0.672265
0.670277
0.667592
0.665038
0.663534
0.664076
0.666511
0.669766
0.672973
0.675304
0.676306
0.676026
0.675014
0.67335
0.673103
0.646625
0.648073
0.650675
0.653135
0.655569
0.657582
0.658733
0.658956
0.658571
0.65826
0.658869
0.660228
0.661414
0.661792
0.661096
0.659419
0.657251
0.655035
0.652419
0.651014
0.632307
0.634282
0.637095
0.639918
0.642767
0.645588
0.648035
0.649884
0.651097
0.651879
0.652587
0.653035
0.65278
0.651652
0.64978
0.647398
0.644849
0.642126
0.639331
0.637405
0.624966
0.626564
0.628761
0.631286
0.633952
0.636615
0.639196
0.641597
0.643595
0.645081
0.645911
0.6459
0.645046
0.64352
0.641606
0.639454
0.637119
0.634776
0.632679
0.631103
0.62158
0.622604
0.623869
0.625726
0.62786
0.630015
0.632196
0.634472
0.636675
0.638493
0.639489
0.639475
0.638663
0.637433
0.636013
0.634431
0.632728
0.631146
0.630023
0.629006
0.618932
0.619602
0.620233
0.621533
0.623143
0.624819
0.626557
0.62846
0.63049
0.632413
0.633616
0.633882
0.633534
0.632888
0.632097
0.631129
0.63005
0.629112
0.628659
0.627983
0.615716
0.616161
0.616553
0.617545
0.618802
0.62018
0.621661
0.623299
0.625111
0.627023
0.628485
0.629222
0.629448
0.629363
0.629051
0.628561
0.62796
0.627407
0.627211
0.626747
0.611744
0.612043
0.612401
0.613264
0.614362
0.615615
0.617029
0.618616
0.620385
0.622352
0.624151
0.625415
0.626129
0.626455
0.626492
0.626305
0.625969
0.625615
0.625477
0.625155
0.607093
0.607296
0.607664
0.60849
0.609579
0.610883
0.612391
0.614095
0.616022
0.618212
0.620399
0.622118
0.623247
0.623878
0.624153
0.624187
0.62403
0.623819
0.6237
0.623465
0.601949
0.602094
0.602466
0.603273
0.604414
0.60584
0.607541
0.609506
0.611749
0.614326
0.617025
0.619238
0.620722
0.62162
0.622086
0.622278
0.622295
0.622222
0.622133
0.621949
0.596434
0.596543
0.59692
0.597734
0.598943
0.600521
0.602461
0.604776
0.607504
0.610675
0.613965
0.616664
0.618522
0.619697
0.620395
0.620781
0.620981
0.621034
0.620985
0.620827
0.590536
0.590605
0.590983
0.591829
0.593167
0.594939
0.597151
0.599861
0.603157
0.607051
0.611094
0.614346
0.616608
0.618163
0.619204
0.619859
0.620274
0.620453
0.620443
0.620296
0.584121
0.584162
0.584579
0.585483
0.586945
0.588918
0.591425
0.59456
0.598451
0.603135
0.608046
0.612113
0.615027
0.617104
0.618571
0.619558
0.620196
0.620511
0.620551
0.620408
0.577137
0.577101
0.577509
0.578494
0.58017
0.582386
0.585213
0.588828
0.593434
0.599087
0.605077
0.610153
0.613886
0.616588
0.618582
0.619977
0.620879
0.621348
0.621437
0.621296
0.569297
0.569272
0.569729
0.570845
0.572734
0.575253
0.578538
0.582788
0.58824
0.595028
0.602334
0.60857
0.613297
0.616783
0.619347
0.621192
0.622406
0.623041
0.623183
0.623035
0.560493
0.560519
0.560938
0.562144
0.564373
0.56735
0.571256
0.576309
0.582809
0.590963
0.599844
0.607547
0.613387
0.617747
0.620998
0.62333
0.624868
0.62567
0.625868
0.625711
0.550237
0.550213
0.550752
0.55218
0.55476
0.558317
0.563049
0.569186
0.577046
0.586915
0.597715
0.607093
0.614272
0.619645
0.62362
0.626501
0.628413
0.629384
0.629633
0.629456
0.538086
0.538017
0.538689
0.540506
0.543613
0.547935
0.553758
0.561353
0.571103
0.583228
0.596297
0.607469
0.616012
0.622491
0.627323
0.630794
0.633109
0.634256
0.634553
0.634357
0.523687
0.523574
0.52434
0.526556
0.530454
0.535892
0.543203
0.552737
0.564912
0.579781
0.595429
0.608646
0.618737
0.626426
0.632152
0.636365
0.639114
0.640433
0.64077
0.640548
0.506138
0.506046
0.507034
0.50979
0.514678
0.521582
0.530867
0.542838
0.557901
0.575999
0.594757
0.610512
0.622427
0.631471
0.638294
0.64327
0.646475
0.647984
0.648358
0.648104
0.484459
0.484298
0.485594
0.489158
0.495478
0.504423
0.516295
0.531398
0.549956
0.571815
0.594193
0.612881
0.62701
0.637677
0.645729
0.651589
0.655308
0.656989
0.657381
0.657084
0.456466
0.456471
0.458515
0.463456
0.471982
0.483961
0.499565
0.51884
0.541787
0.568109
0.594537
0.616316
0.632691
0.645114
0.654514
0.66134
0.665564
0.667395
0.667764
0.667414
0.4192
0.419436
0.422941
0.43077
0.443287
0.460181
0.481058
0.505799
0.534175
0.565663
0.596349
0.621251
0.639902
0.654036
0.664758
0.672509
0.67712
0.678992
0.679296
0.678894
0.369382
0.369761
0.376692
0.389787
0.408749
0.432826
0.460742
0.49215
0.526769
0.563984
0.599353
0.627497
0.648431
0.664319
0.676364
0.684857
0.689597
0.691282
0.691411
0.691049
0.303487
0.306309
0.321348
0.342568
0.370348
0.403256
0.439271
0.478123
0.519677
0.563351
0.603949
0.635997
0.659961
0.678163
0.69187
0.701522
0.706554
0.708032
0.707999
0.707826
0.228424
0.237805
0.262824
0.293879
0.331737
0.373634
0.417751
0.46422
0.512932
0.563299
0.609868
0.646834
0.674466
0.695487
0.711541
0.722509
0.727808
0.728925
0.728836
0.728816
0.161227
0.175952
0.207266
0.247055
0.294378
0.34508
0.397209
0.451366
0.507383
0.56456
0.61723
0.658387
0.68916
0.712691
0.730237
0.742266
0.747902
0.749003
0.749336
0.749307
0.109929
0.123123
0.159826
0.205758
0.260397
0.318584
0.378133
0.439652
0.502753
0.566572
0.624297
0.669501
0.703333
0.728883
0.748122
0.761161
0.767217
0.768896
0.769081
0.769139
0.0676483
0.0800813
0.12043
0.170345
0.23051
0.294705
0.360707
0.428701
0.497949
0.567611
0.630524
0.679825
0.716083
0.743788
0.764543
0.778345
0.785108
0.787176
0.78733
0.787419
0.0313257
0.0440485
0.0871212
0.13989
0.204359
0.273335
0.344726
0.418293
0.493216
0.568734
0.637045
0.689348
0.728052
0.757302
0.779235
0.793793
0.800829
0.803136
0.803363
0.803459
-0.000325328
0.0126069
0.0578261
0.113158
0.181144
0.254048
0.33003
0.408531
0.488716
0.569356
0.641611
0.697315
0.738356
0.769004
0.791736
0.806817
0.814342
0.816806
0.817146
0.817218
-0.0286518
-0.0156375
0.0312067
0.0889986
0.160124
0.236427
0.316393
0.399198
0.483882
0.569044
0.645736
0.704679
0.747184
0.77887
0.80218
0.8178
0.82551
0.82825
0.828662
0.828714
-0.054556
-0.0414766
0.0065581
0.0667031
0.14061
0.219928
0.303372
0.38988
0.478592
0.568357
0.649229
0.710371
0.754728
0.787497
0.811117
0.827009
0.835127
0.838006
0.838488
0.838507
-0.0788464
-0.0654525
-0.0165035
0.0458042
0.122125
0.2041
0.290575
0.380408
0.472955
0.566862
0.651183
0.715373
0.761476
0.7949
0.819186
0.835087
0.843335
0.846309
0.846827
0.846775
-0.101677
-0.088121
-0.0382733
0.0259386
0.104316
0.188636
0.277822
0.370696
0.466684
0.564251
0.652579
0.71997
0.767481
0.802013
0.826475
0.84223
0.850466
0.853405
0.853892
0.853708
-0.123249
-0.109629
-0.0590175
0.00680206
0.0869624
0.173403
0.265043
0.360617
0.45964
0.56079
0.653195
0.723546
0.773193
0.808624
0.833218
0.84884
0.856733
0.859643
0.860086
0.859994
-0.14397
-0.130156
-0.0789335
-0.0117609
0.0699519
0.1583
0.252128
0.350086
0.451897
0.556586
0.652978
0.726737
0.778876
0.815283
0.839827
0.855014
0.86273
0.865384
0.86582
0.865719
-0.164221
-0.149892
-0.0982037
-0.0298499
0.05322
0.143253
0.239011
0.339141
0.443582
0.551563
0.651805
0.729358
0.784213
0.822015
0.846716
0.861378
0.868436
0.870801
0.871125
0.871028
-0.184132
-0.169076
-0.116937
-0.047512
0.0367331
0.128232
0.225704
0.327841
0.434715
0.545747
0.649891
0.731456
0.789364
0.829274
0.854332
0.868127
0.874327
0.875878
0.876068
0.875962
-0.203582
-0.187794
-0.135195
-0.0647773
0.0204911
0.113274
0.212278
0.316245
0.425342
0.539173
0.646874
0.732517
0.794315
0.836948
0.863082
0.875995
0.880436
0.880624
0.880483
0.880367
-0.222482
-0.206092
-0.152974
-0.0816291
0.00454031
0.0984411
0.198783
0.30436
0.415421
0.531722
0.642751
0.732675
0.798714
0.845117
0.873446
0.885599
0.887735
0.88511
0.884616
0.885449
-0.240751
-0.223901
-0.170247
-0.0980376
-0.0110687
0.0837881
0.18526
0.292215
0.405001
0.523507
0.63753
0.731584
0.802514
0.853478
0.885502
0.898416
0.897993
0.891294
0.8862
0.884762
-0.258394
-0.241171
-0.186967
-0.113962
-0.026285
0.0693712
0.171764
0.279877
0.39417
0.514569
0.631102
0.729024
0.804859
0.861646
0.899136
0.915375
0.916019
0.904037
0.902883
0.907116
-0.275385
-0.257816
-0.203085
-0.129364
-0.0410668
0.0552452
0.158377
0.26745
0.383017
0.504985
0.62356
0.724751
0.80555
0.868611
0.913275
0.936267
0.940336
0.911714
0.871261
0.835338
-0.291688
-0.273855
-0.21863
-0.144312
-0.0555146
0.0412995
0.144977
0.254771
0.371308
0.494531
0.614743
0.718415
0.803414
0.873214
0.926903
0.959892
0.979016
0.961262
0.978173
1.03639
-0.307241
-0.289304
-0.233691
-0.158947
-0.0698055
0.027316
0.131303
0.241498
0.358579
0.482637
0.604028
0.709217
0.79742
0.872642
0.931737
0.969087
0.981402
0.96061
0.919775
0.934315
-0.322034
-0.304155
-0.248211
-0.173202
-0.0838554
0.0134
0.117478
0.22777
0.344997
0.469427
0.591401
0.697066
0.785784
0.862357
0.921985
0.958595
0.94743
0.894283
0.830604
0.818405
-0.336038
-0.318377
-0.262189
-0.187078
-0.0976601
-0.000452432
0.103506
0.213622
0.33062
0.454857
0.576639
0.681599
0.768194
0.840142
0.893998
0.90346
0.86908
0.792801
0.718564
0.696749
-0.349304
-0.331984
-0.275634
-0.200589
-0.111244
-0.0142567
0.0893885
0.199084
0.315508
0.438994
0.559711
0.662603
0.74354
0.803779
0.83304
0.820869
0.763914
0.66274
0.575669
0.553834
-0.362286
-0.345365
-0.288949
-0.214111
-0.124963
-0.0283285
0.0748575
0.183937
0.299474
0.421625
0.540364
0.639535
0.713018
0.757666
0.752903
0.718589
0.608613
0.486656
0.379576
0.352745
-0.375884
-0.359352
-0.302835
-0.228269
-0.139395
-0.0431496
0.0595081
0.167836
0.282229
0.402545
0.518441
0.611947
0.67835
0.699083
0.665564
0.578585
0.423214
0.271015
0.142107
0.114781
-0.390615
-0.374307
-0.317626
-0.243312
-0.15472
-0.0588496
0.0432474
0.150723
0.263753
0.381763
0.493802
0.580936
0.637049
0.629681
0.577215
0.428297
0.229047
0.0169303
-0.16282
-0.210973
-0.4066
-0.390382
-0.333369
-0.259252
-0.17092
-0.0754005
0.0261029
0.132621
0.244106
0.359364
0.466281
0.547767
0.588999
0.550186
0.463266
0.275969
0.0452149
-0.243054
-0.564068
-0.711606
-0.423902
-0.407601
-0.350196
-0.276191
-0.188044
-0.0928706
0.00799581
0.113466
0.223253
0.335443
0.436514
0.512126
0.535493
0.466179
0.330364
0.125251
-0.108459
-0.45194
-1.03869
-1.61066
-0.442612
-0.426136
-0.368157
-0.294172
-0.206128
-0.111258
-0.011036
0.0933411
0.201358
0.310386
0.405477
0.473383
0.478429
0.392301
0.201815
-0.0315774
-0.234096
-0.468622
-1.02452
-2.54137
-0.462735
-0.445959
-0.387379
-0.313342
-0.225321
-0.130765
-0.0312386
0.0719674
0.178076
0.283816
0.372977
0.431307
0.416574
0.33457
0.108858
-0.129196
-0.276928
-0.314068
-0.304021
-0.692247
-0.484216
-0.467372
-0.407999
-0.33398
-0.246044
-0.151891
-0.0532217
0.0485885
0.152458
0.254284
0.337974
0.386019
0.355695
0.285931
0.0594199
-0.143101
-0.253806
-0.261621
-0.208323
-0.248664
-0.50687
-0.490056
-0.430057
-0.356177
-0.268358
-0.17476
-0.0771487
0.0230266
0.124294
0.221658
0.300717
0.338828
0.30203
0.233162
0.0278179
-0.133174
-0.21542
-0.223132
-0.270961
-0.275266
-0.530783
-0.513994
-0.453408
-0.379895
-0.292272
-0.199392
-0.103053
-0.0047625
0.0935898
0.186344
0.260834
0.2897
0.25557
0.173098
-5.47586e-05
-0.12337
-0.193655
-0.170113
-0.190756
-0.192296
-0.555587
-0.538631
-0.478027
-0.405079
-0.317612
-0.225708
-0.130864
-0.0346768
0.0604947
0.148713
0.218642
0.236991
0.214824
0.105674
-0.0346262
-0.118046
-0.157716
-0.204341
-0.1795
-0.187851
-0.581077
-0.563721
-0.50368
-0.431475
-0.344181
-0.253557
-0.160393
-0.066496
0.0251222
0.109102
0.175079
0.183288
0.172543
0.0453578
-0.0713942
-0.135813
-0.11428
-0.174027
-0.15452
-0.159329
-0.606312
-0.588754
-0.53027
-0.45876
-0.37162
-0.282679
-0.191343
-0.0998978
-0.0122867
0.0679328
0.131088
0.13184
0.121343
-0.00669102
-0.0983192
-0.149844
-0.137693
-0.154108
-0.159507
-0.157828
-0.630945
-0.613529
-0.556912
-0.486125
-0.399611
-0.312721
-0.223306
-0.134461
-0.0512034
0.0254672
0.0872248
0.0841081
0.0650072
-0.0502183
-0.113433
-0.143497
-0.181452
-0.154863
-0.161405
-0.156137
-0.653919
-0.63724
-0.582593
-0.512845
-0.427764
-0.343109
-0.255731
-0.169607
-0.0907508
-0.0179955
0.043094
0.0401136
0.00975137
-0.088066
-0.130566
-0.119304
-0.189477
-0.138798
-0.153146
-0.146153
-0.674594
-0.659033
-0.60628
-0.537835
-0.455613
-0.373054
-0.287942
-0.204738
-0.129959
-0.061944
-0.00134815
-0.00114167
-0.0380011
-0.107469
-0.144501
-0.105903
-0.149027
-0.129286
-0.135043
-0.132108
-0.691357
-0.677431
-0.627286
-0.560773
-0.482131
-0.401528
-0.319113
-0.23902
-0.167791
-0.105441
-0.0462548
-0.0411167
-0.0740759
-0.111245
-0.140314
-0.119835
-0.129783
-0.129197
-0.127982
-0.1278
-0.703397
-0.691561
-0.644538
-0.580559
-0.505604
-0.427623
-0.34825
-0.271516
-0.203402
-0.147252
-0.0899819
-0.0793233
-0.105601
-0.104975
-0.121741
-0.139407
-0.125358
-0.133125
-0.128288
-0.128262
-0.709279
-0.699846
-0.656985
-0.596195
-0.524863
-0.450203
-0.374277
-0.301017
-0.235832
-0.185311
-0.130303
-0.117366
-0.14444
-0.108967
-0.0729611
-0.119118
-0.102486
-0.133862
-0.134383
-0.136046
-0.708932
-0.701621
-0.662952
-0.605875
-0.53856
-0.467844
-0.395769
-0.32612
-0.26394
-0.217711
-0.164983
-0.154831
-0.189195
-0.155542
-0.0312233
-0.0577907
-0.0797497
-0.105347
-0.113841
-0.11889
-0.701378
-0.694112
-0.660656
-0.608685
-0.546022
-0.47957
-0.411485
-0.345195
-0.285818
-0.241847
-0.193607
-0.192951
-0.244054
-0.307413
-0.330746
-0.401643
-0.415616
-0.391292
-0.368234
-0.353703
-0.681874
-0.67374
-0.647759
-0.602789
-0.545833
-0.484196
-0.420264
-0.356744
-0.298613
-0.254959
-0.210491
-0.210517
-0.327872
-0.568397
-0.935909
-1.14656
-1.17065
-1.12686
-1.02523
-0.943409
-0.641887
-0.634263
-0.622965
-0.58898
-0.538776
-0.481852
-0.421851
-0.35956
-0.29966
-0.252585
-0.210672
-0.186144
-0.306657
-0.538374
-0.798817
-0.874563
-0.815925
-0.721816
-0.655639
-0.619088
-0.598449
-0.595139
-0.593618
-0.567325
-0.525225
-0.473634
-0.416216
-0.353742
-0.28835
-0.230029
-0.177732
-0.0954626
-0.00825135
0.131901
0.255836
0.41391
0.54863
0.637172
0.699938
0.753815
-0.574003
-0.574943
-0.566927
-0.548375
-0.512329
-0.463052
-0.405127
-0.340672
-0.266776
-0.186215
-0.10347
0.0452668
0.272794
0.635298
0.983663
1.26367
1.45686
1.56747
1.61645
1.63063
-0.542587
-0.543286
-0.538283
-0.53094
-0.49976
-0.452518
-0.392975
-0.324936
-0.243464
-0.145439
-0.0374139
0.111983
0.373222
0.730042
1.07909
1.3663
1.57063
1.68917
1.7421
1.75987
-0.518411
-0.517306
-0.518415
-0.513754
-0.48884
-0.443955
-0.382746
-0.310184
-0.224533
-0.119219
-0.00381333
0.114484
0.354709
0.659655
0.962493
1.22352
1.42512
1.54785
1.60269
1.61846
-0.500576
-0.498544
-0.501068
-0.494346
-0.479906
-0.439144
-0.376244
-0.299968
-0.212808
-0.108798
0.000575828
0.0839542
0.281
0.537837
0.786562
1.00191
1.17558
1.28151
1.32764
1.33906
-0.487853
-0.485762
-0.483858
-0.480301
-0.476036
-0.435114
-0.371286
-0.293934
-0.209007
-0.113902
-0.0115623
0.0497853
0.200071
0.4147
0.612849
0.777685
0.909814
0.991253
1.02627
1.03519
-0.493861
-0.492433
-0.491047
-0.496686
-0.488148
-0.43628
-0.368001
-0.289595
-0.207793
-0.124961
-0.0286571
0.0221428
0.128772
0.301758
0.456512
0.57823
0.673636
0.734669
0.760955
0.766812
-0.506653
-0.507739
-0.511344
-0.519035
-0.500643
-0.438596
-0.363324
-0.282969
-0.204113
-0.133787
-0.0443264
0.00174234
0.0712857
0.205583
0.324189
0.414067
0.483135
0.528146
0.546013
0.551115
-0.486152
-0.489254
-0.497505
-0.502758
-0.480422
-0.418678
-0.345542
-0.268616
-0.194537
-0.135695
-0.0556871
-0.0122476
0.0314995
0.133025
0.221411
0.286581
0.336823
0.369658
0.383029
0.38764
-0.39789
-0.402333
-0.409958
-0.414554
-0.397952
-0.353687
-0.299183
-0.239373
-0.175848
-0.127484
-0.0611823
-0.0223575
0.00665192
0.0848838
0.148248
0.193289
0.230563
0.255265
0.26507
0.26763
-0.267788
-0.271187
-0.274911
-0.277761
-0.270211
-0.250787
-0.223527
-0.189048
-0.145638
-0.109512
-0.0606061
-0.0283128
-0.00834722
0.0525662
0.0976952
0.128362
0.154169
0.170136
0.177014
0.178795
-0.145578
-0.147187
-0.149754
-0.153642
-0.153567
-0.150937
-0.144373
-0.130756
-0.108288
-0.0856826
-0.0546345
-0.030093
-0.0143575
0.0307628
0.061738
0.0829354
0.0982918
0.106828
0.109837
0.110085
-0.0527016
-0.0536784
-0.0556493
-0.0608018
-0.0680655
-0.075576
-0.0801781
-0.0794017
-0.0719605
-0.0618891
-0.0445539
-0.02853
-0.015375
0.0155114
0.0354385
0.0481038
0.0558212
0.0589667
0.0588558
0.0578897
0.00568666
0.00493769
0.00319041
-0.00257551
-0.0134305
-0.0258169
-0.0355863
-0.0416349
-0.0426428
-0.0413355
-0.0328396
-0.0234404
-0.013982
0.00378821
0.014976
0.0211216
0.0239799
0.0238567
0.0222594
0.0208725
0.0353531
0.0347764
0.0331855
0.0276228
0.016982
0.00391404
-0.00780061
-0.0170734
-0.0221597
-0.0256954
-0.0217961
-0.0168263
-0.0123083
-0.00420191
0.000421847
0.00234704
0.00242302
0.000784868
-0.00138073
-0.00285461
0.0472795
0.0468079
0.0454385
0.0406132
0.0313726
0.0194903
0.00783522
-0.00237484
-0.0091616
-0.0148175
-0.0132139
-0.0110561
-0.0110803
-0.00895656
-0.00835631
-0.00874715
-0.009919
-0.012093
-0.0141867
-0.0156353
0.0490458
0.0486949
0.0476193
0.0438321
0.036486
0.0266854
0.0162358
0.00625849
-0.0010833
-0.00753174
-0.0075244
-0.00791421
-0.00953219
-0.0098198
-0.0112296
-0.0127697
-0.0148448
-0.0172895
-0.019163
-0.0205261
0.0456774
0.0454324
0.0446317
0.0418076
0.0363205
0.0288203
0.020273
0.0114462
0.00454774
-0.0023796
-0.00358107
-0.00562277
-0.00849189
-0.00909749
-0.0110792
-0.013376
-0.0157926
-0.0181059
-0.0196516
-0.0208257
0.0401005
0.0399455
0.039376
0.0373755
0.0334445
0.0279355
0.0213923
0.0140649
0.00827325
0.00115248
-0.00110671
-0.00315932
-0.00645256
-0.00780472
-0.0100835
-0.0124757
-0.0147726
-0.0166605
-0.0177297
-0.018732
0.0337764
0.0336759
0.0332704
0.0318833
0.0291097
0.0251114
0.0202481
0.0144184
0.00993407
0.00322217
0.000630091
-0.00152098
-0.00430724
-0.00564877
-0.00811606
-0.0104506
-0.0123867
-0.013768
-0.0144062
-0.0152528
0.0276576
0.0275853
0.0272971
0.026329
0.0243445
0.0214198
0.0176848
0.0130347
0.00976143
0.00413062
0.00139199
-0.000827025
-0.00326128
-0.00420551
-0.00602417
-0.00777698
-0.00910157
-0.0100674
-0.0104031
-0.0111331
0.0220308
0.0219738
0.0217621
0.021114
0.0197952
0.0177323
0.0149674
0.0112984
0.00875811
0.00416397
0.00151619
-0.000462309
-0.0029808
-0.00380526
-0.00475871
-0.00563216
-0.00651826
-0.00715442
-0.00733086
-0.00792375
0.0171774
0.0171102
0.0169357
0.0164681
0.0155745
0.0141812
0.0122747
0.0095191
0.00770907
0.0037043
0.00149733
-0.000891957
-0.00337619
-0.00321361
-0.00365274
-0.00413376
-0.00446127
-0.00469688
-0.00469628
-0.00521964
0.0132608
0.0132213
0.0131285
0.0128401
0.0122396
0.0112113
0.00984187
0.00772347
0.00635856
0.00276402
0.000999814
-0.00144127
-0.00354408
-0.00295303
-0.00275796
-0.00241584
-0.00231786
-0.0023992
-0.00240917
-0.00289261
0.0097974
0.00975019
0.00967775
0.00949942
0.00912946
0.00843995
0.00753443
0.00592193
0.00495428
0.00207004
0.000363982
-0.00168551
-0.0032214
-0.00254485
-0.0019423
-0.00117793
-0.000648224
-0.000521599
-0.000488689
-0.000946571
0.00666553
0.00662069
0.00656101
0.00646036
0.00619956
0.00574284
0.00520081
0.00403211
0.00351062
0.00136245
0.000235761
-0.00160758
-0.00269841
-0.00185298
-0.00130576
-0.000667241
2.21147e-05
0.000380457
0.000458563
-6.63477e-05
0.00395241
0.00391497
0.00388839
0.00388607
0.00377314
0.00353041
0.00320752
0.00239716
0.00235355
0.000820224
0.000422103
-0.00100852
-0.00182578
-0.00115223
-0.00121637
-0.00104575
-0.000642853
-0.000308381
-8.36645e-05
-0.000462531
0.00162016
0.00159689
0.00158066
0.0015688
0.00154067
0.00153387
0.00142949
0.000943547
0.00134991
0.000463732
0.000739164
0.000310577
-0.000319003
-0.000205949
-0.00132805
-0.00228351
-0.00306338
-0.00355137
-0.00323552
-0.00326008
-1.0751
-0.234199
0.0358943
0.312515
0.494628
0.651186
0.778301
0.90783
1.04987
1.13178
-0.0937656
0.313479
0.330391
0.518934
0.643375
0.755036
0.851205
0.936824
0.964349
0.922193
0.284008
0.498167
0.533675
0.67026
0.756519
0.836631
0.9027
0.952272
0.95443
0.968428
0.514014
0.657308
0.6925
0.794633
0.851581
0.909553
0.95447
0.986877
0.995967
1.01962
0.692391
0.794072
0.823836
0.891772
0.936216
0.977427
1.00962
1.03392
1.04372
1.07527
0.835973
0.904955
0.935315
0.978373
1.01452
1.04473
1.06907
1.0898
1.10396
1.13222
0.95534
1.00601
1.03161
1.05967
1.08739
1.11121
1.13119
1.15044
1.16534
1.19182
1.05926
1.09631
1.11743
1.13812
1.15895
1.17836
1.19577
1.21388
1.22876
1.25241
1.15334
1.18247
1.19883
1.21412
1.23025
1.24631
1.26186
1.27878
1.29239
1.31471
1.24166
1.26213
1.27699
1.29016
1.30373
1.3175
1.331
1.34559
1.35714
1.37678
1.32712
1.34291
1.35674
1.36854
1.38045
1.39209
1.40322
1.41491
1.42258
1.43939
1.41235
1.42489
1.4386
1.45035
1.46098
1.47078
1.4796
1.48787
1.49143
1.50268
1.50109
1.5119
1.52537
1.53491
1.54248
1.54977
1.55696
1.56346
1.56454
1.57192
1.59949
1.60408
1.61228
1.61705
1.62044
1.62493
1.63093
1.63861
1.64249
1.65237
1.7128
1.6997
1.69242
1.68669
1.68396
1.68531
1.69167
1.70404
1.71884
1.74851
1.8348
1.77877
1.74775
1.73055
1.72233
1.72227
1.73108
1.75068
1.78252
1.85177
)
;

boundaryField
{
    wall-4
    {
        type            zeroGradient;
    }
    pressure-outlet-7
    {
        type            fixedValue;
        value           uniform 0;
    }
    velocity-inlet-6
    {
        type            zeroGradient;
    }
    velocity-inlet-5
    {
        type            zeroGradient;
    }
    frontAndBackPlanes
    {
        type            empty;
    }
}


// ************************************************************************* //
