/*--------------------------------*- C++ -*----------------------------------*\
  =========                 |
  \\      /  F ield         | OpenFOAM: The Open Source CFD Toolbox
   \\    /   O peration     | Website:  https://openfoam.org
    \\  /    A nd           | Version:  9
     \\/     M anipulation  |
\*---------------------------------------------------------------------------*/
FoamFile
{
    format      ascii;
    class       volVectorField;
    location    "50";
    object      U;
}
// * * * * * * * * * * * * * * * * * * * * * * * * * * * * * * * * * * * * * //

dimensions      [0 1 -1 0 0 0 0];

internalField   nonuniform List<vector> 
2200
(
(0.878832 -0.0304148 0)
(1.00578 -0.0512832 0)
(1.00327 -0.0354085 0)
(1.00022 -0.0244548 0)
(0.999807 -0.0166857 0)
(1 -0.0107523 0)
(1.00003 -0.00688115 0)
(1.00002 -0.00423311 0)
(1 -0.00225693 0)
(1.00017 -0.000726152 0)
(1.00002 0.000996983 0)
(0.999914 0.00252886 0)
(0.999997 0.00448748 0)
(1.00001 0.00706157 0)
(1.00009 0.0108877 0)
(1.00001 0.0166984 0)
(1.00034 0.0244187 0)
(1.00348 0.0349494 0)
(1.00595 0.0513708 0)
(0.879011 0.0303164 0)
(0.712006 -0.032763 0)
(0.996629 -0.0630188 0)
(1.0333 -0.0561551 0)
(1.02491 -0.0464109 0)
(1.01594 -0.0361019 0)
(1.00967 -0.0263685 0)
(1.0059 -0.0181222 0)
(1.00375 -0.0114352 0)
(1.00256 -0.00605181 0)
(1.00207 -0.00153431 0)
(1.00215 0.00260783 0)
(1.00264 0.00702927 0)
(1.00366 0.0122808 0)
(1.0058 0.0189019 0)
(1.00943 0.0271308 0)
(1.01546 0.0368548 0)
(1.02456 0.0473191 0)
(1.0331 0.0577802 0)
(0.996676 0.0631419 0)
(0.711786 0.0330074 0)
(0.535508 -0.0238974 0)
(0.969879 -0.0569511 0)
(1.05642 -0.0547456 0)
(1.05224 -0.0488126 0)
(1.0362 -0.040491 0)
(1.02442 -0.0323125 0)
(1.01589 -0.0240376 0)
(1.0104 -0.0161449 0)
(1.0072 -0.00888852 0)
(1.0056 -0.00228767 0)
(1.00538 0.00402597 0)
(1.00683 0.0105758 0)
(1.01013 0.0176222 0)
(1.01563 0.025303 0)
(1.02416 0.0333155 0)
(1.03622 0.0413622 0)
(1.05227 0.0494032 0)
(1.05635 0.0534467 0)
(0.96922 0.0576197 0)
(0.534428 0.0239315 0)
(0.39223 -0.0136569 0)
(0.911741 -0.0464042 0)
(1.05745 -0.0469561 0)
(1.06946 -0.044277 0)
(1.05487 -0.0381526 0)
(1.03935 -0.0315271 0)
(1.02751 -0.024735 0)
(1.019 -0.0175157 0)
(1.01363 -0.0100225 0)
(1.01104 -0.00242454 0)
(1.01106 0.00513417 0)
(1.01348 0.0125362 0)
(1.0185 0.0198072 0)
(1.02681 0.0267155 0)
(1.03854 0.0330789 0)
(1.05393 0.0394726 0)
(1.06816 0.0455306 0)
(1.05561 0.0482516 0)
(0.909978 0.0469506 0)
(0.390028 0.0137725 0)
(0.307586 -0.00451318 0)
(0.846647 -0.0323939 0)
(1.04947 -0.0399596 0)
(1.07957 -0.0382863 0)
(1.06816 -0.0336291 0)
(1.05161 -0.0280136 0)
(1.03833 -0.0226465 0)
(1.02813 -0.0166047 0)
(1.02108 -0.00971303 0)
(1.01718 -0.00212361 0)
(1.01678 0.00571057 0)
(1.0203 0.0130794 0)
(1.02726 0.0196041 0)
(1.03721 0.0252259 0)
(1.05027 0.030221 0)
(1.06682 0.0355577 0)
(1.07791 0.0398974 0)
(1.04745 0.041596 0)
(0.843203 0.032909 0)
(0.303977 0.00471429 0)
(0.264109 9.45831e-05 0)
(0.788741 -0.0201073 0)
(1.033 -0.0315037 0)
(1.08334 -0.0321087 0)
(1.07725 -0.0288542 0)
(1.06082 -0.0239629 0)
(1.04716 -0.0195011 0)
(1.03631 -0.0144176 0)
(1.02848 -0.00841028 0)
(1.02407 -0.00137554 0)
(1.02387 0.00598923 0)
(1.02775 0.012789 0)
(1.0348 0.0183664 0)
(1.04525 0.0230078 0)
(1.05869 0.0269653 0)
(1.07489 0.0313916 0)
(1.0804 0.0341577 0)
(1.02928 0.0332392 0)
(0.782936 0.0207172 0)
(0.259078 0.000107453 0)
(0.240147 0.00106582 0)
(0.738215 -0.0123157 0)
(1.01379 -0.0250568 0)
(1.08412 -0.0268383 0)
(1.08291 -0.0245374 0)
(1.06767 -0.0204222 0)
(1.05412 -0.0164293 0)
(1.0433 -0.0119747 0)
(1.0352 -0.00657764 0)
(1.03028 -0.000244516 0)
(1.02972 0.00641374 0)
(1.03374 0.012237 0)
(1.04144 0.0170146 0)
(1.05171 0.0209068 0)
(1.06496 0.0243961 0)
(1.07977 0.0278999 0)
(1.08029 0.0294995 0)
(1.00803 0.0271052 0)
(0.729481 0.0130946 0)
(0.233532 -0.000850385 0)
(0.225672 0.000943444 0)
(0.694858 -0.00808712 0)
(0.992472 -0.0208796 0)
(1.08188 -0.023325 0)
(1.08675 -0.0215176 0)
(1.07333 -0.0179339 0)
(1.05982 -0.0141279 0)
(1.04922 -0.00978542 0)
(1.04128 -0.00492273 0)
(1.03636 0.000660667 0)
(1.03569 0.00659931 0)
(1.03933 0.0119087 0)
(1.04609 0.0161625 0)
(1.05616 0.0197079 0)
(1.06936 0.0227327 0)
(1.08209 0.0255563 0)
(1.07573 0.0265486 0)
(0.983612 0.0232655 0)
(0.682564 0.00906422 0)
(0.217194 -0.000726054 0)
(0.21609 0.000617153 0)
(0.659651 -0.00571529 0)
(0.972385 -0.0176799 0)
(1.07942 -0.0203165 0)
(1.0901 -0.018791 0)
(1.07806 -0.0157851 0)
(1.06468 -0.0121499 0)
(1.05422 -0.0080333 0)
(1.04637 -0.00316416 0)
(1.04142 0.00221985 0)
(1.04062 0.00764485 0)
(1.0441 0.0122408 0)
(1.0509 0.0160971 0)
(1.06034 0.0193569 0)
(1.07301 0.0221088 0)
(1.08389 0.0241641 0)
(1.07176 0.0247552 0)
(0.960274 0.0207909 0)
(0.642948 0.00698584 0)
(0.205275 -0.000353735 0)
(0.208738 0.000293705 0)
(0.630613 -0.00424547 0)
(0.952847 -0.015145 0)
(1.07579 -0.0181161 0)
(1.09296 -0.0168456 0)
(1.08265 -0.013925 0)
(1.0693 -0.0104378 0)
(1.05885 -0.00633878 0)
(1.0511 -0.00175668 0)
(1.0461 0.00318667 0)
(1.04469 0.00815373 0)
(1.04735 0.0127268 0)
(1.05348 0.0163833 0)
(1.06291 0.0192283 0)
(1.07563 0.0216399 0)
(1.08463 0.0234784 0)
(1.06417 0.0234352 0)
(0.935251 0.0188184 0)
(0.608223 0.00581254 0)
(0.194985 1.81081e-05 0)
(0.2029 7.06798e-05 0)
(0.607356 -0.00320362 0)
(0.935118 -0.0126654 0)
(1.07286 -0.0157816 0)
(1.09625 -0.0146889 0)
(1.08715 -0.0120283 0)
(1.0737 -0.00848709 0)
(1.06306 -0.0046096 0)
(1.05498 -1.64832e-05 0)
(1.04973 0.00502728 0)
(1.04854 0.00998417 0)
(1.05129 0.013938 0)
(1.05723 0.0170973 0)
(1.06626 0.0197186 0)
(1.07844 0.021743 0)
(1.08536 0.0229472 0)
(1.05839 0.0224608 0)
(0.912619 0.0172128 0)
(0.578792 0.00510644 0)
(0.185707 0.000294215 0)
(0.198148 -4.56203e-06 0)
(0.588805 -0.00235568 0)
(0.919199 -0.0104245 0)
(1.06951 -0.0136657 0)
(1.09944 -0.0126442 0)
(1.092 -0.00992048 0)
(1.07838 -0.00649785 0)
(1.06746 -0.00262126 0)
(1.05927 0.00179759 0)
(1.05379 0.00646609 0)
(1.05143 0.0109621 0)
(1.05325 0.0149545 0)
(1.05892 0.0179347 0)
(1.06803 0.0200899 0)
(1.08046 0.0219845 0)
(1.08518 0.0229016 0)
(1.04892 0.0218121 0)
(0.887896 0.0158928 0)
(0.551531 0.00468776 0)
(0.17653 0.000464029 0)
(0.194516 2.42911e-05 0)
(0.573983 -0.00158032 0)
(0.904691 -0.00818852 0)
(1.06686 -0.0112509 0)
(1.10305 -0.0102589 0)
(1.09691 -0.0076527 0)
(1.08319 -0.0041276 0)
(1.0718 -0.000388224 0)
(1.06293 0.00397535 0)
(1.05678 0.00886059 0)
(1.05473 0.0136436 0)
(1.05666 0.0169529 0)
(1.06212 0.0193676 0)
(1.07105 0.0211948 0)
(1.08259 0.0225776 0)
(1.08458 0.0230798 0)
(1.04108 0.0214176 0)
(0.865581 0.0149208 0)
(0.527745 0.00446625 0)
(0.167908 0.000551305 0)
(0.192306 4.65881e-05 0)
(0.563237 -0.00082336 0)
(0.892885 -0.00606888 0)
(1.06393 -0.00901049 0)
(1.1063 -0.00790936 0)
(1.10186 -0.00513002 0)
(1.08801 -0.00158099 0)
(1.07627 0.002336 0)
(1.06705 0.00675075 0)
(1.06044 0.011328 0)
(1.05683 0.0153691 0)
(1.05782 0.0188923 0)
(1.06304 0.0210969 0)
(1.07212 0.0223919 0)
(1.08328 0.023439 0)
(1.08297 0.023483 0)
(1.0291 0.0213026 0)
(0.840527 0.0141628 0)
(0.504169 0.00432358 0)
(0.159084 0.000582316 0)
(0.191314 9.45819e-05 0)
(0.555622 -0.000255929 0)
(0.882513 -0.00399586 0)
(1.06228 -0.00620469 0)
(1.1101 -0.00489451 0)
(1.10696 -0.00210923 0)
(1.09328 0.00157152 0)
(1.0811 0.00554786 0)
(1.07118 0.0100136 0)
(1.06353 0.0147559 0)
(1.06012 0.0189045 0)
(1.06127 0.0215614 0)
(1.06601 0.023115 0)
(1.07451 0.0242619 0)
(1.08374 0.0246249 0)
(1.08063 0.0243168 0)
(1.01834 0.0215178 0)
(0.817707 0.0138325 0)
(0.482957 0.00434831 0)
(0.150729 0.000617485 0)
(0.191806 6.08408e-05 0)
(0.551217 0.000784179 0)
(0.87605 -0.00167541 0)
(1.06111 -0.00364967 0)
(1.11414 -0.00195997 0)
(1.11253 0.00127347 0)
(1.09876 0.00518398 0)
(1.08635 0.00938877 0)
(1.07602 0.0139163 0)
(1.06789 0.0183672 0)
(1.06278 0.0218591 0)
(1.0619 0.0242464 0)
(1.06591 0.0256452 0)
(1.07436 0.0262051 0)
(1.08339 0.0263568 0)
(1.07672 0.0254764 0)
(1.00387 0.0218992 0)
(0.791896 0.0137115 0)
(0.460726 0.00439444 0)
(0.141847 0.000632868 0)
(0.193735 0.000203821 0)
(0.551381 0.00148562 0)
(0.871003 0.000422603 0)
(1.06188 -0.000170881 0)
(1.11904 0.0019225 0)
(1.11839 0.00523452 0)
(1.10463 0.00946013 0)
(1.09158 0.0139823 0)
(1.08023 0.0187383 0)
(1.07051 0.0233584 0)
(1.06491 0.0269147 0)
(1.06475 0.0289096 0)
(1.06843 0.0294209 0)
(1.07591 0.0295719 0)
(1.08214 0.0289309 0)
(1.07152 0.0273862 0)
(0.990052 0.0230255 0)
(0.767723 0.0140292 0)
(0.439884 0.00462843 0)
(0.133176 0.000673339 0)
(0.197719 0.000655648 0)
(0.553926 0.00226748 0)
(0.871116 0.0033313 0)
(1.06373 0.00298403 0)
(1.1245 0.00559746 0)
(1.12495 0.00961053 0)
(1.1107 0.014386 0)
(1.09705 0.0192378 0)
(1.0851 0.0241467 0)
(1.07493 0.0286568 0)
(1.06764 0.0317183 0)
(1.06435 0.032751 0)
(1.06631 0.0331454 0)
(1.07373 0.0324738 0)
(1.08034 0.0318608 0)
(1.06514 0.0297055 0)
(0.971858 0.0243465 0)
(0.739571 0.0145879 0)
(0.416709 0.0049366 0)
(0.123476 0.000712739 0)
(0.204085 0.000862648 0)
(0.560652 0.00339223 0)
(0.874724 0.00572861 0)
(1.06834 0.00738214 0)
(1.13118 0.0107273 0)
(1.13235 0.0149779 0)
(1.11761 0.0201145 0)
(1.10283 0.0255587 0)
(1.08946 0.0310528 0)
(1.07719 0.035939 0)
(1.06836 0.0389422 0)
(1.06569 0.0399414 0)
(1.06821 0.0394772 0)
(1.07433 0.0383531 0)
(1.07677 0.0360572 0)
(1.05656 0.0327412 0)
(0.953781 0.026286 0)
(0.712596 0.0155657 0)
(0.394075 0.00536806 0)
(0.113658 0.000765005 0)
(0.212289 0.00103129 0)
(0.571701 0.00470296 0)
(0.882721 0.00881311 0)
(1.07517 0.0117774 0)
(1.13887 0.0161061 0)
(1.14082 0.0211844 0)
(1.12526 0.0271858 0)
(1.10946 0.0330196 0)
(1.09485 0.0387977 0)
(1.08133 0.043635 0)
(1.07068 0.0463817 0)
(1.06448 0.0464091 0)
(1.06343 0.0448045 0)
(1.06923 0.0422258 0)
(1.07261 0.0405669 0)
(1.04634 0.0363728 0)
(0.930392 0.0285693 0)
(0.680284 0.0168447 0)
(0.367733 0.00586136 0)
(0.102341 0.00082522 0)
(0.22446 0.00135373 0)
(0.589667 0.0066556 0)
(0.897128 0.0132255 0)
(1.0856 0.018082 0)
(1.14836 0.0233302 0)
(1.15013 0.0290042 0)
(1.13341 0.035768 0)
(1.11572 0.0426425 0)
(1.09854 0.0492489 0)
(1.08199 0.0545 0)
(1.06887 0.0563893 0)
(1.06316 0.0555517 0)
(1.06396 0.0533635 0)
(1.0686 0.0507584 0)
(1.06602 0.0464631 0)
(1.03321 0.0407647 0)
(0.906793 0.0315404 0)
(0.648496 0.0183576 0)
(0.341357 0.00641735 0)
(0.0907597 0.000870268 0)
(0.24007 0.00192703 0)
(0.613355 0.00851996 0)
(0.918261 0.0180024 0)
(1.10024 0.0251966 0)
(1.15972 0.0320835 0)
(1.16125 0.0390429 0)
(1.14298 0.0471912 0)
(1.12368 0.0547367 0)
(1.10464 0.0614534 0)
(1.08582 0.065784 0)
(1.07038 0.0668293 0)
(1.06109 0.0650559 0)
(1.05755 0.0616707 0)
(1.05965 0.0570527 0)
(1.0585 0.0529357 0)
(1.01746 0.0460876 0)
(0.876053 0.034823 0)
(0.609507 0.0201394 0)
(0.310058 0.00702678 0)
(0.0774002 0.000887837 0)
(0.261926 0.00278672 0)
(0.64631 0.0123315 0)
(0.94678 0.0248781 0)
(1.11949 0.0349407 0)
(1.17423 0.0431788 0)
(1.17436 0.0521329 0)
(1.15377 0.0612025 0)
(1.13156 0.0697281 0)
(1.10888 0.0769432 0)
(1.08632 0.0813897 0)
(1.06774 0.0813402 0)
(1.05756 0.0774823 0)
(1.05525 0.072716 0)
(1.05743 0.0675226 0)
(1.04759 0.0610563 0)
(0.997871 0.0519003 0)
(0.844501 0.038902 0)
(0.57072 0.022273 0)
(0.278364 0.00765105 0)
(0.0639176 0.000854285 0)
(0.293407 0.00371693 0)
(0.692461 0.0155758 0)
(0.986077 0.0332574 0)
(1.14521 0.0467584 0)
(1.19198 0.0575824 0)
(1.18979 0.0684497 0)
(1.1659 0.0791864 0)
(1.14089 0.0882908 0)
(1.11563 0.0951612 0)
(1.09019 0.0981063 0)
(1.06814 0.0959778 0)
(1.05422 0.0913785 0)
(1.04696 0.0846263 0)
(1.04486 0.0772605 0)
(1.03572 0.0699376 0)
(0.974759 0.0592812 0)
(0.803697 0.0433686 0)
(0.522044 0.0246377 0)
(0.239891 0.00812968 0)
(0.0485367 0.000763577 0)
(0.329774 0.00707038 0)
(0.750398 0.0246725 0)
(1.03463 0.0463274 0)
(1.17663 0.0639834 0)
(1.21372 0.0766291 0)
(1.20694 0.0908146 0)
(1.17816 0.102475 0)
(1.14827 0.111687 0)
(1.11743 0.117906 0)
(1.08649 0.119584 0)
(1.06135 0.116321 0)
(1.04645 0.108117 0)
(1.04094 0.0997692 0)
(1.03946 0.0913317 0)
(1.01893 0.0811798 0)
(0.945623 0.0674976 0)
(0.760561 0.0490195 0)
(0.473023 0.0273603 0)
(0.201577 0.00852028 0)
(0.0340519 0.000635567 0)
(0.409719 0.010695 0)
(0.837745 0.0357693 0)
(1.09977 0.067327 0)
(1.21579 0.0896404 0)
(1.23941 0.105161 6.4607e-34)
(1.22548 0.120901 -2.90538e-34)
(1.1901 0.132462 0)
(1.15535 0.140458 0)
(1.12067 0.144423 0)
(1.0871 0.143224 0)
(1.05824 0.135572 0)
(1.03956 0.126125 0)
(1.02885 0.1152 0)
(1.02109 0.104192 0)
(0.999899 0.0928257 0)
(0.911699 0.0767893 0)
(0.704583 0.0538074 0)
(0.408989 0.029134 0)
(0.152826 0.00822675 0)
(0.0172435 0.000724584 0)
(0.480959 0.0259498 4.81579e-20)
(0.939862 0.0595266 -3.64444e-20)
(1.17022 0.10153 0)
(1.25623 0.127896 2.80481e-20)
(1.26679 0.143205 -2.27446e-20)
(1.2433 0.161061 3.06542e-34)
(1.20099 0.17081 0)
(1.16089 0.176739 1.62626e-20)
(1.12037 0.178486 -5.33643e-20)
(1.07954 0.174327 1.08834e-20)
(1.04604 0.164381 0)
(1.02591 0.150686 -2.75332e-20)
(1.01723 0.13755 -3.29956e-20)
(1.01064 0.125555 5.77147e-20)
(0.969737 0.109923 -4.55849e-20)
(0.857339 0.0874879 0)
(0.629383 0.060005 -1.64516e-20)
(0.332124 0.0297735 0)
(0.101624 0.0080405 -9.06811e-20)
(6.49114e-05 0.000633926 1.06869e-19)
(0.517201 0.0534873 -6.29374e-21)
(1.00394 0.102621 1.09992e-19)
(1.21959 0.151503 -6.42564e-21)
(1.28942 0.175428 -6.98976e-20)
(1.29094 0.192568 -4.82157e-20)
(1.25842 0.208419 7.84217e-20)
(1.20973 0.215324 0)
(1.16397 0.218609 0)
(1.11793 0.217232 8.49489e-20)
(1.0736 0.20938 0)
(1.03713 0.196272 9.95891e-20)
(1.01204 0.181154 2.95425e-20)
(0.994751 0.166614 4.02759e-22)
(0.974576 0.14955 -6.29462e-20)
(0.931618 0.13171 0)
(0.80667 0.106503 0)
(0.565099 0.0696988 -2.68872e-19)
(0.276438 0.032539 6.75405e-19)
(0.0743019 0.00808238 -3.99388e-19)
(-0.00955923 -0.000463725 -4.70954e-19)
(0.525048 0.0761403 -6.39096e-20)
(1.04199 0.159383 2.42776e-20)
(1.25651 0.211978 1.30807e-20)
(1.31564 0.234536 1.22067e-19)
(1.30978 0.249927 1.43661e-20)
(1.26983 0.261351 -2.04637e-19)
(1.21559 0.264346 6.96551e-20)
(1.16465 0.26427 0)
(1.11358 0.259888 -1.79843e-19)
(1.06405 0.250166 1.59437e-19)
(1.0206 0.233229 -2.68873e-19)
(0.99106 0.21452 1.26027e-19)
(0.974175 0.195798 -8.1658e-20)
(0.957453 0.180749 1.83928e-19)
(0.901797 0.159778 0)
(0.767654 0.125508 -6.72885e-20)
(0.530037 0.0811619 0)
(0.264546 0.0367661 3.71482e-19)
(0.0723428 0.01023 -8.78499e-19)
(-0.0102138 -0.00167391 5.50836e-19)
(0.520414 0.107878 1.80679e-19)
(1.06131 0.215721 -7.89392e-20)
(1.27775 0.276565 -1.66881e-20)
(1.33252 0.298576 0)
(1.32161 0.312005 -9.02371e-20)
(1.27638 0.318326 1.11277e-19)
(1.21741 0.316529 -7.46313e-20)
(1.16127 0.312437 0)
(1.10453 0.303897 1.27848e-19)
(1.04825 0.288631 -1.12071e-19)
(1.00062 0.266926 2.33167e-19)
(0.969209 0.246897 0)
(0.948023 0.229483 -1.73634e-19)
(0.92182 0.207996 9.78236e-20)
(0.870061 0.184848 2.46842e-19)
(0.741283 0.149688 -2.17211e-19)
(0.514888 0.0985379 3.45008e-19)
(0.264811 0.0479743 -7.64904e-19)
(0.0812131 0.0141558 4.82883e-19)
(-0.00568865 -0.00140522 -6.03968e-19)
(0.509326 0.132172 -6.42223e-20)
(1.07002 0.27006 4.60273e-20)
(1.28909 0.342714 -5.54082e-20)
(1.34158 0.364302 1.09608e-19)
(1.32703 0.375321 -1.03069e-19)
(1.27799 0.37665 3.53389e-20)
(1.21542 0.370418 3.60814e-21)
(1.15536 0.362297 -1.45417e-19)
(1.09486 0.349838 -1.34217e-19)
(1.03576 0.330978 -2.40916e-19)
(0.986684 0.308342 -5.0149e-19)
(0.950115 0.284489 -1.54493e-19)
(0.923949 0.261443 2.29086e-21)
(0.903066 0.242284 -3.35357e-19)
(0.84498 0.217063 -5.93999e-21)
(0.715848 0.172975 3.16338e-19)
(0.502939 0.1157 -9.54339e-20)
(0.269708 0.0602956 -5.53014e-20)
(0.0932723 0.0201527 0)
(0.000998668 -9.53658e-05 1.28566e-18)
(0.492626 0.152952 0)
(1.06451 0.319498 -4.66995e-21)
(1.29123 0.405684 -9.8676e-21)
(1.3437 0.428163 -1.27843e-20)
(1.32661 0.438145 1.00007e-19)
(1.27509 0.435136 -8.21635e-20)
(1.20987 0.424504 8.15752e-20)
(1.14669 0.412014 2.38653e-19)
(1.0827 0.394961 -7.46719e-20)
(1.0189 0.371124 1.19182e-19)
(0.961326 0.342394 2.69641e-19)
(0.921992 0.315071 3.36774e-19)
(0.899334 0.293608 -2.02874e-19)
(0.8674 0.271472 3.63175e-19)
(0.815422 0.242674 -2.87816e-19)
(0.697236 0.200788 0)
(0.499334 0.137668 -7.24862e-19)
(0.281286 0.0762889 9.75563e-19)
(0.108805 0.0290834 7.28232e-20)
(0.00927923 0.00241754 -1.35984e-18)
(0.478523 0.173282 -5.10721e-21)
(1.05702 0.368009 8.61551e-21)
(1.28862 0.466839 7.21051e-20)
(1.34109 0.490205 -9.3558e-20)
(1.32189 0.498985 8.25361e-20)
(1.26853 0.492024 -7.97877e-20)
(1.20135 0.477691 1.61892e-19)
(1.13562 0.461499 -7.18466e-20)
(1.068 0.440629 -3.01539e-19)
(1.00028 0.41375 -6.75098e-23)
(0.943203 0.382978 -2.92981e-19)
(0.903463 0.353191 -3.62178e-19)
(0.872133 0.328908 2.23885e-19)
(0.850081 0.305031 -1.30691e-19)
(0.792507 0.276953 3.12801e-19)
(0.676287 0.224484 0)
(0.490471 0.159193 -4.49969e-19)
(0.287016 0.0917278 6.64555e-19)
(0.120224 0.0384456 1.25813e-18)
(0.0161497 0.005244 -1.47986e-18)
(0.464649 0.191081 -4.79528e-20)
(1.04487 0.412576 1.78917e-20)
(1.28179 0.524284 -4.98357e-20)
(1.33461 0.549056 9.69739e-20)
(1.31368 0.557411 1.19198e-20)
(1.25894 0.547215 -1.56797e-19)
(1.19014 0.529479 -9.37213e-20)
(1.12223 0.509666 -9.15286e-20)
(1.05252 0.484984 -1.69874e-19)
(0.98341 0.453633 2.73576e-19)
(0.921704 0.417164 2.96271e-19)
(0.875488 0.386093 5.74758e-19)
(0.848837 0.360977 0)
(0.814283 0.33413 6.40255e-21)
(0.764657 0.300854 -8.59049e-19)
(0.657604 0.252654 2.0071e-19)
(0.485467 0.180894 9.73237e-19)
(0.293165 0.108794 -2.87174e-19)
(0.130012 0.048398 5.97364e-19)
(0.0218661 0.00833455 -4.98172e-20)
(0.455029 0.209415 5.91076e-21)
(1.03397 0.455724 4.00243e-20)
(1.27296 0.579504 -2.26752e-20)
(1.32559 0.605847 1.09462e-19)
(1.30305 0.613236 -1.68266e-19)
(1.24714 0.599833 1.5599e-19)
(1.17713 0.579182 9.70595e-20)
(1.10776 0.5563 2.73804e-19)
(1.0358 0.528218 3.41599e-19)
(0.962182 0.493648 -3.15381e-19)
(0.89759 0.45551 0)
(0.854044 0.422309 -2.17135e-19)
(0.821541 0.392031 2.49295e-19)
(0.797003 0.365066 3.14616e-19)
(0.742491 0.33283 -1.81896e-19)
(0.637223 0.273705 -4.43952e-19)
(0.474716 0.201549 -1.32503e-19)
(0.293891 0.124094 -1.67665e-21)
(0.135358 0.0572067 0)
(0.025605 0.0109503 0)
(0.447033 0.225761 -6.62637e-20)
(1.02206 0.495926 0)
(1.26209 0.631012 -8.39036e-21)
(1.31441 0.659234 -9.50104e-21)
(1.29062 0.666242 1.90389e-19)
(1.23384 0.650252 -4.85087e-20)
(1.16289 0.626897 9.85435e-20)
(1.09215 0.600975 -1.85441e-19)
(1.01845 0.570048 2.58974e-19)
(0.943738 0.532355 -1.03103e-19)
(0.878535 0.490599 1.69613e-19)
(0.83075 0.4527 6.88277e-19)
(0.798088 0.422507 1.42573e-20)
(0.762511 0.391143 -3.27887e-19)
(0.713854 0.352175 6.07608e-19)
(0.617108 0.29962 4.10897e-21)
(0.464388 0.220646 1.41759e-19)
(0.290034 0.1378 -6.76085e-19)
(0.135295 0.0641783 6.97173e-19)
(0.0271544 0.0127308 -8.21442e-19)
(0.440506 0.243746 3.60538e-23)
(1.01085 0.534425 0)
(1.25034 0.680158 0)
(1.302 0.710374 -5.01146e-21)
(1.27706 0.71646 -5.7061e-20)
(1.21955 0.697831 7.34215e-20)
(1.14789 0.672139 -1.84336e-19)
(1.07607 0.643865 0)
(1.00045 0.610187 -3.81756e-19)
(0.922784 0.569483 4.56382e-19)
(0.853767 0.525016 4.82638e-19)
(0.804881 0.484389 -2.52625e-19)
(0.770906 0.449532 -3.05482e-19)
(0.74519 0.417557 7.16178e-19)
(0.691402 0.380674 -2.15831e-19)
(0.595235 0.315611 -2.57728e-19)
(0.448932 0.237411 -1.5425e-19)
(0.283456 0.148493 -7.29114e-19)
(0.131765 0.0692782 1.06578e-19)
(0.0269644 0.0136767 8.8646e-19)
(0.436341 0.261937 -3.38781e-20)
(1.00022 0.570865 -4.36758e-20)
(1.23775 0.725996 2.3621e-20)
(1.28862 0.758069 -1.77875e-22)
(1.26284 0.763774 -5.64867e-20)
(1.20472 0.743087 1.20126e-19)
(1.13239 0.715306 0)
(1.05952 0.684631 1.11707e-19)
(0.982805 0.648822 -8.80813e-20)
(0.904485 0.606118 7.60316e-19)
(0.833786 0.558618 -1.10023e-19)
(0.782618 0.51388 1.25138e-19)
(0.748366 0.476999 0)
(0.709754 0.440103 -3.87722e-19)
(0.66322 0.39418 4.69484e-19)
(0.57392 0.337078 0)
(0.435831 0.250731 -3.32419e-19)
(0.273772 0.157872 9.77427e-19)
(0.126538 0.0718987 1.15349e-19)
(0.0252228 0.014257 -1.09018e-18)
(0.433873 0.278876 -8.72121e-20)
(0.990324 0.605438 1.11989e-19)
(1.22503 0.769443 0)
(1.27494 0.803507 8.54559e-21)
(1.24821 0.808413 0)
(1.18951 0.785587 -1.53984e-19)
(1.11672 0.755913 0)
(1.04326 0.723445 0)
(0.965159 0.685575 -1.16046e-19)
(0.883672 0.640354 -7.22624e-19)
(0.809595 0.589365 -8.91587e-19)
(0.75629 0.542117 1.4622e-19)
(0.718647 0.500525 5.2732e-19)
(0.692433 0.461628 4.2673e-19)
(0.640921 0.418917 -1.50602e-18)
(0.552081 0.346986 -6.04317e-19)
(0.417181 0.261932 3.53887e-19)
(0.261885 0.162982 0)
(0.119362 0.0730035 9.90854e-19)
(0.0228938 0.0139773 -1.17411e-18)
(0.432282 0.294628 1.05677e-19)
(0.981067 0.638298 -1.3131e-19)
(1.21225 0.809912 0)
(1.26097 0.84566 -1.10132e-20)
(1.23354 0.850308 2.37997e-21)
(1.17439 0.825862 0)
(1.10121 0.79454 5.64632e-20)
(1.02701 0.760186 7.70226e-20)
(0.947772 0.720844 -2.18534e-19)
(0.86523 0.67428 9.58306e-20)
(0.789595 0.621213 0)
(0.733167 0.57034 6.05357e-19)
(0.695268 0.525131 4.98681e-21)
(0.656219 0.479993 2.30132e-19)
(0.612019 0.426046 2.73381e-19)
(0.52961 0.363577 0)
(0.40177 0.26906 -5.78096e-19)
(0.248902 0.166324 1.13411e-18)
(0.11177 0.0727122 -1.19934e-18)
(0.0203501 0.0133034 2.5275e-18)
(0.431037 0.30966 0)
(0.972147 0.669349 0)
(1.19973 0.848089 -6.35424e-20)
(1.24718 0.885715 0)
(1.21892 0.889701 0)
(1.15935 0.86355 -1.28239e-19)
(1.08596 0.830731 5.7767e-20)
(1.01132 0.795033 1.75908e-20)
(0.930813 0.754161 -5.00373e-20)
(0.845548 0.705648 0)
(0.766608 0.64981 -1.35543e-19)
(0.707008 0.595377 -4.93766e-19)
(0.664997 0.545038 -5.94545e-19)
(0.637499 0.496543 -2.3899e-19)
(0.589168 0.446331 2.96052e-19)
(0.507255 0.366017 -6.97872e-19)
(0.381336 0.273877 1.24377e-18)
(0.235831 0.166179 2.27258e-21)
(0.104152 0.0713796 -1.1491e-18)
(0.0181752 0.0124499 -1.70389e-19)
(0.429963 0.324233 0)
(0.96399 0.699254 -1.08057e-19)
(1.18751 0.883759 7.84927e-20)
(1.23348 0.92278 0)
(1.20464 0.92659 0)
(1.14479 0.899174 2.57402e-19)
(1.07115 0.865096 0)
(0.99583 0.827934 0)
(0.914212 0.786074 -4.78669e-19)
(0.827522 0.736903 1.32037e-19)
(0.745715 0.679829 -1.20141e-18)
(0.683216 0.621809 0)
(0.640993 0.567678 -6.44812e-19)
(0.599505 0.512245 1.06216e-20)
(0.558094 0.445908 -9.51002e-19)
(0.483561 0.376064 3.75498e-19)
(0.366562 0.272788 1.5437e-21)
(0.224124 0.16352 -1.30927e-18)
(0.0980124 0.0685455 6.18792e-19)
(0.0155623 0.0109368 1.82274e-19)
(0.428926 0.338449 0)
(0.956008 0.727291 -1.51701e-19)
(1.17565 0.917323 8.30215e-20)
(1.22023 0.957961 1.04275e-19)
(1.19066 0.961165 -1.34926e-20)
(1.13047 0.932403 2.57973e-20)
(1.05674 0.897181 -3.49571e-20)
(0.981123 0.859088 4.6061e-19)
(0.89843 0.816175 5.1204e-19)
(0.80943 0.765614 1.00602e-18)
(0.725075 0.706854 9.98231e-19)
(0.658402 0.645938 1.75346e-19)
(0.608709 0.58596 9.27742e-19)
(0.578439 0.524623 5.72822e-19)
(0.532744 0.461675 6.82701e-19)
(0.460262 0.36815 -4.10896e-19)
(0.346372 0.26707 -4.77712e-19)
(0.216003 0.154449 5.60421e-19)
(0.0976156 0.0704816 -3.32042e-19)
(0.0192248 0.0170394 5.89802e-19)
(0.428012 0.352213 2.14988e-19)
(0.948853 0.754422 2.37387e-19)
(1.16418 0.948794 4.86217e-20)
(1.20721 0.990448 1.61662e-20)
(1.17719 0.993507 1.0005e-20)
(1.11683 0.963761 -7.14492e-20)
(1.043 0.927623 3.37095e-20)
(0.96688 0.888463 -2.02389e-20)
(0.883266 0.844958 -5.9524e-19)
(0.792845 0.794377 -1.09162e-18)
(0.704493 0.73482 6.93157e-20)
(0.633942 0.670676 0)
(0.584641 0.608188 0)
(0.53695 0.540173 -2.9861e-19)
(0.496419 0.453464 -1.11661e-18)
(0.43315 0.367986 8.85066e-19)
(0.338055 0.247002 5.22469e-19)
(0.223391 0.135885 0)
(0.111289 0.0444046 1.06125e-18)
(0.0128547 -0.00843824 -6.29821e-19)
(0.427114 0.365425 -1.13979e-19)
(0.941661 0.779478 1.00912e-19)
(1.15308 0.97829 -1.1759e-19)
(1.19478 1.02127 -9.38072e-20)
(1.16413 1.02371 -1.24386e-20)
(1.10354 0.992904 -2.28139e-20)
(1.02977 0.955949 0)
(0.953541 0.916234 -5.78492e-19)
(0.869033 0.872089 7.30644e-20)
(0.776422 0.820557 0)
(0.68598 0.760363 0)
(0.610501 0.695893 1.11722e-19)
(0.549699 0.627123 1.50091e-19)
(0.511935 0.550144 -3.22324e-19)
(0.464615 0.467725 8.01555e-19)
(0.400285 0.345028 -9.64382e-19)
(0.310893 0.22416 -1.11768e-18)
(0.231821 0.116994 9.89647e-19)
(0.16826 0.086739 -3.77725e-19)
(0.113107 0.0796064 2.1983e-19)
(0.426238 0.37784 1.43867e-19)
(0.935236 0.803805 0)
(1.14239 1.006 0)
(1.18263 1.04965 -2.55524e-20)
(1.15166 1.05197 2.06867e-20)
(1.09105 1.02039 -2.06995e-20)
(1.01734 0.982806 1.49254e-19)
(0.940747 0.942353 5.92225e-19)
(0.855438 0.897895 1.07938e-18)
(0.761712 0.846809 -8.20262e-20)
(0.667263 0.786726 1.69444e-19)
(0.58705 0.719427 -9.98907e-19)
(0.527006 0.650209 -9.9491e-19)
(0.465841 0.569871 -1.72913e-19)
(0.414416 0.455247 0)
(0.35871 0.343583 -6.91757e-21)
(0.286428 0.155867 6.15382e-19)
(0.260505 0.0157815 -1.0359e-18)
(0.223517 -0.0906783 7.87558e-19)
(0.0850435 -0.0968257 6.52912e-19)
(0.425219 0.389843 -3.18177e-19)
(0.928516 0.825966 -1.43762e-19)
(1.13197 1.03196 6.98273e-21)
(1.17103 1.0768 5.5475e-20)
(1.13952 1.07856 0)
(1.07873 1.0462 -7.40769e-20)
(1.00514 1.00814 -2.14468e-19)
(0.928501 0.96754 -1.70058e-21)
(0.842468 0.922895 -5.65556e-19)
(0.746654 0.871357 -8.0469e-20)
(0.65023 0.811481 7.47414e-20)
(0.565082 0.74699 8.77467e-19)
(0.489053 0.673416 9.70955e-19)
(0.435572 0.581136 1.68303e-19)
(0.375208 0.4798 8.60363e-19)
(0.289763 0.311371 0)
(0.170288 0.141581 0)
(0.00214908 0.202457 7.1305e-19)
(-0.0778054 0.629968 -2.95351e-20)
(0.00721955 1.53712 -8.78178e-19)
(0.424252 0.401139 1.75966e-19)
(0.922636 0.847897 4.02212e-19)
(1.12194 1.05669 -5.50019e-19)
(1.15958 1.10211 2.74007e-19)
(1.12777 1.10399 -6.60924e-21)
(1.06698 1.07123 -2.73079e-20)
(0.993445 1.03299 0)
(0.916454 0.992184 -4.93574e-19)
(0.829703 0.947861 0)
(0.732929 0.897474 1.13367e-18)
(0.632202 0.838813 -9.08517e-20)
(0.541366 0.772638 1.01871e-19)
(0.467964 0.70173 1.11079e-18)
(0.382063 0.616982 -3.6488e-19)
(0.283766 0.474239 -4.37884e-19)
(0.195826 0.366755 0)
(0.0865729 0.499636 0)
(0.025993 1.33293 0)
(0.0724514 2.46338 -4.05032e-19)
(0.0997959 2.91084 -2.49333e-19)
(0.422905 0.411865 0)
(0.916311 0.867469 0)
(1.11216 1.07975 2.00871e-19)
(1.14874 1.12645 -2.22322e-19)
(1.11639 1.12798 9.69573e-20)
(1.0554 1.09481 3.4044e-20)
(0.98196 1.05655 2.76017e-20)
(0.905014 1.01618 -2.14899e-20)
(0.817767 0.972402 7.96566e-20)
(0.718866 0.922362 -1.30104e-18)
(0.616131 0.864819 1.6472e-19)
(0.521412 0.8047 8.75931e-19)
(0.427263 0.734404 -1.10668e-18)
(0.348987 0.631655 -1.2146e-18)
(0.266883 0.534981 4.08867e-19)
(0.189651 0.670449 0)
(0.121474 1.56016 5.65646e-19)
(0.123039 2.69388 6.19887e-19)
(0.131082 3.08816 -6.9301e-19)
(0.122798 3.22231 7.43829e-19)
(0.421649 0.4223 0)
(0.910908 0.887059 3.5719e-19)
(1.10281 1.10176 -5.03362e-20)
(1.13808 1.149 3.13771e-19)
(1.10545 1.1509 -1.01773e-19)
(1.04451 1.11766 0)
(0.971167 1.07958 0)
(0.893938 1.03945 0)
(0.80605 0.99655 4.4893e-19)
(0.706507 0.948385 6.00674e-20)
(0.600021 0.893175 0)
(0.498719 0.832122 -8.71165e-19)
(0.413784 0.766309 0)
(0.298417 0.680886 8.69327e-19)
(0.204672 0.744944 -5.85895e-19)
(0.153821 1.46257 -4.71311e-19)
(0.156246 2.68164 -1.10152e-18)
(0.178198 3.12676 -5.80746e-19)
(0.169014 3.26718 -7.88447e-19)
(0.155177 3.30743 5.93437e-19)
(0.420118 0.431755 -1.25e-19)
(0.904938 0.904111 1.54183e-20)
(1.09368 1.12214 -5.61377e-20)
(1.12809 1.17077 -2.42212e-19)
(1.09493 1.17248 0)
(1.03381 1.13915 0)
(0.960565 1.10138 0)
(0.883465 1.06211 3.44221e-20)
(0.795319 1.0203 -5.67457e-19)
(0.693922 0.973308 0)
(0.585898 0.920283 0)
(0.484171 0.867355 0)
(0.371807 0.802351 0)
(0.305726 0.772946 6.35119e-19)
(0.270589 1.16251 1.56142e-18)
(0.247659 2.38606 4.62126e-19)
(0.261608 3.08309 9.31198e-19)
(0.256199 3.28271 -7.13774e-19)
(0.207449 3.34838 2.6369e-19)
(0.175028 3.36112 0)
(0.418712 0.440961 1.28804e-19)
(0.899807 0.922034 -7.94542e-19)
(1.08479 1.14227 -2.13151e-19)
(1.118 1.19141 -4.67482e-20)
(1.08462 1.19373 2.36517e-20)
(1.02361 1.16057 -7.9212e-20)
(0.950531 1.12323 -3.17949e-21)
(0.873214 1.08446 -3.84575e-19)
(0.784513 1.04388 0)
(0.682984 0.999326 -7.60295e-20)
(0.572615 0.949652 6.91635e-20)
(0.464331 0.895119 0)
(0.374961 0.844226 0)
(0.320028 0.960875 -7.94846e-19)
(0.272632 1.85518 9.81334e-20)
(0.268909 2.94367 -3.46905e-19)
(0.291659 3.2868 7.24664e-19)
(0.263945 3.38521 5.25045e-19)
(0.198473 3.40965 -7.13287e-19)
(0.173745 3.41925 3.53619e-19)
(0.416686 0.450382 2.53668e-19)
(0.893304 0.938511 7.7539e-19)
(1.07527 1.16239 2.55807e-19)
(1.10782 1.21304 0)
(1.07397 1.21515 0)
(1.01287 1.18191 6.18683e-20)
(0.939979 1.14497 7.01386e-20)
(0.862996 1.10721 3.42948e-19)
(0.774469 1.06796 2.22624e-20)
(0.671672 1.02512 9.73015e-19)
(0.560598 0.978085 -1.14853e-18)
(0.449489 0.929614 0)
(0.372495 0.92342 0)
(0.333915 1.32914 -5.41662e-19)
(0.334396 2.48943 -6.51148e-19)
(0.377752 3.19772 0)
(0.402235 3.36867 -7.32377e-19)
(0.33224 3.43138 4.94053e-20)
(0.262949 3.4762 3.43158e-19)
(0.240487 3.5015 -1.13001e-19)
(0.414595 0.460156 -4.83066e-19)
(0.887284 0.958093 -3.72545e-19)
(1.0651 1.18414 0)
(1.09647 1.23499 0)
(1.06256 1.23776 0)
(1.00178 1.2046 0)
(0.929293 1.16795 -8.24843e-20)
(0.852343 1.13055 3.01638e-19)
(0.763568 1.09252 0)
(0.661463 1.05224 -8.85992e-19)
(0.549866 1.00881 2.05993e-18)
(0.440036 0.96913 8.40291e-20)
(0.390087 1.04385 1.1186e-19)
(0.386436 1.749 8.82933e-19)
(0.400301 2.9012 -4.74731e-19)
(0.438317 3.31948 0)
(0.421554 3.44241 2.05063e-19)
(0.336059 3.53077 9.17397e-20)
(0.260688 3.59452 1.49924e-19)
(0.185354 3.57397 -1.3007e-20)
(0.411586 0.47042 2.30044e-19)
(0.879032 0.975884 -3.8148e-19)
(1.05377 1.20619 0)
(1.08469 1.25865 -6.83741e-20)
(1.0504 1.26085 2.34211e-19)
(0.989662 1.22732 0)
(0.917626 1.19091 0)
(0.84142 1.15446 -5.23702e-19)
(0.753472 1.11767 -5.68576e-20)
(0.650925 1.07915 8.68804e-19)
(0.536202 1.03787 -9.78994e-19)
(0.446701 1.01746 5.70828e-19)
(0.407664 1.22999 0)
(0.42237 2.18744 -4.68182e-19)
(0.465103 3.14553 3.07066e-19)
(0.52872 3.42273 1.92239e-19)
(0.52069 3.5189 0)
(0.457926 3.60029 -3.80217e-20)
(0.387994 3.64114 -4.13055e-19)
(0.307369 3.61271 -9.67536e-20)
(0.408502 0.480858 -4.59434e-19)
(0.871535 0.998028 5.46507e-19)
(1.04169 1.23034 3.77433e-19)
(1.07143 1.28244 -9.35631e-20)