/*--------------------------------*- C++ -*----------------------------------*\
  =========                 |
  \\      /  F ield         | OpenFOAM: The Open Source CFD Toolbox
   \\    /   O peration     | Website:  https://openfoam.org
    \\  /    A nd           | Version:  9
     \\/     M anipulation  |
\*---------------------------------------------------------------------------*/
FoamFile
{
    format      ascii;
    class       volScalarField;
    location    "42";
    object      p;
}
// * * * * * * * * * * * * * * * * * * * * * * * * * * * * * * * * * * * * * //

dimensions      [0 2 -2 0 0 0 0];

internalField   nonuniform List<scalar> 
2200
(
0.788191
0.766691
0.75078
0.735105
0.720488
0.707957
0.697585
0.689464
0.683742
0.680743
0.681175
0.684948
0.691234
0.699761
0.710417
0.723162
0.737931
0.753812
0.769833
0.791337
0.720614
0.717353
0.714427
0.710308
0.704842
0.698363
0.691736
0.685759
0.681223
0.678775
0.679208
0.682464
0.6876
0.694021
0.700973
0.707697
0.713338
0.717454
0.720333
0.723676
0.680718
0.680936
0.682991
0.684326
0.684704
0.683836
0.681838
0.679138
0.676559
0.675024
0.675513
0.677903
0.681142
0.684337
0.68666
0.687671
0.687396
0.686346
0.684634
0.684392
0.658272
0.659723
0.662309
0.664748
0.667179
0.669183
0.670314
0.670518
0.670111
0.66978
0.670345
0.671646
0.672788
0.673134
0.672416
0.670726
0.668549
0.666337
0.663742
0.662329
0.643929
0.6459
0.648714
0.651551
0.654404
0.657223
0.659661
0.661495
0.662678
0.663424
0.664078
0.664469
0.664164
0.662996
0.66109
0.658673
0.656091
0.653354
0.650566
0.648638
0.636633
0.638229
0.64043
0.642954
0.645604
0.648247
0.650807
0.653192
0.655154
0.656582
0.657355
0.657292
0.656399
0.654821
0.652876
0.650694
0.648343
0.645988
0.643881
0.642304
0.633311
0.634333
0.635596
0.637444
0.639565
0.641698
0.643846
0.646073
0.648221
0.649973
0.650892
0.6508
0.649933
0.648666
0.647223
0.645633
0.643905
0.64231
0.641183
0.640165
0.630736
0.631408
0.632032
0.633319
0.634913
0.636575
0.638287
0.64015
0.642131
0.643986
0.645099
0.645278
0.644848
0.644144
0.643286
0.642269
0.641161
0.640199
0.639734
0.639059
0.627568
0.628012
0.628409
0.629399
0.63065
0.63201
0.633464
0.635064
0.636813
0.638641
0.640002
0.640636
0.640773
0.640601
0.640221
0.639663
0.63901
0.638424
0.638209
0.637749
0.623638
0.623931
0.624288
0.625163
0.626278
0.627539
0.628932
0.630458
0.632133
0.633969
0.635636
0.636777
0.637403
0.637649
0.637593
0.637331
0.636943
0.636549
0.636389
0.636073
0.619149
0.619353
0.619722
0.620542
0.621621
0.622911
0.624408
0.626096
0.62796
0.63003
0.632081
0.633676
0.634654
0.63514
0.635284
0.635187
0.634952
0.634678
0.634531
0.634304
0.61413
0.614276
0.614653
0.615476
0.61663
0.618064
0.619768
0.62173
0.623953
0.626458
0.628968
0.630932
0.632188
0.63287
0.633179
0.633249
0.63314
0.632982
0.632864
0.632687
0.608713
0.608811
0.609186
0.610024
0.611278
0.612893
0.614846
0.617132
0.619788
0.622824
0.625909
0.628347
0.629945
0.6309
0.631393
0.631601
0.631668
0.631642
0.631563
0.631421
0.603034
0.603089
0.603472
0.604321
0.605643
0.60739
0.609572
0.612251
0.61544
0.61916
0.62295
0.625971
0.628001
0.629305
0.630106
0.630545
0.630803
0.630891
0.630856
0.630736
0.596935
0.596969
0.597377
0.598258
0.599697
0.601624
0.604058
0.607121
0.610953
0.615508
0.620135
0.623827
0.626404
0.628179
0.629402
0.630194
0.630678
0.630899
0.630915
0.630797
0.590241
0.590187
0.590609
0.591589
0.593251
0.595413
0.598154
0.601642
0.606055
0.611471
0.617132
0.621795
0.625214
0.627691
0.629437
0.630585
0.631287
0.631644
0.631712
0.631594
0.582772
0.582756
0.583161
0.584232
0.586118
0.588601
0.591772
0.595792
0.600919
0.607339
0.614309
0.6203
0.624732
0.627935
0.630224
0.631765
0.632729
0.633237
0.633358
0.633245
0.574405
0.574411
0.574831
0.576018
0.578224
0.581136
0.584935
0.58983
0.596066
0.603856
0.612389
0.619726
0.625239
0.629231
0.632049
0.633991
0.635251
0.635903
0.636072
0.63596
0.564739
0.564691
0.565238
0.566718
0.569278
0.572777
0.577474
0.583604
0.591416
0.601082
0.611439
0.620198
0.62667
0.631403
0.634881
0.637354
0.638944
0.63976
0.639994
0.639877
0.553247
0.553147
0.553793
0.555637
0.558784
0.563084
0.568837
0.576364
0.586031
0.597933
0.610514
0.621047
0.628865
0.634749
0.639071
0.642079
0.644034
0.645035
0.645327
0.645191
0.539729
0.539593
0.540312
0.542437
0.54618
0.551418
0.55848
0.567686
0.579463
0.593936
0.609231
0.622077
0.63182
0.639015
0.644274
0.648079
0.650543
0.651778
0.65214
0.65197
0.523054
0.522956
0.52391
0.526476
0.531062
0.537605
0.546455
0.557962
0.572517
0.590139
0.608573
0.624028
0.635662
0.644406
0.650898
0.655576
0.658607
0.660084
0.6605
0.660284
0.502152
0.501986
0.503266
0.506681
0.512693
0.521284
0.532809
0.547594
0.565811
0.587258
0.609161
0.627359
0.641031
0.651284
0.658952
0.66457
0.668192
0.669895
0.670353
0.670078
0.474769
0.474778
0.476847
0.481687
0.49002
0.501789
0.517154
0.536218
0.558939
0.584934
0.610842
0.63201
0.647804
0.659706
0.668675
0.675142
0.679261
0.681146
0.681614
0.681288
0.438052
0.438314
0.441861
0.449598
0.461866
0.478513
0.499095
0.523501
0.551535
0.582706
0.613049
0.637511
0.655723
0.669447
0.679739
0.687204
0.691835
0.69385
0.694292
0.693888
0.388692
0.389124
0.396146
0.409104
0.427745
0.45143
0.478906
0.509891
0.544127
0.581059
0.616186
0.644092
0.664755
0.680377
0.692208
0.700687
0.705711
0.707698
0.707965
0.707562
0.322894
0.32577
0.341008
0.362329
0.389861
0.422273
0.457777
0.49622
0.537407
0.580764
0.621289
0.65326
0.677113
0.69527
0.708996
0.718971
0.724694
0.726724
0.726808
0.726615
0.247803
0.257452
0.282867
0.314036
0.351656
0.3931
0.436794
0.483039
0.531637
0.582024
0.628655
0.665539
0.693034
0.714122
0.730397
0.742043
0.748522
0.750368
0.750341
0.750417
0.180707
0.19566
0.227487
0.267459
0.314594
0.364933
0.416633
0.470608
0.526504
0.583633
0.636065
0.677454
0.708528
0.732317
0.750409
0.763426
0.770637
0.773146
0.773583
0.773597
0.129727
0.143143
0.180275
0.226259
0.280644
0.338385
0.397462
0.45868
0.521463
0.585194
0.643371
0.688891
0.72291
0.748894
0.768657
0.783225
0.790798
0.793665
0.794055
0.794126
0.0875331
0.100153
0.140984
0.190882
0.250692
0.314298
0.37977
0.447512
0.516682
0.586628
0.649761
0.699154
0.735803
0.763591
0.784561
0.79979
0.808036
0.811263
0.811751
0.811864
0.0512085
0.0640409
0.107468
0.160273
0.224396
0.292731
0.363606
0.436945
0.511664
0.586975
0.655207
0.708158
0.746916
0.77611
0.798067
0.813637
0.822282
0.825878
0.826497
0.826608
0.0194829
0.0324927
0.0779158
0.133261
0.200982
0.273246
0.348659
0.426805
0.506635
0.587402
0.660355
0.715892
0.756459
0.786802
0.809038
0.824893
0.834068
0.837857
0.838645
0.83873
-0.00902173
0.00402641
0.0511368
0.108869
0.179703
0.255303
0.334644
0.417077
0.501529
0.58693
0.663297
0.721982
0.764237
0.795278
0.818179
0.834284
0.843784
0.847859
0.84875
0.84882
-0.0350123
-0.0220032
0.0263537
0.0863807
0.159901
0.238432
0.321214
0.407368
0.495763
0.585303
0.666106
0.727479
0.770847
0.802879
0.826194
0.842428
0.852419
0.856462
0.857482
0.857427
-0.0594235
-0.0461243
0.0031178
0.0652785
0.141163
0.22227
0.308012
0.397386
0.489533
0.583378
0.668061
0.7316
0.777058
0.809769
0.833605
0.850033
0.859626
0.863897
0.86478
0.864597
-0.0823733
-0.0688027
-0.0188802
0.0451518
0.123094
0.206521
0.294924
0.387287
0.482926
0.580438
0.668572
0.735774
0.782823
0.816336
0.840353
0.856713
0.866277
0.870365
0.871364
0.871242
-0.103977
-0.0904352
-0.0398086
0.0258105
0.105516
0.191042
0.281864
0.376913
0.475552
0.576659
0.669117
0.73944
0.788219
0.822763
0.846859
0.86316
0.872524
0.876571
0.877452
0.877375
-0.124661
-0.111014
-0.0598415
0.00709092
0.0882897
0.175694
0.268668
0.36608
0.467507
0.572204
0.668553
0.741912
0.793477
0.829172
0.853558
0.869621
0.878783
0.88255
0.88339
0.883283
-0.144917
-0.130724
-0.0791387
-0.0111044
0.0713536
0.160394
0.255282
0.354883
0.459005
0.567023
0.667278
0.744436
0.798656
0.835828
0.860736
0.87646
0.884973
0.888461
0.889064
0.888956
-0.164829
-0.149826
-0.0978702
-0.0288522
0.0546802
0.145146
0.241754
0.343412
0.45005
0.561094
0.66491
0.746027
0.803464
0.843039
0.868662
0.883812
0.891487
0.894077
0.894488
0.894338
-0.184294
-0.168509
-0.116136
-0.0461924
0.0382796
0.129999
0.228157
0.331678
0.440494
0.554148
0.661509
0.746875
0.808159
0.850568
0.877673
0.892324
0.898366
0.899481
0.899438
0.899313
-0.203168
-0.186805
-0.133953
-0.0631238
0.0221852
0.114997
0.214498
0.319614
0.430301
0.546376
0.657183
0.746442
0.811981
0.858469
0.888136
0.90279
0.906707
0.904486
0.903798
0.904603
-0.22142
-0.204636
-0.151273
-0.0796118
0.00644249
0.100175
0.200783
0.30725
0.419661
0.537969
0.651519
0.744687
0.815155
0.866348
0.900084
0.916194
0.918318
0.911896
0.906522
0.904819
-0.239025
-0.221898
-0.168021
-0.0956085
-0.00890468
0.0855805
0.187085
0.294707
0.408653
0.528772
0.644448
0.741449
0.81667
0.873822
0.913287
0.933329
0.937923
0.925479
0.923452
0.927785
-0.255987
-0.238514
-0.184138
-0.111064
-0.0238014
0.071292
0.173515
0.28209
0.397269
0.518818
0.636461
0.736546
0.816413
0.879773
0.926728
0.953893
0.964307
0.936465
0.894298
0.856511
-0.272243
-0.254492
-0.199655
-0.126044
-0.038344
0.0572063
0.159958
0.269215
0.385247
0.507963
0.627292
0.729439
0.813255
0.883016
0.939004
0.977362
1.00206
0.989974
1.0068
1.06255
-0.287753
-0.269885
-0.214672
-0.140688
-0.0527027
0.0431114
0.146143
0.255742
0.372231
0.495758
0.616179
0.719625
0.806181
0.880766
0.941712
0.984089
1.00221
0.986304
0.947851
0.960656
-0.302488
-0.284669
-0.229144
-0.15494
-0.0668
0.0291031
0.132194
0.241848
0.358437
0.482247
0.60304
0.706829
0.793393
0.868651
0.929456
0.97017
0.963714
0.913849
0.851661
0.839959
-0.316444
-0.298838
-0.243075
-0.168802
-0.0806359
0.0151794
0.118125
0.227577
0.343908
0.467431
0.587883
0.69078
0.774894
0.844979
0.89941
0.912739
0.880627
0.806625
0.733422
0.713789
-0.329656
-0.312384
-0.256474
-0.182296
-0.0942398
0.00132089
0.103942
0.212963
0.328681
0.451315
0.570608
0.671233
0.749476
0.80757
0.837415
0.82735
0.773814
0.673771
0.587353
0.566701
-0.34258
-0.325717
-0.269744
-0.195796
-0.107969
-0.0127855
0.0893732
0.197763
0.312527
0.433701
0.550937
0.647728
0.718786
0.761023
0.756829
0.723773
0.616485
0.495581
0.389177
0.363384
-0.356112
-0.339624
-0.283576
-0.209929
-0.122405
-0.0276305
0.0739975
0.181618
0.295177
0.414406
0.528705
0.620076
0.683987
0.702848
0.669009
0.583793
0.429286
0.277852
0.149818
0.123311
-0.370778
-0.354522
-0.298306
-0.224937
-0.137727
-0.0433462
0.0577137
0.164458
0.276607
0.393423
0.503766
0.589216
0.642314
0.633927
0.580505
0.432772
0.233355
0.0211189
-0.158563
-0.205929
-0.386682
-0.370494
-0.313977
-0.240836
-0.153917
-0.0599111
0.0405426
0.146315
0.256891
0.370876
0.476129
0.556177
0.59452
0.554575
0.467287
0.279424
0.0473093
-0.242316
-0.564787
-0.710965
-0.403908
-0.387643
-0.330723
-0.257718
-0.171022
-0.0773836
0.0224228
0.127131
0.235977
0.346847
0.446291
0.52052
0.54112
0.470185
0.334259
0.127413
-0.108712
-0.45493
-1.04546
-1.61937
-0.422526
-0.406049
-0.348592
-0.275632
-0.189068
-0.0957595
0.00339343
0.106994
0.214042
0.321729
0.41521
0.481919
0.484912
0.395879
0.20518
-0.0309531
-0.236575
-0.475045
-1.03817
-2.57056
-0.442554
-0.4258
-0.367711
-0.294714
-0.208203
-0.115227
-0.0167717
0.0856359
0.190752
0.295143
0.382693
0.43993
0.423438
0.337115
0.110476
-0.130662
-0.281488
-0.321748
-0.316015
-0.707981
-0.463911
-0.447035
-0.388216
-0.315243
-0.228835
-0.13628
-0.0386853
0.0623028
0.165165
0.265635
0.347688
0.394853
0.362692
0.28888
0.060024
-0.146459
-0.259776
-0.269097
-0.216986
-0.25813
-0.486458
-0.469643
-0.410138
-0.337297
-0.251024
-0.159027
-0.0624845
0.0368393
0.137081
0.233116
0.310593
0.347791
0.308583
0.236454
0.0268395
-0.138067
-0.221356
-0.228934
-0.276671
-0.282074
-0.510159
-0.493392
-0.433335
-0.360842
-0.274767
-0.183494
-0.088205
0.0092131
0.106514
0.197946
0.270758
0.298954
0.261382
0.176712
-0.000712559
-0.12837
-0.200707
-0.174148
-0.195811
-0.197509
-0.534826
-0.517879
-0.457763
-0.385814
-0.299896
-0.209575
-0.115748
-0.0204555
0.0736103
0.160535
0.228892
0.246811
0.219946
0.109054
-0.035426
-0.123021
-0.167031
-0.210107
-0.186049
-0.194165
-0.560099
-0.542784
-0.48322
-0.411977
-0.326194
-0.237118
-0.144925
-0.0519287
0.0385351
0.121116
0.185329
0.193207
0.177439
0.0473031
-0.072747
-0.138776
-0.122944
-0.182159
-0.160812
-0.165726
-0.585225
-0.567684
-0.509591
-0.438996
-0.353302
-0.265831
-0.17541
-0.0848575
0.00153708
0.0801833
0.141645
0.14175
0.126556
-0.00558623
-0.101703
-0.155486
-0.138224
-0.159883
-0.164074
-0.163323
-0.609677
-0.59231
-0.535984
-0.466072
-0.380893
-0.29536
-0.206791
-0.118787
-0.0367746
0.0381307
0.0980859
0.0936604
0.0699272
-0.0514243
-0.119111
-0.151944
-0.181377
-0.161758
-0.168045
-0.164168
-0.632603
-0.615938
-0.561453
-0.492453
-0.408552
-0.325089
-0.238466
-0.153115
-0.0754954
-0.00480671
0.05438
0.0481908
0.0143496
-0.0903164
-0.138787
-0.130274
-0.194392
-0.155571
-0.166507
-0.159923
-0.653193
-0.637643
-0.58494
-0.517106
-0.435825
-0.354243
-0.269727
-0.187136
-0.11355
-0.0478716
0.0104743
0.0049061
-0.0354638
-0.111784
-0.159467
-0.126463
-0.180483
-0.146726
-0.151329
-0.148751
-0.67007
-0.656093
-0.60579
-0.539627
-0.461635
-0.381738
-0.29962
-0.219969
-0.149837
-0.0902341
-0.0331186
-0.0392003
-0.0785002
-0.117851
-0.152279
-0.143922
-0.146183
-0.144915
-0.143302
-0.141388
-0.682241
-0.67029
-0.622902
-0.558996
-0.484372
-0.406639
-0.327219
-0.250561
-0.183366
-0.130333
-0.0748967
-0.0823238
-0.125375
-0.118192
-0.103364
-0.107221
-0.11083
-0.140415
-0.142094
-0.145184
-0.688467
-0.678826
-0.63534
-0.574177
-0.502632
-0.427699
-0.351253
-0.277612
-0.212878
-0.165881
-0.111666
-0.123413
-0.185185
-0.160179
-0.0619924
-0.0799718
-0.0878103
-0.118313
-0.132147
-0.142793
-0.688396
-0.680838
-0.641383
-0.583472
-0.515332
-0.443675
-0.370403
-0.299591
-0.237265
-0.19399
-0.142964
-0.155632
-0.249993
-0.314021
-0.304868
-0.371738
-0.37343
-0.351543
-0.337528
-0.329537
-0.681092
-0.673818
-0.639388
-0.585801
-0.52148
-0.453351
-0.383278
-0.314779
-0.253764
-0.211407
-0.167238
-0.176352
-0.328792
-0.583006
-0.923848
-1.09655
-1.14212
-1.10008
-1.00653
-0.931793
-0.662278
-0.654406
-0.62698
-0.579635
-0.520173
-0.455921
-0.388902
-0.321822
-0.259707
-0.214565
-0.175092
-0.169511
-0.339719
-0.643133
-1.00769
-1.15132
-1.14869
-1.05153
-0.972339
-0.92781
-0.624505
-0.617252
-0.602856
-0.565164
-0.511305
-0.450897
-0.386703
-0.319347
-0.252689
-0.198999
-0.153722
-0.10681
-0.11325
-0.130976
-0.188437
-0.150396
-0.0595645
0.0190901
0.102967
0.174736
-0.579542
-0.575944
-0.572508
-0.54338
-0.496811
-0.439999
-0.377017
-0.30795
-0.233626
-0.160558
-0.092896
0.0331891
0.211157
0.507331
0.769306
1.00019
1.18778
1.30079
1.35518
1.37838
-0.550505
-0.551043
-0.543887
-0.522168
-0.481167
-0.426054
-0.361529
-0.289593
-0.205808
-0.108928
-0.00523542
0.152224
0.424012
0.825729
1.21987
1.5466
1.76678
1.89241
1.94724
1.9656
-0.518639
-0.519775
-0.51301
-0.503604
-0.467796
-0.413137
-0.345238
-0.269299
-0.180017
-0.0721841
0.0455308
0.175272
0.447128
0.791048
1.12859
1.42002
1.63528
1.76489
1.82401
1.84137
-0.489837
-0.488452
-0.487568
-0.485326
-0.454986
-0.401761
-0.331765
-0.251901
-0.161846
-0.0545907
0.0593437
0.149648
0.376139
0.663067
0.937195
1.17722
1.36913
1.48684
1.53982
1.55389
-0.479768
-0.477086
-0.480309
-0.474966
-0.447531
-0.391807
-0.319993
-0.23924
-0.152729
-0.056346
0.0494643
0.111061
0.281961
0.517154
0.733884
0.918655
1.06847
1.16223
1.20347
1.21414
-0.473068
-0.472033
-0.477781
-0.473723
-0.445224
-0.382732
-0.309287
-0.22985
-0.149031
-0.0675433
0.0308348
0.0786549
0.196128
0.383409
0.553891
0.690781
0.798825
0.869485
0.90085
0.90802
-0.451081
-0.45172
-0.457663
-0.454874
-0.426682
-0.363624
-0.293246
-0.21828
-0.144434
-0.0770353
0.0127255
0.056559
0.129509
0.272244
0.404626
0.506232
0.584382
0.635847
0.657229
0.663097
-0.394442
-0.396175
-0.403185
-0.399815
-0.374352
-0.322669
-0.26403
-0.199336
-0.133775
-0.0792039
-0.00107449
0.040791
0.0856409
0.192673
0.291623
0.365253
0.421102
0.458737
0.473433
0.478795
-0.300166
-0.303087
-0.306438
-0.305238
-0.288216
-0.255471
-0.215823
-0.168766
-0.114692
-0.0725908
-0.0093019
0.028819
0.0580923
0.139469
0.210381
0.261364
0.30142
0.329962
0.341179
0.344164
-0.193811
-0.195725
-0.197569
-0.197875
-0.190556
-0.175536
-0.15479
-0.126689
-0.089483
-0.0588933
-0.0120628
0.0196871
0.0405837
0.104486
0.153786
0.187924
0.216031
0.234063
0.242351
0.24481
-0.0992383
-0.100358
-0.10225
-0.104757
-0.105049
-0.102352
-0.0955655
-0.0825759
-0.061805
-0.0416741
-0.0105065
0.013424
0.0285837
0.0781431
0.112403
0.135665
0.153172
0.16321
0.16704
0.167689
-0.0297585
-0.0305751
-0.032228
-0.0362874
-0.0416049
-0.046085
-0.047688
-0.0446838
-0.0358999
-0.0253074
-0.00645864
0.0108919
0.0226117
0.056034
0.07943
0.0947665
0.104507
0.108886
0.109381
0.10854
0.0136942
0.01309
0.0115746
0.00673263
-0.00116445
-0.00916615
-0.0151153
-0.017727
-0.0157909
-0.0121926
-0.00171076
0.00966421
0.018771
0.039194
0.0532201
0.0619106
0.0664463
0.0672769
0.0659897
0.0645336
0.0362114
0.0357418
0.0344025
0.0297691
0.0214944
0.0124355
0.00452972
-0.00107847
-0.00260363
-0.00249342
0.00321318
0.00971637
0.015386
0.0261142
0.0331964
0.0364586
0.0374763
0.0361966
0.0340111
0.0326393
0.0450153
0.0446482
0.0435133
0.0395993
0.0323261
0.0239835
0.0158897
0.00910249
0.00592711
0.00448726
0.0081214
0.0110854
0.013531
0.0182106
0.0205965
0.0210184
0.0203024
0.0184697
0.0164301
0.0149528
0.0458648
0.045583
0.0446868
0.041745
0.0361734
0.02954
0.0225125
0.0159764
0.012098
0.00942566
0.0117748
0.0129046
0.0127238
0.0143943
0.0153833
0.0150083
0.0136942
0.011774
0.00997023
0.00842228
0.043178
0.042947
0.0422605
0.0401206
0.0361448
0.031285
0.0258056
0.0202162
0.0163287
0.0127312
0.0135873
0.0147682
0.013943
0.0146348
0.0142569
0.0134805
0.0118192
0.00985884
0.00831045
0.00691855
0.0393087
0.0391434
0.0386693
0.0371722
0.0343208
0.0306638
0.0264532
0.0218707
0.018532
0.014716
0.0148501
0.0152799
0.014867
0.0161302
0.0147652
0.0137456
0.0125099
0.0111569
0.0101334
0.00892879
0.0350681
0.0349558
0.0346084
0.0335703
0.0315147
0.0287197
0.0254855
0.0217609
0.0191514
0.0157869
0.0151893
0.0148642
0.0140585
0.0155585
0.016057
0.0154994
0.0150145
0.0145743
0.0143019
0.0131799
0.0306996
0.030628
0.0303877
0.0297374
0.0282158
0.0261517
0.0236726
0.0206519
0.0186646
0.015701
0.0149984
0.0139835
0.013473
0.0146608
0.0164266
0.0179293
0.0178651
0.017454
0.0175888
0.0167826
0.0261883
0.0261219
0.0259103
0.0254879
0.0244922
0.0230936
0.0213297
0.0191134
0.0176449
0.0150203
0.0146617
0.0134058
0.013249
0.0150122
0.017075
0.0192364
0.0211645
0.0220419
0.0224625
0.0218753
0.0219204
0.0218536
0.0216924
0.021401
0.0207012
0.0199158
0.0186797
0.0170195
0.0161886
0.0141532
0.0138153
0.0125447
0.0125746
0.0167514
0.0202237
0.022666
0.0262221
0.0287111
0.0295076
0.0285053
0.0180906
0.0180113
0.017881
0.0177048
0.017293
0.0168435
0.016144
0.0150055
0.0142671
0.012792
0.0132851
0.0125432
0.0127097
0.0168006
0.0224741
0.0271014
0.0296556
0.0315195
0.0325961
0.031628
0.0146714
0.014592
0.0145145
0.0143819
0.0141072
0.0138081
0.0133558
0.0126763
0.0122857
0.0111305
0.012234
0.0115893
0.0139403
0.0173242
0.0217859
0.0271081
0.0308767
0.0327854
0.0335273
0.0327434
0.0116324
0.011511
0.0114652
0.011374
0.011161
0.0109375
0.0105663
0.0099079
0.00993085
0.00929554
0.0105714
0.00951774
0.0118119
0.0158426
0.0203381
0.0256063
0.0302944
0.0325932
0.0333027
0.032361
0.00863946
0.00855443
0.00853669
0.00840913
0.00826685
0.00814378
0.00785103
0.00725722
0.00756843
0.00725646
0.00872596
0.00890278
0.00999263
0.0114485
0.0161461
0.0215785
0.0265199
0.0298549
0.0309519
0.0294502
0.00569326
0.00558888
0.00553778
0.00538167
0.00528105
0.00526301
0.00538401
0.00462964
0.00513056
0.00491336
0.00503636
0.00663226
0.00862683
0.0100273
0.0134462
0.0155835
0.018922
0.0214093
0.0227758
0.0214733
0.00257129
0.00251313
0.00252905
0.00265227
0.00268287
0.00214568
0.00260874
0.0030151
0.00353973
0.00274103
0.00170732
0.00352666
0.00550515
0.00696421
0.00737114
0.00463854
0.00295747
0.0017185
0.00288704
0.00254418
-1.07202
-0.224772
0.0454557
0.323995
0.508493
0.667381
0.797644
0.930137
1.07416
1.15426
-0.0851781
0.324757
0.343653
0.53354
0.660342
0.7739
0.871945
0.958975
0.986982
0.944365
0.296623
0.512474
0.549875
0.687349
0.775171
0.856611
0.923656
0.973897
0.976372
0.990035
0.529199
0.674164
0.709965
0.813667
0.870798
0.930055
0.975369
1.00802
1.01727
1.04081
0.709548
0.812509
0.842325
0.911537
0.955937
0.997948
1.03039
1.05482
1.06475
1.09622
0.854432
0.924149
0.95465
0.998314
1.03468
1.06518
1.08973
1.11053
1.12482
1.15303
0.974604
1.02568
1.0514
1.07971
1.10768
1.13165
1.15179
1.17112
1.18612
1.21256
1.07899
1.11619
1.13742
1.15827
1.1793
1.19886
1.21637
1.23455
1.24945
1.27311
1.17332
1.20256
1.21899
1.23441
1.25071
1.26689
1.2825
1.29946
1.31306
1.33537
1.26185
1.28237
1.29734
1.31064
1.32433
1.33816
1.35167
1.36625
1.37778
1.39742
1.34757
1.36345
1.37735
1.38922
1.40116
1.41279
1.42389
1.43555
1.4432
1.46001
1.43309
1.44574
1.45947
1.47115
1.48171
1.49145
1.50023
1.50847
1.51204
1.52331
1.52194
1.53289
1.54633
1.55568
1.56314
1.57037
1.57757
1.5841
1.58515
1.59255
1.62031
1.62484
1.63297
1.6377
1.64107
1.64555
1.65155
1.65926
1.66311
1.67299
1.73342
1.72015
1.71288
1.70723
1.70454
1.7059
1.71229
1.72466
1.73945
1.76911
1.8552
1.79927
1.76827
1.75108
1.74288
1.74286
1.75165
1.77123
1.80313
1.87236
)
;

boundaryField
{
    wall-4
    {
        type            zeroGradient;
    }
    pressure-outlet-7
    {
        type            fixedValue;
        value           uniform 0;
    }
    velocity-inlet-6
    {
        type            zeroGradient;
    }
    velocity-inlet-5
    {
        type            zeroGradient;
    }
    frontAndBackPlanes
    {
        type            empty;
    }
}


// ************************************************************************* //
