/*--------------------------------*- C++ -*----------------------------------*\
  =========                 |
  \\      /  F ield         | OpenFOAM: The Open Source CFD Toolbox
   \\    /   O peration     | Website:  https://openfoam.org
    \\  /    A nd           | Version:  9
     \\/     M anipulation  |
\*---------------------------------------------------------------------------*/
FoamFile
{
    format      ascii;
    class       surfaceScalarField;
    location    "42";
    object      phi;
}
// * * * * * * * * * * * * * * * * * * * * * * * * * * * * * * * * * * * * * //

dimensions      [0 3 -1 0 0 0 0];

internalField   nonuniform List<scalar> 
4262
(
0.10714
0.470848
0.0955653
0.70516
0.0693734
0.858495
0.0473599
1.02078
0.0309921
1.21488
0.0198272
1.44938
0.0124787
1.73321
0.00732509
2.07619
0.00338373
2.48918
-0.000220195
2.9859
-0.00388626
2.98596
-0.00792359
2.48928
-0.0130699
2.07618
-0.0202272
1.73302
-0.031167
1.44916
-0.0472769
1.21463
-0.0690681
1.02055
-0.0952973
0.858532
-0.107096
0.705384
0.470893
0.112908
0.357941
0.135362
0.682706
0.120514
0.873343
0.0979993
1.04329
0.0747337
1.23815
0.0529542
1.47116
0.034519
1.75165
0.0202423
2.09047
0.00891668
2.50051
-0.00126485
2.99608
-0.0113462
2.99604
-0.0222843
2.50022
-0.0361883
2.09009
-0.0545256
1.75136
-0.0763551
1.47099
-0.0999468
1.23822
-0.122932
1.04354
-0.136743
0.872343
-0.113473
0.682115
0.357419
0.0920663
0.265874
0.125017
0.649755
0.121165
0.877195
0.104911
1.05955
0.0863067
1.25675
0.0672088
1.49026
0.0483149
1.77054
0.0303835
2.1084
0.0140158
2.51688
-0.00172999
3.01182
-0.0173175
3.01163
-0.0333768
2.51628
-0.0510375
2.10775
-0.0696545
1.76998
-0.0881875
1.48952
-0.105703
1.25573
-0.120253
1.05809
-0.125305
0.877395
-0.092343
0.649152
0.265076
0.0640323
0.201842
0.104938
0.60885
0.106773
0.87536
0.0954493
1.07087
0.0815894
1.27061
0.0668922
1.50496
0.0506729
1.78676
0.0334606
2.12561
0.0157166
2.53462
-0.00308118
3.03062
-0.0216451
3.03019
-0.0388983
2.53353
-0.0554179
2.12427
-0.0706097
1.78517
-0.0843831
1.5033
-0.0979857
1.26934
-0.10961
1.06971
-0.106719
0.874504
-0.0647587
0.607192
0.200317
0.0375593
0.164283
0.0809126
0.565497
0.0912497
0.865023
0.0840885
1.07803
0.0715379
1.28316
0.0597851
1.51671
0.0469067
1.79964
0.0320526
2.14046
0.0152803
2.55139
-0.00371058
3.04961
-0.0224117
3.04889
-0.0386057
2.54973
-0.052621
2.13828
-0.0649255
1.79747
-0.0762855
1.51466
-0.0882466
1.2813
-0.094607
1.07607
-0.0829587
0.862856
-0.0383015
0.562535
0.162016
0.0194996
0.144783
0.0572969
0.527699
0.072743
0.849577
0.0706672
1.08011
0.061888
1.29194
0.0510471
1.52755
0.0399735
1.81071
0.0274999
2.15294
0.0124822
2.56641
-0.00514535
3.06724
-0.0223899
3.06614
-0.0364752
2.56381
-0.0479259
2.14973
-0.0578046
1.80735
-0.0676358
1.52449
-0.075431
1.28909
-0.076473
1.07712
-0.0596275
0.84601
-0.0202637
0.523171
0.141752
0.0106524
0.134131
0.0424878
0.495864
0.0587458
0.833319
0.0591267
1.07973
0.0530085
1.29806
0.0436634
1.5369
0.033461
1.82091
0.0222916
2.16411
0.00937838
2.57933
-0.00628123
3.0829
-0.0216329
3.08149
-0.0336132
2.57579
-0.0435407
2.15966
-0.0524743
1.81628
-0.0607169
1.53273
-0.0655517
1.29393
-0.0637595
1.07532
-0.0455459
0.827797
-0.0115937
0.489219
0.130158
0.00665286
0.127478
0.0331988
0.469318
0.0495833
0.816934
0.0512133
1.0781
0.0463206
1.30295
0.0381201
1.5451
0.0285543
1.83048
0.0177234
2.17494
0.00566048
2.59139
-0.00812883
3.09669
-0.0212115
3.09457
-0.0319656
2.58655
-0.0413073
2.169
-0.0492784
1.82425
-0.055818
1.53927
-0.0590593
1.29717
-0.055595
1.07186
-0.0367849
0.808987
-0.00775629
0.46019
0.122402
0.00480308
0.122675
0.0268667
0.447255
0.0430131
0.800788
0.045374
1.07573
0.0409363
1.30739
0.0335406
1.55249
0.024604
1.83942
0.0142432
2.1853
0.00271328
2.60292
-0.00997731
3.10938
-0.0220242
3.10662
-0.0320954
2.59662
-0.0404409
2.17735
-0.0473651
1.83118
-0.0529028
1.54481
-0.055315
1.29958
-0.0505303
1.06708
-0.0312789
0.789735
-0.00615495
0.435066
0.116247
0.00379954
0.118875
0.0218171
0.429237
0.0370705
0.785535
0.040072
1.07273
0.0360648
1.3114
0.0290351
1.55952
0.0204984
1.84795
0.01057
2.19523
-0.000642077
2.61413
-0.012708
3.12145
-0.0239189
3.11783
-0.0330442
2.60574
-0.0406566
2.18496
-0.0467412
1.83726
-0.0512493
1.54931
-0.0526833
1.30102
-0.0466135
1.06101
-0.0273175
0.770439
-0.00549035
0.413239
0.110757
0.00303807
0.115837
0.0175898
0.414685
0.0316884
0.771436
0.0348546
1.06957
0.0309996
1.31525
0.0243174
1.56621
0.0163744
1.8559
0.00701907
2.20458
-0.00365937
2.62481
-0.0153867
3.13317
-0.0261488
3.12859
-0.034558
2.61415
-0.0410052
2.19141
-0.0461424
1.8424
-0.0500612
1.55323
-0.050679
1.30163
-0.0434443
1.05377
-0.024249
0.751244
-0.00511188
0.394102
0.105645
0.00245267
0.113385
0.0140777
0.40306
0.0269074
0.758606
0.0302112
1.06626
0.0263343
1.31913
0.0194332
1.57311
0.011341
1.86399
0.00235624
2.21357
-0.00772516
2.63489
-0.0191764
3.14462
-0.0293212
3.13874
-0.0365616
2.62139
-0.0419779
2.19682
-0.0462618
1.84668
-0.0494351
1.55641
-0.049036
1.30123
-0.0407872
1.04552
-0.0219044
0.732361
-0.00488648
0.377084
0.100759
0.00168031
0.111704
0.0102837
0.394457
0.0211312
0.747759
0.0240925
1.0633
0.0204366
1.32279
0.01386
1.57968
0.00595551
1.87189
-0.00291265
2.22244
-0.0129395
2.64492
-0.0238407
3.15552
-0.0330448
3.14794
-0.0392713
2.62762
-0.0437323
2.20128
-0.0474998
1.85045
-0.0495483
1.55846
-0.0484087
1.30009
-0.0389908
1.0361
-0.0201926
0.713563
-0.00471959
0.361611
0.0960389
0.000804475
0.1109
0.00691323
0.388348
0.0160755
0.738597
0.0185691
1.06081
0.0146735
1.32668
0.00797231
1.58638
5.55751e-05
1.87981
-0.0088279
2.23132
-0.0184726
2.65456
-0.0287585
3.16581
-0.0374253
3.15661
-0.0430195
2.63321
-0.0465856
2.20485
-0.0491286
1.853
-0.0499224
1.55925
-0.0478787
1.29805
-0.0372891
1.02551
-0.0187539
0.695028
-0.00453997
0.347397
0.091499
5.03796e-05
0.110849
0.00367604
0.384722
0.0102828
0.73199
0.0118598
1.05923
0.00789355
1.33065
0.00113894
1.59314
-0.00716272
1.88811
-0.0164061
2.24056
-0.0264224
2.66458
-0.0362238
3.17561
-0.0433702
3.16375
-0.0475488
2.63739
-0.050188
2.20749
-0.0516919
1.8545
-0.0514549
1.55901
-0.0479193
1.29451
-0.0364254
1.01402
-0.0179477
0.67655
-0.00446363
0.333913
0.0870353
-0.000766373
0.111616
0.000305677
0.38365
0.00495771
0.727338
0.0053667
1.05882
0.000498762
1.33552
-0.00695718
1.6006
-0.0157546
1.89691
-0.0254205
2.25023
-0.0348881
2.67405
-0.0431804
3.1839
-0.0491699
3.16974
-0.0525547
2.64078
-0.0541965
2.20913
-0.0549121
1.85521
-0.0540199
1.55812
-0.04919
1.28969
-0.0363526
1.00118
-0.017737
0.657935
-0.00458728
0.320763
0.0824481
-0.0017724
0.113388
-0.00312937
0.385007
-0.00198822
0.726197
-0.00325164
1.06009
-0.00870178
1.34097
-0.0165787
1.60847
-0.0258362
1.90617
-0.0357233
2.26012
-0.0457158
2.68404
-0.0544047
3.19259
-0.0593641
3.1747
-0.0610989
2.64251
-0.061087
2.20912
-0.0599035
1.85403
-0.0571158
1.55533
-0.0508074
1.28338
-0.0368597
0.987235
-0.0179203
0.638995
-0.00477796
0.307621
0.0776701
-0.00310703
0.116495
-0.00684007
0.38874
-0.00886995
0.728227
-0.0118295
1.06305
-0.0184277
1.34757
-0.0274187
1.61746
-0.0373313
1.91608
-0.0477579
2.27054
-0.0576447
2.69392
-0.0654356
3.20038
-0.0690267
3.17829
-0.0692645
2.64275
-0.0678778
2.20773
-0.0660064
1.85216
-0.0622102
1.55154
-0.0539628
1.27513
-0.0380286
0.971301
-0.0183783
0.619345
-0.0050036
0.294246
0.0726665
-0.00455598
0.121051
-0.0115534
0.395738
-0.0171677
0.733841
-0.0230153
1.06889
-0.0306436
1.35519
-0.0405334
1.62735
-0.051491
1.92704
-0.0626227
2.28167
-0.0732948
2.7046
-0.0817406
3.20883
-0.0848883
3.18144
-0.0833688
2.64123
-0.0793799
2.20374
-0.0742583
1.84704
-0.0678425
1.54512
-0.0575753
1.26486
-0.0399113
0.953637
-0.0193756
0.598809
-0.00538643
0.280257
0.0672801
-0.00603228
0.127084
-0.0168531
0.406559
-0.0268247
0.743812
-0.0351107
1.07718
-0.044611
1.36469
-0.056534
1.63928
-0.0690164
1.93952
-0.0814252
2.29408
-0.092064
2.71524
-0.0984376
3.2152
-0.0980565
3.18106
-0.093989
2.63716
-0.0886468
2.1984
-0.0832038
1.8416
-0.0755076
1.53742
-0.0625523
1.25191
-0.0424431
0.933528
-0.0207067
0.577073
-0.00580035
0.265351
0.0614797
-0.00852137
0.135605
-0.0243641
0.422401
-0.0400014
0.75945
-0.0520874
1.08926
-0.0630498
1.37566
-0.0759699
1.6522
-0.0900015
1.95355
-0.103759
2.30784
-0.115168
2.72665
-0.121558
3.22159
-0.12081
3.18031
-0.115207
2.63156
-0.106536
2.18973
-0.0962494
1.83131
-0.0848586
1.52603
-0.0690917
1.23614
-0.0465914
0.911028
-0.0230649
0.553546
-0.00646615
0.248752
0.0550136
-0.0108793
0.146484
-0.0312199
0.442742
-0.0521151
0.780345
-0.0683872
1.10554
-0.0828908
1.39016
-0.0992057
1.66851
-0.115586
1.96993
-0.130984
2.32324
-0.142777
2.73844
-0.147273
3.22609
-0.142373
3.17541
-0.132386
2.62157
-0.121449
2.17879
-0.11054
1.8204
-0.0975046
1.513
-0.0783403
1.21698
-0.0523531
0.885041
-0.0260372
0.52723
-0.00716023
0.229875
0.0478533
-0.0155427
0.162027
-0.0430595
0.470259
-0.0703894
0.807675
-0.091902
1.12705
-0.109995
1.40825
-0.129094
1.68761
-0.148108
1.98895
-0.165063
2.34019
-0.176968
2.75034
-0.180374
3.2295
-0.173952
3.16899
-0.162311
2.60993
-0.148156
2.16464
-0.131962
1.80421
-0.113778
1.49481
-0.0904243
1.19362
-0.0603845
0.855001
-0.0301015
0.496947
-0.00809841
0.207872
0.0397549
-0.0196511
0.181678
-0.0558431
0.506451
-0.0923982
0.84423
-0.120562
1.15521
-0.144316
1.43201
-0.168514
1.71181
-0.190139
2.01057
-0.207556
2.35761
-0.217777
2.76056
-0.217064
3.22878
-0.204939
3.15686
-0.187483
2.59248
-0.169051
2.14621
-0.151755
1.78691
-0.131955
1.47501
-0.104535
1.1662
-0.0693697
0.819836
-0.0340286
0.461606
-0.00881288
0.182656
0.030942
-0.032857
0.214535
-0.0818653
0.555459
-0.127997
0.890362
-0.16337
1.19059
-0.193413
1.46205
-0.220879
1.73927
-0.243683
2.03337
-0.260425
2.37435
-0.267963
2.7681
-0.262609
3.22343
-0.245268
3.13952
-0.224459
2.57167
-0.203465
2.12521
-0.180535
1.76398
-0.154055
1.44853
-0.120688
1.13284
-0.0793378
0.778485
-0.0382536
0.420522
-0.00941455
0.153817
0.0215275
-0.0474419
0.261977
-0.120417
0.628434
-0.18185
0.951795
-0.224858
1.23359
-0.26036
1.49755
-0.289544
1.76846
-0.31063
2.05446
-0.323185
2.38691
-0.324343
2.76926
-0.31169
3.21078
-0.287587
3.11542
-0.260508
2.54459
-0.233156
2.09786
-0.207254
1.73808
-0.178626
1.4199
-0.139237
1.09345
-0.0893619
0.72861
-0.040718
0.371878
-0.00930237
0.122402
0.0122251
-0.0336513
0.295628
-0.0957681
0.690551
-0.152402
1.00843
-0.198896
1.28009
-0.241544
1.5402
-0.27807
1.80498
-0.311816
2.08821
-0.341065
2.41616
-0.361584
2.78978
-0.366878
3.21607
-0.352719
3.10126
-0.328306
2.52017
-0.300913
2.07047
-0.267117
1.70428
-0.222449
1.37524
-0.164012
1.03501
-0.0960874
0.660685
-0.0384154
0.314206
-0.00842805
0.0924143
0.00379707
-0.01226
0.307888
-0.0461301
0.724421
-0.0869377
1.04924
-0.12578
1.31893
-0.163855
1.57828
-0.197581
1.83871
-0.228229
2.11885
-0.253164
2.44109
-0.267727
2.80434
-0.266716
3.21506
-0.249074
3.08362
-0.22198
2.49308
-0.18817
2.03666
-0.151832
1.66794
-0.113218
1.33662
-0.0706559
0.992449
-0.0318717
0.621901
-0.00882973
0.291164
-0.00146484
0.0850494
0.00233223
0.000908371
0.30698
-0.0228423
0.748172
-0.0519482
1.07834
-0.0820474
1.34903
-0.113077
1.60931
-0.143245
1.86888
-0.170595
2.1462
-0.192506
2.463
-0.205884
2.81772
-0.20557
3.21474
-0.186129
3.06418
-0.156509
2.46346
-0.123811
2.00396
-0.0877002
1.63183
-0.048767
1.29769
-0.0129811
0.956663
0.00829731
0.600622
0.009754
0.289707
0.00329857
0.0915048
0.0056308
0.00143483
0.305545
-0.0113064
0.760913
-0.0328924
1.09993
-0.0578157
1.37395
-0.0834229
1.63491
-0.108444
1.8939
-0.131808
2.16957
-0.15058
2.48177
-0.16078
2.82792
-0.155767
3.20973
-0.137515
3.04593
-0.112293
2.43824
-0.0791326
1.9708
-0.04327
1.59597
-0.0126163
1.26704
0.0100183
0.934029
0.0195122
0.591128
0.0149007
0.294319
0.00496412
0.101441
0.0105949
0.00448401
0.301061
-0.00387776
0.769275
-0.0218421
1.11789
-0.0427321
1.39484
-0.0646186
1.6568
-0.0863852
1.91567
-0.106938
2.19012
-0.124028
2.49886
-0.134291
2.83818
-0.133922
3.20936
-0.118561
3.03057
-0.09132
2.411
-0.0603259
1.93981
-0.0299951
1.56564
0.000479126
1.23656
0.0211647
0.913343
0.0252836
0.587009
0.0168299
0.302773
0.00534096
0.11293
0.0159359
0.00540836
0.295653
-0.000334761
0.775018
-0.0162639
1.13382
-0.0348297
1.41341
-0.0540029
1.67597
-0.0731059
1.93477
-0.0915061
2.20852
-0.106937
2.51429
-0.115491
2.84674
-0.112212
3.20608
-0.09594
3.01429
-0.0736996
2.38876
-0.0482486
1.91435
-0.0190508
1.53644
0.00514225
1.21237
0.0206814
0.897804
0.023504
0.584187
0.0148945
0.311382
0.00469372
0.123131
0.0206296
0.00405706
0.291596
0.000159803
0.778915
-0.0129461
1.14693
-0.0297282
1.43019
-0.0473016
1.69355
-0.0650106
1.95248
-0.0820869
2.2256
-0.0966799
2.52889
-0.106397
2.85646
-0.106574
3.20626
-0.0931806
3.0009
-0.0702551
2.36583
-0.0446356
1.88874
-0.0209561
1.51276
0.00215742
1.18926
0.0161549
0.883806
0.0179293
0.582412
0.01131
0.318001
0.00344615
0.130995
0.0240758
0.00269728
0.288898
-0.000704492
0.782317
-0.0126488
1.15887
-0.0279024
1.44544
-0.0441828
1.70983
-0.0605987
1.96889
-0.0768913
2.24189
-0.0915051
2.5435
-0.101235
2.86619
-0.100165
3.20519
-0.0874848
2.98822
-0.0707388
2.34908
-0.0486336
1.86663
-0.0228213
1.48695
-0.00410542
1.17054
0.00784729
0.871854
0.0112473
0.579012
0.00678806
0.322461
0.00215875
0.135624
0.0262345
0.000207624
0.288691
-0.00293565
0.78546
-0.0134619
1.1694
-0.027028
1.45901
-0.0423788
1.72518
-0.0583127
1.98483
-0.0743992
2.25798
-0.0890347
2.55814
-0.099244
2.8764
-0.101907
3.20785
-0.0922721
2.97858
-0.0718554
2.32867
-0.0497444
1.84452
-0.0311763
1.46838
-0.0127341
1.1521
-0.000864452
0.859984
0.0021913
0.575957
0.00169775
0.322954
0.000743103
0.136579
0.0269776
-0.00043039
0.289121
-0.0051123
0.790142
-0.0148862
1.17917
-0.0275436
1.47167
-0.0421333
1.73977
-0.0574243
2.00012
-0.0731603
2.27371
-0.0880442
2.57302
-0.0995662
2.88792
-0.103135
3.21142
-0.0918516
2.9673
-0.0753531
2.31217
-0.0572173
1.82638
-0.0371231
1.44829
-0.0218775
1.13685
-0.0110764
0.849183
-0.00443675
0.569317
-0.00288876
0.321406
-0.000777057
0.134467
0.0262006
-0.00221773
0.291339
-0.00734775
0.795272
-0.0164908
1.18831
-0.0282396
1.48342
-0.0420348
1.75356
-0.0570165
2.0151
-0.0729481
2.28964
-0.0885918
2.58866
-0.101254
2.90058
-0.105489
3.21566
-0.0986049
2.96042
-0.0824216
2.29599
-0.0631084
1.80707
-0.0465326
1.43171
-0.030039
1.12036
-0.0178234
0.836967
-0.0107884
0.562282
-0.00503113
0.315649
-0.00136247
0.130798
0.0248381
-0.003653
0.294992
-0.00891553
0.800535
-0.0178341
1.19723
-0.0292417
1.49482
-0.0425445
1.76686
-0.0571399
2.0297
-0.0730626
2.30557
-0.089024
2.60462
-0.102437
2.91399
-0.109596
3.22282
-0.104469
2.95529
-0.0899433
2.28146
-0.0721768
1.7893
-0.0525371
1.41207
-0.0375929
1.10541
-0.0250891
0.824463
-0.0149265
0.552119
-0.00777545
0.308498
-0.00216429
0.125187
0.0226738
-0.00427645
0.299268
-0.0103294
0.806587
-0.0191371
1.20604
-0.0300072
1.50569
-0.0427703
1.77963
-0.0571408
2.04407
-0.0731772
2.3216
-0.0898258
2.62127
-0.105235
2.9294
-0.114834
3.23242
-0.111025
2.95148
-0.0982658
2.2687
-0.0780446
1.76908
-0.0604384
1.39446
-0.0432631
1.08824
-0.0296191
0.810819
-0.0190351
0.541535
-0.00857529
0.298038
-0.00230694
0.118919
0.0203669
-0.00438519
0.303653
-0.0109714
0.813174
-0.0198733
1.21494
-0.0305931
1.51641
-0.0430723
1.79211
-0.0571299
2.05812
-0.0731451
2.33762
-0.0902658
2.63839
-0.106374
2.94551
-0.117552
3.24359
-0.118023
2.95195
-0.105742
2.25642
-0.0883931
1.75173
-0.0666561
1.37273
-0.0490378
1.07062
-0.0337636
0.795545
-0.0199763
0.527748
-0.00937605
0.287438
-0.00226704
0.11181
0.0180998
-0.00447512
0.308129
-0.0116158
0.820314
-0.0204526
1.22378
-0.0308031
1.52676
-0.0428981
1.8042
-0.0567739
2.072
-0.0728614
2.3537
-0.0905309
2.65606
-0.108442
2.96342
-0.123065
3.25822
-0.125225
2.95411
-0.114502
2.2457
-0.0943976
1.73163
-0.0737324
1.35206
-0.0519415
1.04883
-0.0346895
0.778293
-0.0212158
0.514274
-0.00866762
0.27489
-0.00186658
0.105009
0.0162332
-0.004531
0.31266
-0.0117714
0.827555
-0.0205125
1.23252
-0.0307331
1.53699
-0.0426232
1.81609
-0.056262
2.08564
-0.0723272
2.36977
-0.0903475
2.67408
-0.108831
2.98191
-0.124454
3.27384
-0.130217
2.95988
-0.122194
2.23767
-0.105971
1.71541
-0.0801808
1.32627
-0.0554929
1.02414
-0.033391
0.756191
-0.0162362
0.49712
-0.00629513
0.264949
-0.000875504
0.0995893
0.0153577
-0.00461672
0.317276
-0.0119802
0.834918
-0.0204939
1.24103
-0.0303552
1.54685
-0.0419063
1.82764
-0.055366
2.0991
-0.0713842
2.38579
-0.0896684
2.69237
-0.109542
3.00178
-0.128512
3.29281
-0.137655
2.96902
-0.132028
2.23205
-0.112305
1.69568
-0.0874685
1.30144
-0.0563876
0.99306
-0.0293101
0.729114
-0.00992519
0.477735
-0.000862724
0.255886
-0.00195962
0.100686
0.0133981
-0.00458681
0.321863
-0.0118056
0.842137
-0.0201014
1.24933
-0.029763
1.55651
-0.0410719
1.83895
-0.0542552
2.11228
-0.0701212
2.40165
-0.0886175
2.71086
-0.108986
3.02215
-0.128393
3.31222
-0.140034
2.98066
-0.138438
2.23045
-0.125175
1.68242
-0.0959944
1.27226
-0.0598267
0.956893
-0.0198932
0.68918
0.0158198
0.442022
0.0316034
0.240103
0.0239524
0.108337
0.0373505
-0.00449971
0.326363
-0.0116648
0.849302
-0.0196937
1.25736
-0.0289553
1.56577
-0.0398638
1.84986
-0.0527859
2.1252
-0.0684987
2.41737
-0.0870787
2.72944
-0.10827
3.04334
-0.130476
3.33442
-0.145612
2.9958
-0.148435
2.23327
-0.133061
1.66705
-0.106146
1.24534
-0.0622344
0.912981
-0.014914
0.64186
0.0329574
0.39415
0.0428886
0.230171
0.018719
0.132507
0.0560695
-0.00430592
0.330669
-0.0112372
0.856233
-0.0189973
1.26512
-0.0279805
1.57475
-0.0386149
1.86049
-0.0512111
2.1378
-0.066687
2.43284
-0.0852678
2.74803
-0.106685
3.06476
-0.129427
3.35716
-0.146557
3.01293
-0.152554
2.23927
-0.147103
1.66159
-0.120336
1.21857
-0.0759155
0.868561
-0.0027936
0.568738
0.0985737
0.292783
0.18367
0.145075
0.179423
0.136754
0.235492
-0.00417532
0.334844
-0.0110732
0.863131
-0.0187709
1.27282
-0.0276832
1.58367
-0.0384351
1.87125
-0.0514915
2.15086
-0.0678564
2.44921
-0.0879186
2.76809
-0.112099
3.08894
-0.140168
3.38523
-0.163582
3.03634
-0.176575
2.25226
-0.171449
1.65647
-0.149703
1.19683
-0.101248
0.820107
-0.0488524
0.516342
-0.0864637
0.330394
-0.360102
0.418714
-0.937143
0.713795
0.898198
-1.59985
-0.00398038
0.338824
-0.0106368
0.869788
-0.0181416
1.28032
-0.0269624
1.59249
-0.0376704
1.88195
-0.0508121
2.164
-0.0675255
2.46592
-0.0884721
2.78903
-0.11431
3.11477
-0.14491
3.41583
-0.173166
3.06459
-0.190893
2.26999
-0.2046
1.67017
-0.19698
1.18921
-0.178886
0.802013
-0.264035
0.601491
-0.692211
0.75857
-1.43164
1.15814
-2.04175
1.3239
1.21792
-2.36147
-0.00377932
0.342604
-0.0102295
0.876238
-0.0175091
1.2876
-0.0260851
1.60106
-0.0366164
1.89249
-0.0498351
2.17722
-0.0669054
2.48299
-0.0886586
2.81079
-0.116406
3.14252
-0.151469
3.4509
-0.186054
3.09918
-0.214983
2.29892
-0.230139
1.68533
-0.228738
1.18781
-0.315923
0.889197
-0.752311
1.03788
-1.53171
1.53797
-2.10366
1.73009
-2.34462
1.56486
1.33287
-2.45957
-0.00357172
0.346175
-0.00964588
0.882312
-0.0166438
1.2946
-0.0250616
1.60948
-0.0354822
1.90291
-0.0487117
2.19045
-0.0660203
2.5003
-0.0885427
2.83331
-0.117837
3.17181
-0.155685
3.48874
-0.196255
3.13975
-0.229488
2.33215
-0.26463
1.72047
-0.351497
1.27467
-0.692724
1.23042
-1.42887
1.77403
-2.02189
2.13098
-2.26291
1.97112
-2.37691
1.67886
1.39797
-2.44201
-0.00331244
0.349488
-0.00905596
0.888056
-0.0157476
1.30129
-0.0238541
1.61759
-0.0340923
1.91314
-0.0473092
2.20366
-0.0648485
2.51784
-0.0880237
2.85648
-0.119044
3.20284
-0.161363
3.53106
-0.209144
3.18753
-0.257427
2.38044
-0.305133
1.76818
-0.48436
1.4539
-1.08828
1.83434
-1.78015
2.4659
-2.10501
2.45585
-2.25465
2.12075
-2.33724
1.76145
1.46376
-2.40303
-0.00323163
0.35272
-0.00883005
0.893654
-0.0154831
1.30794
-0.0236894
1.62579
-0.0342224
1.92368
-0.0477189
2.21716
-0.0657314
2.53585
-0.0898239
2.88058
-0.122427
3.23544
-0.167496
3.57613
-0.221536
3.24157
-0.271959
2.43086
-0.365669
1.86189
-0.751402
1.83963
-1.48386
2.5668
-1.96121
2.94325
-2.16194
2.65657
-2.26867
2.22748
-2.34578
1.83856
1.52771
-2.40972
-0.00332666
0.356046
-0.00922815
0.899555
-0.0162583
1.31497
-0.0248315
1.63437
-0.0358061
1.93465
-0.0499519
2.23131
-0.0688484
2.55475
-0.0941409
2.90587
-0.128805
3.2701
-0.178578
3.62591
-0.237432
3.30042
-0.303511
2.49694
-0.49394
2.05232
-1.04313
2.38883
-1.67247
3.19614
-1.9519
3.22267
-2.09971
2.80438
-2.21405
2.34183
-2.30776
1.93226
1.58979
-2.36984
-0.00335969
0.359406
-0.00950546
0.905701
-0.0169261
1.3224
-0.0260551
1.6435
-0.0376282
1.94623
-0.0524394
2.24612
-0.0721862
2.5745
-0.0987473
2.93243
-0.135152
3.30651
-0.187207
3.67796
-0.251616
3.36483
-0.341922
2.58724
-0.621909
2.3323
-1.25812
3.02504
-1.75055
3.68857
-1.95867
3.43079
-2.09988
2.94559
-2.22428
2.46623
-2.3357
2.04369
1.64869
-2.39461
-0.0033468
0.362753
-0.00983771
0.912192
-0.0177545
1.33031
-0.0273264
1.65307
-0.0393665
1.95827
-0.0548794
2.26163
-0.0755686
2.59518
-0.103355
2.96022
-0.141735
3.34489
-0.197691
3.73392
-0.267155
3.4343
-0.392113
2.7122
-0.773279
2.71347
-1.40447
3.65623
-1.76163
4.04574
-1.9358
3.60496
-2.03891
3.04869
-2.12862
2.55594
-2.19706
2.11213
1.64191
-2.19028
-0.00325497
0.366008
-0.00993455
0.918872
-0.0182762
1.33865
-0.0285011
1.66329
-0.0412685
1.97103
-0.0575052
2.27787
-0.0790678
2.61675
-0.108127
2.98928
-0.148157
3.38492
-0.204979
3.79074
-0.284872
3.51419
-0.456483
2.88381
-0.904124
3.16111
-1.45859
4.21069
-1.72255
4.3097
-1.87654
3.75896
-1.97089
3.14304
-1.9738
2.55885
-1.90697
2.0453
1.61029
-1.87535
-0.00301959
0.369027
-0.0100506
0.925903
-0.0188983
1.3475
-0.0294901
1.67388
-0.0425787
1.98412
-0.0592555
2.29454
-0.0812714
2.63876
-0.110649
3.01865
-0.151109
3.42538
-0.208095
3.84773
-0.294734
3.60083
-0.497429
3.08651
-0.980561
3.64424
-1.42504
4.65518
-1.5939
4.47855
-1.66239
3.82745
-1.668
3.14865
-1.52164
2.41248
-1.02244
1.54611
0.587847
-0.00261377
0.371641
-0.00974321
0.933032
-0.0190083
1.35677
-0.0304423
1.68532
-0.0446986
1.99838
-0.0626907
2.31254
-0.086482
2.66255
-0.118521
3.05069
-0.162772
3.46963
-0.225303
3.91026
-0.329188
3.70472
-0.583369
3.34069
-1.11764
4.17851
-1.47938
5.01692
-1.57961
4.57879
-1.57835
3.82618
-1.47668
3.04698
-1.23813
2.17393
-0.637474
0.945454
-0.0496274
-0.00210017
0.373741
-0.00933329
0.940265
-0.0191431
1.36658
-0.0311615
1.69734
-0.0461441
2.01336
-0.065411
2.3318
-0.0910867
2.68823
-0.1257
3.08531
-0.174307
3.51823
-0.243934
3.97988
-0.366359
3.82714
-0.675917
3.65025
-1.2313
4.73389
-1.49763
5.28324
-1.55841
4.63958
-1.5386
3.80637
-1.33723
2.84561
-0.789588
1.62629
-0.111856
0.267722
-0.161483
-0.00148168
0.375223
-0.00829397
0.947078
-0.0182541
1.37654
-0.031095
1.71018
-0.0472409
2.02951
-0.0677963
2.35236
-0.0952134
2.71565
-0.132557
3.12265
-0.18448
3.57016
-0.261498
4.0569
-0.409348
3.97499
-0.77778
4.01868
-1.31303
5.26915
-1.49271
5.46292
-1.52354
4.67041
-1.43741
3.72024
-1.10825
2.51645
-0.319389
0.837426
0.027002
-0.0786693
-0.134481
-0.000589603
0.375812
-0.00676883
0.953257
-0.0171435
1.38691
-0.0304936
1.72353
-0.047119
2.04613
-0.0688073
2.37405
-0.0980099
2.74485
-0.137615
3.16225
-0.192642
3.62518
-0.278615
4.14287
-0.451327
4.1477
-0.8799
4.44725
-1.35313
5.74238
-1.47287
5.58266
-1.47815
4.67569
-1.26143
3.50351
-0.697943
1.95297
-0.0646206
0.204104
0.0317575
-0.175047
-0.102724
0.000877292
0.374935
-0.0039936
0.958128
-0.0142488
1.39717
-0.0283694
1.73765
-0.0459409
2.0637
-0.0687802
2.39689
-0.0994021
2.77547
-0.141164
3.20402
-0.198701
3.68272
-0.293288
4.23746
-0.49365
4.34807
-0.972174
4.92578
-1.35248
6.12268
-1.41912
5.64929
-1.3768
4.63338
-1.08797
3.21468
-0.334196
1.1992
0.000278401
-0.130371
0.0132166
-0.187986
-0.0895072
0.00308273
0.371852
0.000139307
0.961071
-0.0107665
1.40807
-0.0251552
1.75204
-0.0426391
2.08119
-0.0662982
2.42054
-0.098211
2.80738
-0.141498
3.2473
-0.201859
3.74308
-0.304106
4.33971
-0.525607
4.56957
-1.0285
5.42868
-1.30947
6.40365
-1.35131
5.69114
-1.2216
4.50366
-0.789805
2.78289
-0.0804513
0.489841
0.047209
-0.258031
0.0264614
-0.167238
-0.0630457
0.00525841
0.366594
0.0038984
0.962431
-0.00521551
1.41719
-0.0191217
1.76594
-0.0371761
2.09924
-0.0615909
2.44496
-0.0941757
2.83997
-0.138667
3.2918
-0.200714
3.80513
-0.31007
4.44906
-0.561886
4.82138
-1.05005
5.91684
-1.24576
6.59936
-1.26085
5.70623
-1.04907
4.29188
-0.471698
2.20552
-0.006207
0.0243501
0.00612097
-0.270359
0.0128593
-0.173976
-0.0501864
0.00833255
0.358261
0.00958155
0.961182
0.002198
1.42457
-0.0108764
1.77902
-0.0284987
2.11686
-0.0528402
2.4693
-0.0855692
2.8727
-0.129953
3.33618
-0.193337
3.86851
-0.308326
4.56405
-0.574921
5.08798
-1.02169
6.3636
-1.14824
6.72591
-1.13715
5.69514
-0.889974
4.04471
-0.27833
1.59387
-0.06412
-0.18986
-0.036991
-0.297488
-0.0109972
-0.19997
-0.0611836
0.0121732
0.346088
0.0176875
0.955668
0.0132695
1.42899
0.0023783
1.78991
-0.0161328
2.13538
-0.0399233
2.49309
-0.0717049
2.90448
-0.115492
3.37997
-0.178297
3.93132
-0.295207
4.68096
-0.570366
5.36314
-0.95462
6.74786
-1.02695
6.79824
-0.967756
5.63595
-0.703611
3.78056
-0.119714
1.00997
-0.0495602
-0.260014
-0.0359779
-0.31107
-0.0134413
-0.222507
-0.0746249
0.017873
0.328215
0.0289716
0.944569
0.0272459
1.43071
0.0171505
1.8
0.000839352
2.15169
-0.0203151
2.51425
-0.0502071
2.93437
-0.0917538
3.42151
-0.152191
3.99175
-0.268362
4.79713
-0.52371
5.61848
-0.833934
7.05808
-0.873677
6.83798
-0.781191
5.54346
-0.468788
3.46816
0.00591537
0.535271
0.0299988
-0.284098
0.0167827
-0.297854
0.00390069
-0.209625
-0.0707242
0.0245286
0.303687
0.0432674
0.92583
0.0470165
1.42696
0.0400426
1.80698
0.0272156
2.16451
0.00736142
2.5341
-0.0201614
2.96189
-0.0578115
3.45916
-0.113523
4.04747
-0.219649
4.90326
-0.441136
5.83997
-0.666435
7.28338
-0.711954
6.8835
-0.603163
5.43467
-0.269242
3.13424
0.0414644
0.224564
0.042926
-0.285559
0.0453914
-0.300319
0.0250218
-0.189255
-0.0457024
0.0335871
0.2701
0.0623585
0.897059
0.0723258
1.417
0.0696344
1.80967
0.0607056
2.17344
0.0444838
2.55032
0.0215226
2.98486
-0.0113089
3.492
-0.0590541
4.09521
-0.146561
4.99076
-0.311642
6.00505
-0.455523
7.42726
-0.501992
6.92997
-0.434327
5.367
-0.135952
2.83587
-0.00730855
0.0959202
-0.0047648
-0.288103
0.024202
-0.329286
0.0380528
-0.203106
-0.00764954
0.0432271
0.226872
0.0852583
0.855028
0.105449
1.39681
0.109684
1.80543
0.10541
2.17772
0.093436
2.5623
0.0767409
3.00155
0.0526409
3.5161
0.0129676
4.13489
-0.0394936
5.04323
-0.146183
6.11174
-0.226334
7.50741
-0.258478
6.96211
-0.3089
5.41742
-0.238023
2.76499
-0.428135
0.286033
-0.413179
-0.303059
-0.25541
-0.487055
-0.0656026
-0.392913
-0.0732521
0.0542743
0.172598
0.1138
0.795502
0.147506
1.3631
0.15924
1.7937
0.161232
2.17572
0.155306
2.56822
0.146588
3.01027
0.133116
3.52957
0.115155
4.15285
0.0897116
5.06867
0.0916207
6.10983
0.0858495
7.51318
0.00593218
7.04203
-0.165362
5.58872
-0.42499
3.02462
-0.77253
0.633573
-0.76112
-0.314468
-0.564392
-0.683784
-0.257096
-0.700209
-0.330348
0.0580342
0.114564
0.143227
0.71031
0.196892
1.30943
0.222522
1.76807
0.233851
2.1644
0.235226
2.56685
0.235236
3.01026
0.234734
3.53007
0.238434
4.14915
0.251696
5.05541
0.358885
6.00264
0.485891
7.38618
0.488838
7.03908
0.419047
5.65851
0.0494504
3.39421
-0.445247
1.12827
-0.716493
-0.0432221
-0.657821
-0.742456
-0.353759
-1.00427
-0.684108
0.0509576
0.0636063
0.172204
0.589063
0.257711
1.22393
0.29844
1.72734
0.319338
2.1435
0.330777
2.55541
0.340522
3.00051
0.355962
3.51463
0.38697
4.11814
0.449651
4.99273
0.701783
5.75051
1.09771
6.99026
1.45011
6.68667
1.72582
5.3828
1.44605
3.67399
0.803818
1.7705
0.267928
0.492668
-0.043964
-0.430564
-0.146981
-0.901254
-0.831088
0.0368216
0.0267848
0.202467
0.423418
0.319652
1.10674
0.390006
1.65699
0.427306
2.1062
0.451222
2.53149
0.468553
2.98318
0.49695
3.48623
0.553402
4.06169
0.680406
4.86572
1.06016
5.37076
1.74631
6.3041
2.14282
6.29016
2.38903
5.1366
2.261
3.80202
1.75025
2.28125
1.25542
0.987492
0.723261
0.101599
0.262896
-0.440889
-0.568192
0.0310964
-0.00431158
0.223391
0.231123
0.401792
0.928342
0.498211
1.56057
0.547647
2.05676
0.584506
2.49463
0.612718
2.95497
0.654762
3.44419
0.735127
3.98132
0.895007
4.70584
1.30349
4.96228
2.07521
5.53238
2.48294
5.88244
2.69428
4.92525
2.64808
3.84822
2.18323
2.7461
1.57189
1.59884
0.959148
0.714338
0.427684
0.090575
-0.140509
0.0280732
-0.0323847
0.183404
0.0757924
0.454159
0.657587
0.618874
1.39585
0.696118
1.97952
0.742173
2.44858
0.779615
2.91753
0.818638
3.40517
0.887804
3.91216
1.02766
4.56599
1.29934
4.6906
1.9841
4.84761
2.353
5.51354
2.48097
4.79728
2.41729
3.9119
2.11257
3.05083
1.57534
2.13607
0.999263
1.29041
0.411081
0.678757
0.270572
0.0137988
-0.0461835
0.100804
-0.0112125
0.403934
0.354457
0.615122
1.18466
0.715295
1.87934
0.746368
2.4175
0.75728
2.90661
0.748688
3.41376
0.741753
3.91909
0.770215
4.53753
0.839337
4.62148
1.11801
4.56894
1.3586
5.27294
1.35901
4.79688
1.28175
3.98916
1.12182
3.21075
0.84175
2.41614
0.524864
1.6073
0.217471
0.986149
0.488043
0.00176053
-0.0479441
0.0464203
-0.0558722
0.248955
0.151922
0.457481
0.97614
0.557992
1.77883
0.593336
2.38216
0.610381
2.88957
0.607092
3.41705
0.597756
3.92843
0.597001
4.53828
0.627465
4.59101
0.793426
4.40298
0.996937
5.06943
0.996166
4.79765
0.921971
4.06335
0.797346
3.33538
0.604663
2.60882
0.365172
1.84679
0.141698
1.20962
0.629742
0.0209072
-0.0688513
0.0652815
-0.100247
0.154671
0.0625327
0.31301
0.8178
0.404811
1.68703
0.443355
2.34362
0.460331
2.87259
0.467082
3.4103
0.467143
3.92837
0.462882
4.54254
0.467225
4.58667
0.564515
4.30569
0.703794
4.93015
0.700924
4.80052
0.628385
4.13589
0.527049
3.43671
0.391902
2.74397
0.228347
2.01034
0.0775479
1.36042
0.70729
0.0349069
-0.103758
0.0760145
-0.141354
0.0897164
0.0488307
0.164061
0.743456
0.235804
1.61529
0.283078
2.29634
0.310242
2.84543
0.330913
3.38963
0.34373
3.91555
0.345441
4.54083
0.33923
4.59288
0.387857
4.25707
0.478966
4.83904
0.475899
4.80359
0.415376
4.19641
0.337134
3.51496
0.23939
2.84171
0.124389
2.12534
0.0257851
1.45903
0.733075
0.0300041
-0.133762
0.0471206
-0.158471
0.0073135
0.0886379
0.0133565
0.737413
0.0633154
1.56533
0.116308
2.24335
0.162234
2.7995
0.198661
3.3532
0.227689
3.88652
0.241716
4.5268
0.236298
4.5983
0.257235
4.23613
0.309584
4.78669
0.300862
4.81231
0.253399
4.24388
0.192384
3.57597
0.122745
2.91135
0.0477336
2.20036
-0.00971361
1.51647
0.723361
0.00774701
-0.141509