/*--------------------------------*- C++ -*----------------------------------*\
  =========                 |
  \\      /  F ield         | OpenFOAM: The Open Source CFD Toolbox
   \\    /   O peration     | Website:  https://openfoam.org
    \\  /    A nd           | Version:  9
     \\/     M anipulation  |
\*---------------------------------------------------------------------------*/
FoamFile
{
    format      ascii;
    class       volScalarField;
    location    "22";
    object      p;
}
// * * * * * * * * * * * * * * * * * * * * * * * * * * * * * * * * * * * * * //

dimensions      [0 2 -2 0 0 0 0];

internalField   nonuniform List<scalar> 
918
(
0.23057
0.91086
0.0198895
0.22978
-0.000959559
0.877976
-0.831403
0.405658
0.21068
-0.443819
-0.231044
0.201076
0.738419
0.505367
-1.46049
-0.0203493
0.362465
-0.71282
0.209468
-0.00100493
0.477285
0.217315
0.220337
0.210909
0.271263
0.494512
0.619006
0.00979982
0.00222212
0.00234556
0.00129184
-0.012736
-0.0122256
0.761599
0.812713
0.83538
0.179372
0.00388193
-0.68275
-0.757582
-0.744638
-0.881027
0.396038
0.400723
-0.487627
0.407416
0.422493
0.198108
0.20997
0.210844
0.2121
0.210993
0.212403
0.157415
-0.44346
-0.475098
-0.437995
-0.443618
-0.18798
-0.286685
-0.33672
-0.191981
-0.14879
0.135426
0.198096
0.195365
0.205474
0.215248
0.85041
0.822293
0.848441
0.762195
0.778689
0.716357
0.688926
0.525477
0.547006
0.491522
0.48154
-1.90461
-2.87903
-0.857924
-0.598574
0.000149415
-0.0281515
-0.0324497
0.349426
0.355228
0.359994
0.374934
0.765009
-0.706009
-0.850147
0.209664
0.208445
0.21692
0.217617
0.213605
0.212727
0.00581095
-0.000169601
-0.00926299
0.00331848
-0.00303914
0.461178
0.454598
0.211465
0.208515
0.223287
0.245446
0.234641
-0.0215893
0.281075
0.301639
0.302674
0.478466
0.475188
0.482896
0.592347
0.555796
0.656379
0.679506
0.0117248
0.00428256
-0.0224176
-0.0151355
-0.0193921
0.175831
0.169138
0.193307
0.182767
0.185142
-0.080111
-0.215733
0.0879368
0.111148
-0.589475
-0.656872
-0.769447
-0.780926
-0.893083
0.239798
0.386596
0.389601
-0.505144
-0.422268
-0.566576
-0.34727
-0.416291
0.188696
0.195403
0.190549
0.205714
0.200349
0.202273
0.214197
0.211274
0.212856
0.205264
0.322098
0.090507
0.0758983
-0.573233
-0.477041
-0.560344
-0.445104
-0.438513
-0.161299
-0.146293
-0.187314
-0.175337
-0.439449
-0.391262
-0.41267
-0.1086
-0.0756695
0.128015
0.119054
0.146082
0.151996
0.190151
0.190852
0.193416
0.191699
0.639578
0.661867
0.669534
0.643341
-3.89219
-6.71983
-0.264125
-0.121102
0.00229861
0.00412378
0.00395346
0.00624382
0.00123177
-0.00165249
-0.118635
-0.0964364
-0.0468835
-0.0626882
0.336678
0.33932
0.679342
0.671712
0.66552
0.618781
0.19782
0.199931
0.205333
0.201206
-0.0421566
-0.00989063
-0.024455
0.42306
0.441754
0.437989
-0.0567477
-0.143016
0.0246289
0.0518072
0.322621
0.306107
0.323013
0.365265
0.403243
0.686958
0.705377
0.703546
0.712152
0.756194
0.77261
0.737954
0.156732
0.166429
0.16161
0.196856
0.194331
0.195537
0.190413
0.192208
0.1895
-0.369601
-0.757001
0.174253
0.19277
0.154201
0.161948
0.326476
0.394066
0.37153
0.378935
0.382685
-0.282746
-0.346419
0.00393005
-0.0406973
0.0771915
0.10842
0.0923113
0.610707
0.571349
0.62131
0.594569
0.556158
0.581392
-0.708864
-2.23945
-1.34087
0.2433
0.0489175
0.139992
-0.15555
-0.179654
-0.15615
0.655378
0.734515
0.364009
0.523561
0.542388
0.44488
0.47563
0.528972
0.454357
0.488696
0.52447
0.505819
0.196263
0.177586
0.168979
0.458361
0.515376
-0.169744
-0.220707
-0.273281
-0.134705
-0.0735788
-0.10619
0.705736
0.580843
0.662492
0.208308
0.208981
0.0115132
0.0144254
0.212968
0.212977
0.00576436
-0.00213813
0.121338
-1.17258
-0.180455
0.201215
0.19197
0.208596
-0.408926
0.0971599
-0.297771
-0.24494
-0.0900001
0.19872
0.144758
0.111605
0.0080731
-0.00483991
-0.0133668
-0.520573
0.20594
0.204229
0.20812
0.20913
0.209796
0.00734207
0.00767112
0.0060539
-0.00491125
0.00333963
0.00260595
0.174048
0.18957
-0.477997
0.208199
0.210402
0.210152
0.203064
0.208871
0.207051
-0.00104157
-0.00256729
-0.0154847
-0.0702214
0.0449126
0.377879
0.483863
0.333641
0.104105
-0.140529
0.273161
0.342081
0.239557
0.405849
0.374198
0.39495
-0.120506
-0.26678
-0.110484
-0.165101
0.199258
0.197963
0.190122
0.187306
0.203679
0.201834
0.206117
0.202985
0.20596
0.207488
-0.391273
-0.421666
-0.403599
-0.461718
0.0508615
0.300321
-0.0107818
0.0657141
-0.133383
-0.266603
-0.199353
-0.381832
-0.410941
-0.551598
-0.145368
-0.230067
-0.269977
-0.0259035
-0.15481
-0.37486
-0.228124
-0.284563
0.193107
0.191116
0.199023
0.205752
0.152632
0.154754
0.127201
0.143881
0.130868
0.0767156
0.109686
0.0873454
0.00626698
0.0101924
0.00481794
-0.00416749
-0.0178646
0.00443209
0.00974574
0.0149879
0.000865168
0.000623863
-0.0170527
-0.0120966
-0.481984
-0.594623
0.654178
0.620717
-0.208481
0.195128
0.201515
0.198318
0.203326
0.206238
0.206979
0.204748
0.201414
0.190435
0.192412
0.188156
0.188929
-0.421289
-0.556936
-0.378292
-0.443183
-0.189888
0.312699
0.0575164
-0.00146075
-0.00560893
0.205193
0.603171
0.410289
0.43533
0.461157
-0.671003
-0.267436
-0.600448
0.0193638
-0.162168
0.374332
0.42757
0.451675
0.39696
0.345775
-0.443259
0.209471
-0.361923
-0.319192
-0.130795
-0.231741
0.421277
0.358034
0.364557
0.385196
0.407683
0.36339
0.341484
0.338638
0.376591
0.380969
0.178489
-0.0381387
-0.0838094
-0.119809
0.344648
0.217844
0.271494
0.190454
0.194107
0.196931
0.195462
0.178792
0.185731
0.181684
0.18722
0.1899
0.199342
0.199465
0.195065
0.197217
-0.422123
-0.427642
-0.380373
-0.444807
-0.448623
-0.491265
-0.404992
-0.200492
-0.231121
-0.0737198
0.0302903
-0.247354
-0.387905
-0.357651
-0.330901
-0.121815
-0.0987704
-0.329169
-0.137213
-0.174022
-0.223374
-0.0183991
-0.0212875
-0.453239
-0.542476
-0.522797
-0.451581
-0.246269
-0.203627
-0.17286
-0.174246
-0.312602
-0.159703
-0.0974247
-0.486593
-0.557096
-0.54603
-0.45297
0.00186257
-0.00517025
-0.0177387
-0.0664355
-0.0443112
-0.0691557
0.188858
0.189275
0.189421
0.20239
0.214264
0.229513
0.195328
0.171718
0.165073
0.167074
0.142994
0.151696
0.147882
0.160176
0.178611
0.18561
0.185254
0.187248
0.171872
0.172402
0.162
0.165644
0.143712
0.126831
0.116644
0.00364993
0.00505549
0.0027813
-0.00469548
0.00915687
0.00513779
-0.0497717
-0.0139272
-0.0258396
-0.0215019
-0.0686763
0.0139127
0.00767103
-0.402307
-0.328881
-0.508417
-0.536322
-0.606705
0.562873
0.674628
0.508731
0.28724
0.286802
0.513541
0.610724
0.265257
0.435285
0.465472
0.20218
0.473171
0.200083
0.199378
0.196817
0.196396
0.197773
-0.333877
-0.238574
-0.224398
-0.173512
-0.060602
0.0535818
-0.0381364
-0.152014
-0.0119314
-0.00193476
0.30745
0.323314
0.267144
0.292912
0.293101
0.118964
0.194266
0.247914
0.20473
0.247615
0.269461
0.230896
0.260882
0.207925
0.167082
0.166229
0.113679
0.13356
0.111524
0.0945502
0.190027
0.169304
0.178333
0.171626
0.190713
0.218178
0.213495
0.237241
0.25
0.176403
0.139341
0.147831
0.174264
0.138285
0.150708
0.164713
-0.127013
-0.224674
-0.135473
-0.428861
-0.336045
-0.351948
-0.397546
-0.361514
-0.0744297
-0.778987
-0.744699
-1.3829
0.143722
0.631665
0.376569
0.349897
0.40585
0.38329
0.386784
0.418424
0.423911
0.334857
0.350801
0.355969
0.304011
0.328985
0.360637
0.356141
0.188966
0.0701766
0.0594396
0.0236087
-0.0962063
-0.0665174
0.134386
0.058548
-0.0125557
-0.00681073
0.154189
0.0476824
0.10976
0.147759
0.0807928
0.0400454
0.234889
0.302606
0.292577
0.266626
0.182048
0.193731
0.21906
0.255167
0.280415
0.314738
0.186489
0.192355
0.193645
0.191346
0.188792
0.191435
0.191384
0.193958
0.194904
0.197595
0.196636
-0.467628
-0.510795
-0.44432
-0.455616
-0.397368
-0.372742
-0.279358
-0.329359
-0.485621
-0.448286
-0.42376
-0.431386
-0.459137
-0.482649
-0.203707
-0.192523
-0.178364
-0.237252
-0.048302
0.0875088
0.144712
0.0268745
-0.0719847
-0.0371324
-0.014252
-0.464292
-0.383554
-0.518544
-0.362047
-0.392759
-0.276242
-0.214135
-0.230216
-0.32031
-0.339907
-0.149132
-0.0241075
-0.0496864
-0.0724175
-0.0529219
-0.0317469
0.17523
0.17019
0.16863
0.164184
0.163346
0.174499
0.179011
0.181438
0.186776
0.187756
0.179115
0.183275
0.186468
-0.0166728
0.00900168
0.010456
-0.0351751
-0.00552698
0.00418368
-0.0115676
-0.204665
-0.282248
-0.282746
-0.320984
-0.451225
-0.393311
0.139433
0.120782
0.144872
0.351164
0.211081
0.125988
0.199776
0.310661
-0.0519674
0.134197
-0.0294708
0.537063
0.426048
0.565613
0.209385
-0.102196
0.0435437
0.0982327
-0.0993907
-0.0247746
-0.00121166
-0.112334
-0.0788458
-0.0510719
0.0490102
-0.0771897
-0.108731
-0.354181
-0.171396
-0.0371588
-0.0572361
0.0705163
0.131884
-0.0921661
-0.172433
-0.209265
0.29694
0.316485
0.333088
0.305047
0.328809
0.253027
0.244584
0.263213
0.274067
0.267106
-1.11404
-0.825001
-1.76566
-1.07508
-0.629345
0.173349
0.129613
0.424322
0.315224
0.395879
0.377148
0.336118
0.297314
0.307591
0.345744
0.0468482
0.15348
0.127772
0.136952
0.0417324
-0.0241368
0.26964
0.264146
0.299768
0.323551
0.292987
0.325463
0.184882
0.184531
0.183544
0.180857
0.179241
0.181156
-0.322105
-0.397777
-0.259085
-0.276742
-0.32552
-0.379274
-0.022175
-0.048966
-0.0445189
-0.0357471
0.00216594
-0.0247626
-0.179154
-0.233582
-0.301022
-0.272261
-0.335262
-0.402021
-0.423425
-0.317246
-0.226283
-0.234946
0.0710906
0.319622
0.147971
0.312289
0.14427
0.204464
0.144203
0.135894
0.171103
0.0387391
0.115621
-0.139746
-0.637825
-0.545848
0.433736
0.455251
0.236238
0.041302
-0.181831
0.0167517
0.217721
0.15681
0.196934
0.263659
0.256678
-0.347387
-0.271705
-0.0391749
0.188152
-0.11638
-0.123344
-0.127505
0.0362787
-0.030969
)
;

boundaryField
{
    wall-4
    {
        type            zeroGradient;
    }
    velocity-inlet-5
    {
        type            zeroGradient;
    }
    velocity-inlet-6
    {
        type            zeroGradient;
    }
    pressure-outlet-7
    {
        type            fixedValue;
        value           uniform 0;
    }
    wall-8
    {
        type            zeroGradient;
    }
    frontAndBackPlanes
    {
        type            empty;
    }
}


// ************************************************************************* //
