/*--------------------------------*- C++ -*----------------------------------*\
  =========                 |
  \\      /  F ield         | OpenFOAM: The Open Source CFD Toolbox
   \\    /   O peration     | Website:  https://openfoam.org
    \\  /    A nd           | Version:  9
     \\/     M anipulation  |
\*---------------------------------------------------------------------------*/
FoamFile
{
    format      ascii;
    class       volVectorField;
    location    "22";
    object      U;
}
// * * * * * * * * * * * * * * * * * * * * * * * * * * * * * * * * * * * * * //

dimensions      [0 1 -1 0 0 0 0];

internalField   nonuniform List<vector> 
918
(
(0.985154 -0.000528289 0)
(0.00500544 2.96625 0)
(-0.0124201 1.56541 0)
(0.979695 0.00216499 0)
(-0.00253277 1.54876 9.63466e-21)
(-0.00703425 2.94879 -1.86414e-18)
(0.853671 1.19671 7.31792e-19)
(0.403851 0.182953 -8.92676e-21)
(0.999905 -0.000308529 0)
(0.0707975 0.831519 0)
(-0.0596814 0.886094 0)
(0.75271 -0.0118875 0)
(0.011096 2.93039 0)
(0.00162476 2.79484 0)
(-0.0177264 3.16705 1.08555e-18)
(-0.000586783 1.42841 2.27582e-20)
(0.520203 0.0797288 5.61635e-19)
(0.191841 1.20653 6.4119e-19)
(0.963055 0.00513132 0)
(0.00210969 1.26713 0)
(0.131504 0.240116 -4.73186e-19)
(1.00207 -0.00499019 0)
(1.00022 -0.00976572 0)
(0.97574 -0.00645283 0)
(0.663801 -0.0387338 0)
(0.0173262 2.63327 0)
(-0.0151367 2.91018 6.43582e-19)
(-0.0248561 1.57617 0)
(-0.0321119 1.71858 0)
(-0.0249009 1.56673 0)
(-0.00576113 1.86449 0)
(0.00451693 1.57184 -7.61939e-21)
(-0.000726795 1.44096 0)
(-0.0206264 2.98759 -6.51754e-23)
(-0.0167024 3.0053 1.449e-18)
(0.00210299 3.00021 0)
(0.870782 -0.00933411 0)
(0.396044 0.933823 -3.36019e-20)
(0.832019 1.21538 -1.02225e-18)
(0.978447 1.05011 9.59482e-19)
(0.699298 1.31156 -1.69805e-19)
(0.697561 1.30129 9.52796e-19)
(0.440551 0.273892 8.70954e-21)
(0.434899 0.169552 0)
(1.16218 0.561035 0)
(0.405585 0.282595 4.07699e-20)
(0.361204 0.18259 -4.23107e-20)
(0.919538 -0.00740791 0)
(1.00027 8.57912e-05 0)
(0.999909 0.000321543 0)
(1.00356 -0.00779556 0)
(1.00095 -0.00103512 0)
(1.00017 1.38452e-06 0)
(0.0674767 1.81141 -2.96108e-19)
(0.0210343 0.968114 0)
(0.0899395 0.924754 0)
(0.0256908 0.886579 0)
(0.0128797 0.741741 0)
(-0.047035 1.58571 0)
(-0.0660946 0.927309 0)
(-0.0389018 0.74806 0)
(-0.0568148 1.06837 0)
(-0.0459708 1.02111 0)
(0.836661 -0.00627106 0)
(0.857437 0.0128739 0)
(0.769682 -0.000864326 0)
(0.848484 0.0168404 0)
(0.739699 -0.014677 0)
(0.0146991 3.0004 6.82309e-19)
(0.0115192 3.00789 0)
(0.00613471 3.00284 0)
(0.0135335 2.99732 7.60472e-24)
(0.00799877 2.95847 -1.01408e-18)
(0.0144893 2.98211 0)
(0.0107985 2.90362 0)
(0.0248594 2.93064 1.36066e-24)
(0.00423634 2.82505 0)
(0.0311456 2.91568 0)
(-0.00616704 2.7439 0)
(0.31124 3.56733 0)
(-0.132515 3.64953 0)
(0.1411 3.25793 -1.01026e-18)
(-0.0112138 2.99032 0)
(-0.029616 1.83628 0)
(0.0153249 1.60966 -2.24496e-20)
(0.00151156 1.42479 3.61913e-20)
(0.5784 0.154028 -1.93305e-19)
(0.519153 0.0504184 -1.87757e-19)
(0.565234 0.177961 -5.8217e-19)
(0.513206 0.107689 -3.92141e-19)
(0.211448 0.898683 0)
(0.274265 1.35296 -6.66316e-19)
(0.393801 1.31318 1.09598e-18)
(0.98762 0.00853169 0)
(0.942218 0.00595718 0)
(1.00029 0.000572406 0)
(1.00287 0.00929118 0)
(1.00303 0.00848768 -1.08346e-18)
(0.991939 0.0096596 8.18185e-19)
(-0.0139936 1.42688 0)
(-0.012528 1.24577 0)
(-0.0331518 1.58303 0)
(-0.0195253 1.48231 0)
(-0.000796148 1.30575 0)
(0.193979 0.249954 1.45863e-19)
(0.240178 0.226871 0)
(0.993549 -0.00829291 0)
(0.95438 -0.00639688 0)
(0.816703 0.0255187 0)
(0.783351 0.0372597 0)
(0.716551 -0.0297519 0)
(0.985358 -0.003582 0)
(0.724615 0.0524611 0)
(0.572664 -0.0182337 7.49842e-19)
(-0.036059 2.86504 3.27657e-19)
(0.0431447 2.90791 0)
(0.0562943 2.88357 0)
(-0.00557686 2.69713 0)
(-0.0130119 2.98539 5.90698e-19)
(-0.0181873 2.89554 0)
(-0.0153061 2.98815 -1.87044e-18)
(-0.0134287 2.92525 6.46145e-19)
(-0.033575 1.80821 0)
(-0.0283177 1.81053 0)
(0.00701502 1.58618 5.6758e-22)
(0.00722171 1.56259 0)
(-0.00522673 1.43657 0)
(0.937069 -0.00625316 0)
(0.855739 -0.00931244 0)
(0.864825 0.00843844 0)
(0.94863 -0.00750028 0)
(0.883165 -0.00865524 0)
(0.509952 1.12944 3.11219e-20)
(0.561695 1.1843 0)
(0.355515 0.872135 4.05254e-21)
(0.298706 0.733536 0)
(0.938163 1.08691 -2.77232e-19)
(1.05041 0.884635 5.67921e-19)
(0.392083 1.40385 0)
(0.55152 1.37944 0)
(0.55345 1.33545 0)
(0.097557 0.153781 -1.31116e-19)
(0.484233 0.257539 0)
(0.467566 0.156465 1.11939e-19)
(1.02053 0.938337 0)
(1.08683 0.78201 0)
(1.11253 0.724623 -4.97282e-19)
(1.14229 0.620398 0)
(1.19347 0.403971 5.79225e-20)
(0.957153 -0.00893835 0)
(0.962196 -0.0102078 0)
(0.901026 -0.00807804 0)
(0.984179 -0.00914219 0)
(0.974513 -0.00940174 0)
(0.936886 -0.006279 0)
(1.00019 0.00233705 0)
(1.00085 0.0013128 0)
(0.999931 0.000862144 0)
(0.0289369 2.0179 1.79611e-19)
(0.131249 1.71051 0)
(0.00338492 2.10435 2.01587e-19)
(0.0187156 1.87698 -1.16414e-19)
(0.134898 1.19895 -5.3136e-19)
(0.0670987 1.05503 0)
(0.100253 1.05793 0)
(0.00759224 0.826244 0)
(-0.00150484 0.682165 0)
(-0.0649125 1.84292 2.60682e-21)
(-0.0713419 1.73502 0)
(0.0119017 1.7401 1.57907e-19)
(-0.0350829 1.45648 -3.01331e-19)
(2.53263e-05 0.786639 0)
(-0.034416 0.825572 0)
(-0.0202932 0.676464 0)
(-0.0499848 1.1982 0)
(-0.0328163 1.1176 0)
(0.929924 0.0144505 0)
(0.856001 -0.00206968 0)
(0.916204 0.0039931 0)
(0.8342 -0.00986866 0)
(0.812041 0.00541297 0)
(0.903222 0.0158572 0)
(0.880803 0.0163228 0)
(0.786739 0.00413255 0)
(0.00585541 3.06485 -5.99079e-21)
(0.0165284 3.05802 0)
(0.0147374 2.96914 0)
(0.00854947 2.8763 0)
(0.929641 3.98744 0)
(1.24562 3.31739 1.01611e-18)
(0.0715247 3.08228 0)
(-0.0263449 2.91069 0)
(-0.0373648 1.80095 0)
(-0.0415042 1.82785 0)
(-0.0341161 1.81225 0)
(-0.0137609 1.85332 5.05445e-21)
(-0.0335671 1.84919 0)
(-0.0225963 1.84286 0)
(0.0163686 1.42566 -3.65726e-20)
(0.0431138 1.6323 -9.41895e-20)
(0.0274056 1.62087 -3.67498e-20)
(0.006759 1.42251 0)
(0.609828 0.124696 2.849e-19)
(0.537352 0.0200484 -2.77725e-19)
(0.264152 1.53094 0)
(0.25773 0.66894 -2.10222e-19)
(0.172224 1.61407 -7.05483e-19)
(0.242448 1.15844 7.07553e-19)
(0.903465 0.00663747 0)
(0.967752 0.0107281 0)
(0.97487 0.0106942 0)
(0.924178 0.00662572 0)
(-0.0410159 1.30543 0)
(-0.0246361 1.38191 0)
(-0.0260634 1.19137 0)
(0.361184 0.28321 3.75899e-19)
(0.305131 0.264961 -4.58786e-19)
(0.312268 0.204165 0)
(1.11018 0.0855939 -3.65404e-21)
(1.09531 0.0396123 0)
(1.02256 0.0391008 0)
(0.924271 0.00426452 0)
(0.633848 0.0938438 0)
(0.665341 0.0684137 -1.20693e-18)
(0.552641 0.00497098 4.61098e-19)
(0.00975819 2.9821 4.16472e-19)
(-0.03216 2.8677 4.85803e-20)
(0.00375798 3.05016 -1.29475e-20)
(0.0200349 3.04353 4.65972e-19)
(-0.015035 2.99656 2.1489e-20)
(-0.012972 2.94945 -8.70379e-23)
(-0.0172626 3.012 -4.07844e-19)
(0.0147641 3.02411 2.94637e-19)
(0.00727286 3.03667 -4.60041e-19)
(0.925729 -0.00122538 0)
(0.935076 -0.00241001 0)
(0.841259 -0.00749528 0)
(0.957262 0.0113791 0)
(0.94401 0.0131723 0)
(0.883396 0.00688 0)
(0.919158 0.0147772 0)
(0.92789 0.014547 0)
(0.839941 0.00750201 0)
(0.718185 1.41412 3.30939e-19)
(0.753578 1.52517 0)
(0.220858 0.357092 2.49882e-20)
(0.183498 0.590075 2.02968e-19)
(0.266797 0.69331 -1.13449e-19)
(0.229055 0.575285 2.0697e-19)
(0.29355 0.706563 7.44838e-19)
(0.108062 0.188623 2.10084e-19)
(0.546368 0.214144 4.20944e-19)
(0.515858 0.241052 1.04524e-19)
(0.495676 0.139059 2.11448e-19)
(1.18287 0.461007 2.96516e-19)
(1.20053 0.256031 3.0969e-19)
(-0.056297 2.10979 3.73597e-20)
(-0.029098 1.89444 0)
(0.973837 0.0296576 0)
(0.94107 0.0192757 0)
(0.882191 -0.00277695 0)
(0.0109656 3.07445 0)
(0.0198508 2.9441 7.98414e-19)
(0.0165252 2.95637 0)
(0.00618503 2.85077 -7.9189e-19)
(0.00617636 3.09142 1.89064e-19)
(0.00738277 3.08273 0)
(0.787556 1.83029 -2.40364e-19)
(1.25287 2.51346 6.62166e-19)
(0.770333 1.97144 -1.49733e-18)
(0.0209943 2.98356 -3.04047e-19)
(0.0373177 3.00654 0)
(-0.0322892 2.88172 0)
(0.0661089 1.66175 7.88853e-21)
(0.0624077 1.6662 2.78817e-19)
(0.0438709 1.43094 -1.05257e-20)
(0.276878 1.34152 6.82213e-19)
(0.214704 0.447875 -4.70799e-19)
(0.0637204 1.94049 4.71125e-19)
(0.131543 1.83062 -5.91137e-19)
(0.193314 1.44571 8.5651e-20)
(0.00309829 3.11811 -1.11475e-18)
(0.0176313 3.1178 1.19188e-18)
(-0.00874089 2.98108 5.11723e-19)
(-0.00268415 2.97769 -4.52495e-19)
(-0.0214855 2.88228 -5.21173e-19)
(0.00878157 3.09902 -1.38433e-18)
(0.00224992 3.10666 1.34503e-18)
(0.231159 0.623144 0)
(0.185357 0.609759 -3.95649e-19)
(0.116802 0.204616 1.78395e-19)
(0.320114 0.828905 6.34089e-19)
(0.170455 0.22492 -9.72771e-19)
(1.19494 0.171882 -5.71808e-20)
(1.19983 0.308591 0)
(1.18372 0.120021 1.21227e-19)
(-0.0520728 1.98382 2.11285e-21)
(-0.0518764 2.0646 0)
(-0.044643 1.85033 0)
(0.329992 1.22682 -2.47561e-19)
(0.349809 1.04051 -5.2494e-19)
(0.188466 0.320646 8.97843e-19)
(1.00585 -0.0110327 0)
(1.0076 -0.00761123 1.97768e-19)
(-0.0351622 1.78544 0)
(-0.0427327 1.79026 0)
(1.00223 0.00343088 1.73765e-21)
(1.0035 0.00920947 4.06722e-19)
(-0.0184756 1.86492 -6.56695e-21)
(-0.0126542 1.87086 0)
(0.0395014 3.18314 1.13086e-19)
(0.40031 3.5026 0)
(1.11915 0.644684 6.51411e-20)
(1.01319 0.0127992 -2.03145e-21)
(1.02104 -0.0106148 0)
(1.00174 -3.25639e-05 4.18247e-23)
(0.158425 1.29863 0)
(0.17804 2.56578 0)
(-0.206122 1.12974 0)
(-0.217573 2.64042 -2.04106e-19)
(-0.207155 2.3381 -4.04527e-20)
(1.00734 0.0162733 3.10746e-21)
(1.05091 0.00340624 0)
(1.07598 0.030537 0)
(-0.0465432 1.82758 0)
(-0.0364332 1.95065 0)
(-0.0788845 1.70496 0)
(0.297081 1.45811 -4.38972e-19)
(1.01114 -0.00963206 0)
(1.00946 -0.0152604 0)
(1.00244 0.000433365 2.51649e-19)
(1.00549 -0.00499742 -2.97485e-19)
(1.00123 -0.00107511 0)
(-0.0610156 1.80747 0)
(-0.0437192 1.78211 0)
(-0.0459341 1.79814 0)
(-0.0656598 1.71238 0)
(-0.0400067 1.74796 0)
(-0.0486468 1.74006 0)
(1.03352 -0.0102043 0)
(1.02061 0.015281 -1.17775e-21)
(0.780613 1.26226 5.19443e-19)
(1.00229 0.000281173 -2.50865e-19)
(1.00391 0.00526212 2.96662e-19)
(1.00124 0.00209332 0)
(1.013 0.0100949 2.45109e-19)
(1.00819 0.00823089 -3.04391e-19)
(1.00871 0.014566 0)
(-0.0341193 1.94485 0)
(-0.0255676 1.90354 -7.16172e-21)
(-0.0218856 1.90901 7.69218e-21)
(1.19161 0.25797 -6.97462e-20)
(1.12996 0.0889672 0)
(0.0522383 3.07765 -5.17035e-19)
(0.0683005 2.85132 -4.13911e-20)
(0.147729 3.197 8.16463e-19)
(0.142141 3.22629 -1.17454e-21)
(0.139883 3.24203 0)
(0.0216954 3.13834 1.12095e-19)
(0.0806524 3.16227 5.03983e-19)
(0.0734631 3.18937 -2.1665e-19)
(0.0249821 3.12899 0)
(0.66222 0.32376 0)
(0.594259 0.369767 0)
(1.09228 0.672392 -2.49925e-19)
(1.09004 0.81143 3.86805e-19)
(1.1476 0.56086 0)
(1.17954 0.502842 0)
(1.0161 0.0130056 -4.53075e-19)
(1.0148 0.0140094 5.66167e-19)
(1.02516 -0.0104719 0)
(1.02337 -0.0122141 0)
(1.00697 0.00264285 0)
(1.01029 0.00321844 0)
(1.00477 0.00156058 0)
(1.00994 0.00601575 0)
(1.00808 0.00631545 0)
(1.00421 0.00447639 0)
(0.159762 1.2999 0)
(0.133123 1.17795 0)
(0.179151 1.38219 0)
(0.122743 1.36964 0)
(0.153669 2.58272 0)
(0.18956 2.6373 -2.14222e-19)
(0.102706 2.63851 0)
(0.0935845 2.63359 1.43762e-20)
(-0.0162993 2.70931 2.01916e-19)
(-0.181894 1.18835 0)
(-0.190667 1.20641 0)
(-0.171096 1.126 0)
(-0.0889684 0.986911 0)
(-0.305384 2.32107 3.51606e-19)
(-0.248889 2.46782 -1.82847e-19)
(-0.214531 2.63546 -2.5668e-19)
(-0.204597 2.56067 0)
(-0.193643 2.32653 9.65718e-20)
(-0.120754 2.2345 1.21362e-19)
(-0.351909 2.29096 -3.16293e-19)
(-0.3119 2.40554 2.44198e-19)
(-0.29026 2.5008 3.46895e-19)
(1.01673 0.0283107 4.4681e-19)
(1.01082 0.0167763 -5.50777e-19)
(1.00851 0.0256523 -4.67188e-19)
(0.991369 0.0121011 5.96528e-19)
(1.05124 0.00491817 0)
(1.03836 -0.0140424 0)
(1.07259 0.0380712 0)
(1.05677 0.0150037 0)
(1.05486 0.00908918 0)
(1.11374 0.0773198 0)
(1.08591 0.0489146 0)
(1.08836 0.0402744 0)
(-0.0414338 1.86848 -1.29474e-21)
(-0.0609177 1.84963 0)
(-0.0431426 1.85291 0)
(-0.0468866 1.99237 -2.96108e-21)
(-0.0349749 2.01387 7.99173e-22)
(-0.109599 1.81637 8.35117e-21)
(-0.0739554 1.80457 -8.47446e-21)
(-0.0938986 1.74364 0)
(-0.0705797 1.77129 0)
(-0.0629537 1.77653 0)
(-0.10531 1.67027 0)
(-0.07864 1.6036 0)
(0.382676 1.47439 8.34477e-19)
(0.406692 1.48952 3.26455e-19)
(0.591882 2.43426 -1.5556e-19)
(0.407432 2.52416 4.37565e-19)
(0.350336 2.09097 -4.69823e-20)
(1.02074 -0.00885253 0)
(1.01524 -0.00998595 0)
(1.0148 -0.0155436 0)
(1.0077 -0.00127554 0)
(1.00466 -0.00140355 0)
(1.00751 -0.00469685 0)
(1.00938 -0.00388027 0)
(1.01408 -0.00472966 0)
(1.02194 0.0158342 4.30632e-19)
(1.01738 0.0155285 -5.5373e-19)
(1.02346 0.0192358 -4.35478e-19)
(1.01819 0.0193799 5.45836e-19)
(0.754783 1.31087 0)
(0.687326 1.36809 6.15329e-19)
(0.857235 1.20171 3.56748e-19)
(0.899242 1.16019 -4.74937e-19)
(1.15101 2.61753 -5.52634e-19)
(0.835532 0.105997 2.92479e-19)
(1.13009 0.101964 0)
(1.17435 0.181519 6.06951e-20)
(1.15994 0.15732 2.68681e-21)
(0.984504 0.12252 0)
(0.147081 2.96617 1.33148e-19)
(0.124598 2.87194 -6.68576e-19)
(0.0364814 2.35743 4.82655e-19)
(0.102089 0.0866723 -2.03562e-19)
(0.344805 3.43063 -4.42405e-19)
(0.199151 3.32145 0)
(0.240299 3.36596 5.76151e-19)
(0.254567 3.04011 -7.56347e-19)
(0.349378 3.19986 0)
(0.00638269 3.12088 2.6287e-20)
(0.0170732 3.12973 -3.36335e-19)
(0.0149481 3.12562 4.9503e-19)
(0.0374633 3.14024 0)
(0.0362112 3.15153 0)
(1.21697 2.61858 0)
(0.516597 0.853498 -2.37505e-19)
(1.02138 0.985282 -2.02065e-19)
(0.957068 1.05234 0)
(0.800007 0.948422 5.3999e-20)
(1.04276 0.862382 3.02121e-20)
(0.406282 0.447094 -5.41833e-19)
(0.700254 0.338134 -2.29117e-20)
(0.687034 0.280286 2.24544e-19)
(0.607592 0.399083 1.77835e-20)
(0.545229 0.38016 -7.30465e-19)
(0.671965 0.359057 0)
(0.702543 0.42675 3.70547e-19)
(0.700177 0.423944 0)
(0.634159 0.390973 0)
(0.620614 0.329647 0)
(0.770623 0.58893 1.32247e-19)
(1.18997 0.27414 4.30895e-20)
(1.18686 0.40534 0)
(1.19856 0.359396 0)
(0.767626 0.195784 3.36871e-19)
(0.82284 0.527523 -1.83473e-19)
(0.736879 0.497135 3.00242e-19)
(0.913997 0.420097 -2.81348e-19)
(1.01931 0.0144661 2.98008e-19)
(1.01771 0.0139039 -3.05074e-19)
(1.01544 0.0153772 0)
(1.03468 -0.00697472 0)
(1.02911 -0.00968265 -2.73143e-19)
(1.02721 -0.0121656 2.70192e-19)
(1.02548 0.00830949 0)
(1.02443 0.0127015 0)
(1.01144 0.00367714 0)
(1.01427 0.0089174 0)
(1.01504 0.00344649 0)
(1.01407 0.00212304 0)
(0.149008 1.15111 0)
(0.103411 1.00692 0)
(0.19596 1.40093 3.70103e-19)
(0.269017 1.45307 2.54155e-19)
(0.186811 1.43759 5.68387e-19)
(0.195772 1.43372 -9.20415e-19)
(0.179485 1.40707 0)
(0.137522 1.59154 2.45112e-19)
(0.151225 1.57967 0)
(0.335417 2.04066 6.82877e-20)
(0.345079 2.37597 2.36037e-19)
(0.150381 1.46442 -2.14266e-19)
(0.249296 1.37402 1.94161e-19)
(0.185964 1.38615 -1.55714e-19)
(0.262649 1.32088 3.14994e-19)
(0.220758 1.5728 0)
(0.27025 1.61921 -2.02433e-19)
(0.0504242 2.42814 1.47786e-19)
(-0.0226268 2.7129 0)
(0.0904457 2.44688 -2.09277e-19)
(0.0567603 2.52116 0)
(0.0738186 2.65871 -1.86948e-20)
(0.0126335 2.71458 0)
(-0.305179 1.48538 4.74745e-19)
(-0.272355 1.65438 0)
(-0.130887 1.29939 0)
(-0.226142 1.26697 -5.35174e-19)
(-0.203708 2.68342 -8.28933e-20)
(-0.0987853 2.75463 -3.0177e-19)
(-0.16068 2.71602 -1.68145e-21)
(-0.452191 2.09426 -8.66361e-20)
(-0.448175 2.04557 -1.3144e-19)
(-0.17554 1.30752 0)
(-0.130786 1.33833 0)
(0.0427594 1.8315 -7.07835e-19)
(-0.0324832 1.42622 -7.65017e-19)
(-0.0744755 1.64251 9.69663e-19)
(0.189851 1.81586 0)
(-0.116164 1.91761 -4.9069e-21)
(-0.0969645 1.97098 -3.30135e-21)
(-0.118885 2.01103 3.31138e-21)
(-0.413752 1.9737 1.04939e-19)
(-0.204164 2.16247 1.26708e-20)
(-0.236189 2.2279 -7.32658e-20)
(1.02076 0.0236017 -2.94816e-19)
(1.01823 0.0260396 2.93692e-19)
(1.01398 0.0214878 0)
(1.00751 0.048688 4.26986e-19)
(0.994294 0.0351938 -5.00494e-19)
(0.964864 0.0231567 5.79587e-19)
(1.00831 0.084091 -5.5265e-20)
(1.03941 -0.00933781 0)
(1.04162 -0.00863582 2.44491e-19)
(1.03348 -0.0180992 -2.46576e-19)
(1.05964 0.0423637 -1.35182e-20)
(1.05591 0.023841 1.20353e-19)
(1.05663 0.0515417 0)
(1.05008 0.0428423 -4.50415e-20)
(1.03927 0.028912 0)
(1.03521 0.0250541 0)
(1.02812 0.0118424 0)
(1.02663 0.0151755 0)
(1.04754 0.0267183 9.38651e-20)
(1.04644 0.0188408 -2.12462e-19)
(1.05144 0.0266985 -9.45054e-20)
(1.04954 0.0274694 -1.09764e-19)
(1.05858 0.0582548 1.96654e-19)
(1.07822 0.0515759 0)
(1.08314 0.0936204 0)
(-0.109568 1.90773 7.53336e-22)
(-0.0777379 1.85414 -1.15733e-21)
(-0.0888546 1.86615 0)
(-0.0713357 1.91428 -7.54117e-22)
(-0.0495307 1.87624 2.35174e-21)
(-0.0580783 1.89438 -2.24077e-22)
(-0.0964775 2.19795 -1.25996e-19)
(-0.124357 2.06042 1.59018e-21)
(-0.15028 2.11167 -1.3778e-20)
(-0.0523049 2.08591 3.36295e-20)
(-0.0571083 2.10954 -3.76525e-20)
(-0.147113 1.77612 -7.55053e-22)
(-0.13797 1.82334 1.15473e-20)
(0.3804 1.3951 -4.19262e-19)
(0.372157 1.36353 -4.03198e-19)
(0.63912 1.41706 -5.92336e-19)
(0.516535 1.47934 -3.17464e-19)
(0.55654 1.45555 0)
(0.589604 2.4079 1.23712e-19)
(0.662476 2.38933 2.25107e-19)
(0.408547 2.50198 7.89326e-20)
(0.404909 2.55424 -1.69385e-19)
(0.518123 2.51418 2.65995e-19)
(0.545226 2.44753 0)
(0.485433 2.4929 -3.57995e-19)
(0.24012 2.56955 6.16478e-19)
(0.350813 2.5503 -7.92991e-20)
(0.282333 2.62797 -9.30536e-19)
(0.923108 2.37488 2.14336e-19)
(0.819284 2.36969 0)
(1.01032 0.000367372 9.89575e-21)
(1.01485 -0.00579475 -8.12718e-21)
(1.01826 -0.00393143 -1.47029e-19)
(1.01503 -0.000582635 1.46964e-19)
(1.01225 0.00107525 0)
(0.621502 1.26303 0)
(0.624082 1.17193 0)
(0.730431 1.07657 0)
(0.623649 1.12002 0)
(1.18159 2.63402 5.58151e-20)
(1.06503 2.36879 0)
(0.835313 2.23641 -1.81138e-21)
(0.824025 2.47863 0)
(0.914862 2.56449 1.03573e-20)
(0.948524 2.52082 -6.92557e-21)
(0.843798 0.145607 0)
(0.812821 0.147382 8.43129e-20)
(0.928208 0.125702 4.30729e-19)
(0.866509 0.116093 -1.72291e-19)
(0.850145 0.0660611 -5.20287e-19)
(1.03699 0.215352 -2.45871e-19)
(0.956048 0.272283 -1.58721e-20)
(0.903245 0.272136 3.91489e-19)
(0.970635 0.19874 2.908e-19)
(0.93663 0.158936 -5.42233e-19)
(0.910346 0.171364 7.02776e-20)
(0.936396 0.234774 -1.36942e-19)
(0.913353 0.194017 0)
(0.971623 0.15807 2.59593e-19)
(1.0127 0.163666 0)
(1.00737 0.19043 0)
(1.07567 0.109661 8.32061e-20)
(1.03666 0.155623 -1.29935e-20)
(1.03099 0.217505 -4.66249e-20)
(1.06727 0.190495 0)
(1.02563 0.0285509 2.22765e-19)
(1.04289 0.0476804 2.6519e-19)
(1.04094 0.031801 -2.21501e-19)
(1.04004 0.0526265 -1.78633e-19)
(1.01962 0.0539578 -3.00243e-19)
(0.974669 0.124458 0)
(0.986262 0.0775051 0)
(0.968436 0.0426315 -2.08789e-19)
(0.934979 0.0577886 8.70179e-20)
(1.02766 0.0839762 2.51075e-19)
(1.04309 0.110603 -2.54718e-19)
(1.04682 0.136572 2.32725e-19)
(1.01285 0.123381 0)
(1.0524 0.0972142 0)
(1.03998 0.0800472 -1.06255e-19)
(1.03688 0.0809355 -2.01785e-19)
(0.575037 1.07835 -9.90426e-20)
(0.618932 1.44528 1.99785e-19)
(1.15695 2.76016 1.05332e-19)
(1.22404 3.09676 -7.15602e-20)
(1.24635 2.73503 5.64252e-19)
(1.27932 2.71865 -3.41083e-19)
(1.20552 2.35375 -8.0839e-21)
(1.21001 3.00054 1.97269e-19)
(1.22769 2.96578 -2.19822e-19)
(1.21624 3.25011 -2.69619e-19)
(1.37859 2.98143 3.73348e-19)
(1.37176 2.89833 0)
(0.51783 0.863233 -1.28194e-20)
(0.161178 1.28667 3.7422e-19)
(0.527391 0.522735 3.56123e-19)
(0.363107 0.292022 3.89964e-19)
(0.556101 0.413016 4.09097e-19)
(0.558119 0.483562 -6.52846e-19)
(0.563662 0.49672 5.37361e-19)
(0.522614 0.449062 -2.13875e-19)
(0.467615 0.385966 4.89358e-19)
(0.777148 0.250902 -1.88295e-19)
(0.728461 0.302589 0)
(0.722971 0.239372 1.08948e-20)
(0.728416 0.510326 1.89748e-19)
(0.6973 0.477555 -7.02012e-19)
(0.624557 0.479743 1.87576e-20)
(0.6376 0.457189 0)
(0.646536 0.726891 1.52603e-19)
(0.789706 0.750464 5.98746e-20)
(0.713198 0.835637 -7.80212e-20)
(0.835535 0.787452 -1.80999e-20)
(0.870358 0.830078 1.37331e-20)
(0.878827 0.832036 -1.4064e-20)
(0.810395 0.626964 -2.25675e-19)
(0.884802 0.679484 1.68203e-20)
(0.941646 0.696004 0)
(0.930853 0.674431 -1.58732e-20)
(0.981923 0.310497 6.24095e-20)
(1.09866 0.282614 5.79934e-21)
(1.02138 0.249015 1.00272e-19)
(0.965605 0.345162 -1.43974e-19)
(1.01612 0.403467 0)
(1.05917 0.390466 0)
(0.887833 0.355524 5.30549e-21)
(0.827429 0.283913 0)
(0.849669 0.272823 2.01843e-19)
(0.881911 0.27846 -5.73439e-21)
(0.906206 0.423105 7.69723e-19)
(0.869604 0.48024 1.95059e-19)
(0.873223 0.447952 -2.50293e-19)
(0.801996 0.433849 2.68633e-19)
(0.787945 0.432416 1.82342e-19)
(0.753263 0.414528 -1.79181e-19)
(1.02724 -0.00132964 2.37036e-19)
(1.01988 -0.000170047 0)
(1.0183 0.000720285 1.56991e-19)
(1.02196 -0.00116985 -3.53256e-19)
(1.02164 0.00395415 1.71096e-19)
(1.02072 0.0103664 -3.59403e-19)
(1.02164 0.00983363 0)
(1.02056 0.0107656 -7.5851e-20)
(1.01607 0.00761179 1.90316e-19)
(1.01692 0.0103341 -9.54698e-20)
(1.01769 0.00955414 6.99504e-20)
(-0.0603204 1.04533 0)
(-0.062264 1.22934 0)
(0.0461561 1.04632 0)
(0.0105579 0.928984 0)
(0.222473 1.3439 -8.49814e-19)
(0.218462 1.30727 2.74468e-19)
(0.232303 1.50687 1.79756e-19)
(0.218476 1.36688 -2.05245e-19)
(0.119345 1.50106 6.95733e-19)
(0.158359 1.45973 -5.22666e-19)
(0.257698 1.31529 -1.993e-20)
(0.221723 1.23121 5.85167e-19)
(0.143846 1.1723 8.63426e-20)
(0.0867694 1.18942 8.85842e-20)
(0.120007 2.40824 2.18727e-19)
(0.111893 2.43235 0)
(0.185741 2.07465 -2.44187e-20)
(0.183069 1.76014 -1.05457e-19)
(0.223119 2.07225 2.25253e-20)
(0.199485 2.44954 0)
(0.263818 2.40692 -1.40118e-19)
(0.29599 2.40964 9.9567e-20)
(0.208384 2.01339 6.00433e-20)
(0.148409 2.18503 7.99057e-21)
(0.146204 2.32008 0)
(-0.0291793 2.24826 7.01174e-19)
(-0.205553 2.62164 6.03757e-19)
(-0.167025 2.51842 0)
(-0.0385055 2.62328 -3.0972e-20)
(0.0166578 2.49423 -3.26594e-19)
(-0.335964 1.4157 -4.48873e-20)
(-0.292562 1.44772 6.5652e-19)
(-0.312347 1.53074 -1.37495e-19)
(-0.410267 1.53523 -2.80778e-19)
(-0.357278 1.46428 0)
(-0.296645 1.51606 0)
(-0.136516 1.56819 -3.48423e-20)
(-0.221385 1.60259 1.29705e-20)
(-0.274112 1.5295 0)
(-0.168417 1.43609 -3.51222e-20)
(-0.100116 1.48359 5.8766e-20)
(1.03908 0.00148181 0)
(1.0408 -0.00128665 -2.26008e-20)
(1.04672 0.0136211 -1.68792e-19)
(1.05077 0.0120936 0)
(1.05054 0.00947667 0)
(1.04013 0.00373749 -6.7194e-21)
(1.0346 0.00505034 2.78779e-19)
(1.03607 0.0111425 3.37065e-19)
(1.02823 0.0187504 0)
(1.0271 0.0197682 0)
(1.04145 0.0204863 1.69862e-19)
(1.03373 0.0218625 0)
(1.03049 0.0213065 0)
(-0.233753 1.94341 0)
(-0.172792 1.83123 9.26116e-22)
(-0.185897 1.90907 1.25177e-21)
(-0.194467 1.64619 0)
(-0.224374 1.79148 -1.34161e-20)
(-0.173451 1.75164 -3.91362e-21)
(-0.166555 1.69985 0)
(0.401814 1.67857 0)
(0.369657 1.29294 6.54976e-19)
(0.295742 1.34789 0)
(0.43015 1.27427 -8.47097e-19)
(0.472663 1.44416 0)
(0.446555 1.3858 3.99209e-19)
(1.02564 2.70316 -4.08949e-21)
(0.947563 2.4082 -2.70476e-19)
(0.882915 2.15899 3.23915e-19)
(0.83718 2.36313 1.31457e-19)
(0.844579 2.51612 0)
(0.905863 2.51154 0)
(0.897755 2.36926 0)
(0.908459 2.33542 -4.66021e-19)
(0.695425 2.49551 -2.49205e-20)
(0.802384 2.48508 -1.47725e-20)
(0.81005 2.45842 1.13022e-20)
(0.688408 2.37057 0)
(0.78502 2.36754 0)
(0.753588 2.37709 -2.23803e-19)
(0.769807 2.50196 0)
(0.586818 1.08771 0)
(0.479566 0.936345 4.30625e-22)
(0.524085 0.966925 -1.21381e-21)
(0.510345 1.05595 0)
(0.510511 1.01238 2.00727e-21)
(0.735781 0.86269 1.32413e-20)
(0.757739 1.00151 0)
(0.729535 0.957139 -6.19321e-20)
(0.610389 1.02307 0)
(0.612626 0.936007 0)
(1.16018 2.7803 5.78934e-20)
(1.13882 2.84463 1.26535e-19)
(0.931391 2.37399 -2.88488e-19)
(0.898828 2.34749 3.61189e-20)
(1.12288 2.74993 0)
(1.07379 2.72062 -4.32237e-20)
(1.07997 2.49338 -7.267e-20)
(0.972716 2.22881 -3.00172e-20)
(0.48336 1.37286 0)
(0.492195 1.06718 8.72633e-20)
(0.539725 1.14934 0)
(0.856549 0.217517 0)
(0.819821 0.178075 0)
(0.781032 0.161792 0)
(0.850175 0.22202 -3.17388e-19)
(0.798357 0.217014 1.97238e-19)
(0.941325 0.0508019 -1.79085e-19)
(0.952921 0.100778 0)
(0.925711 0.104895 8.08133e-20)
(0.887929 0.0806494 3.31149e-19)
(0.880459 0.0473823 -2.03377e-19)
(1.16673 3.37544 -9.85059e-19)
(1.2126 3.29496 0)
(1.16692 3.40213 -1.9401e-18)
(0.653039 3.56283 1.66527e-18)
(0.87965 3.12863 3.82099e-19)
(0.498866 0.886723 2.22483e-19)
(0.431087 0.873666 0)
(0.360018 0.553747 -8.44667e-20)
(0.444351 0.698486 3.85167e-19)
(0.534202 0.523295 -1.12804e-19)
(0.51873 0.547001 1.30498e-19)
(0.663265 0.527338 2.70203e-19)
(0.688766 0.542823 0)
(0.645186 0.622179 0)
(0.599038 0.551143 0)
(0.938682 0.585028 -5.08145e-20)
(0.871947 0.525271 -1.88631e-19)
(0.893641 0.558124 8.85189e-20)
(0.925408 0.499164 -1.38781e-19)
(1.02603 0.464376 0)
(1.03421 0.55741 -5.9999e-21)
(0.8229 0.390673 -4.05442e-19)
(0.824499 0.375098 -4.70345e-19)
(0.777847 0.387388 3.17943e-19)
(0.773322 0.356185 -3.58751e-19)
(0.822871 0.312147 -2.6717e-19)
(0.778241 0.314964 3.28687e-19)
(1.02597 0.00450061 -1.76146e-19)
(1.02583 0.00431588 3.5773e-19)
(1.0308 -0.00136093 2.25038e-19)
(1.03136 -0.001441 -2.70048e-19)
(1.03493 0.000496334 0)
(1.03169 0.00220813 -4.36518e-19)
(0.187399 1.78439 -1.01599e-19)
(0.174104 1.73265 0)
(0.195778 1.77688 -5.54947e-19)
(0.190397 1.75075 5.2123e-19)
(0.21558 1.60631 -3.32993e-19)
(0.285095 1.61967 0)
(-0.398821 1.9626 0)
(-0.357 1.72561 1.54229e-20)
(-0.303058 1.71574 -1.39843e-20)
(-0.254418 1.80433 1.56843e-21)
(-0.265584 1.96642 9.55161e-21)
(-0.308563 1.97824 -1.02305e-20)
(0.48157 1.38424 4.12443e-19)
(0.48359 1.38605 -4.42798e-19)
(0.441923 1.27553 4.16839e-19)
(0.434983 1.29388 -2.52773e-20)
(0.613729 1.28504 0)
(0.532122 1.36698 5.4409e-19)
(0.551719 1.39472 -5.27207e-19)
(0.448333 1.26243 -3.9916e-19)
(0.491373 1.22168 0)
(0.542265 1.18212 0)
(0.666089 2.45629 3.66103e-20)
(0.674815 2.47499 5.41733e-19)
(0.722016 2.49104 -3.72622e-19)
(0.632445 2.47437 -1.18933e-19)
(0.570612 2.57455 9.73886e-20)
(0.515548 2.54485 -2.96546e-19)
(0.960169 2.37108 -1.74523e-19)
(1.00411 2.39458 0)
(0.897789 2.14129 -2.40822e-19)
(1.04258 2.70016 0)
(1.04315 2.68737 0)
(0.623245 2.29607 2.44959e-19)
(1.0459 3.17678 4.85643e-19)
(0.917619 3.04636 -4.33063e-19)
(0.295071 0.971895 0)
(0.349355 0.844788 -1.52975e-19)
(0.49336 0.794044 -6.65965e-20)
(0.408309 2.05005 0)
(0.474633 2.79457 -2.66051e-19)
(0.435551 2.56048 0)
(0.664713 0.665834 -3.16219e-19)
(0.736004 0.652727 4.02061e-19)
(0.767167 0.602977 -3.92792e-19)
(0.666986 0.629778 -4.67007e-20)
(0.719992 0.584068 -1.90264e-19)
(1.0068 2.78362 -3.69198e-19)
(1.0394 2.8401 2.90965e-19)
(0.651428 2.19601 4.80799e-20)
(0.604009 1.73828 -6.55455e-20)
(0.705443 1.92743 1.1323e-19)
(0.991062 2.46611 -6.8138e-20)
(0.993823 2.46642 -1.66759e-19)
(0.672338 1.88169 -5.39881e-21)
(0.458425 1.3501 -8.12503e-20)
)
;

boundaryField
{
    wall-4
    {
        type            noSlip;
    }
    velocity-inlet-5
    {
        type            fixedValue;
        value           uniform (1 0 0);
    }
    velocity-inlet-6
    {
        type            fixedValue;
        value           uniform (0 3 0);
    }
    pressure-outlet-7
    {
        type            zeroGradient;
    }
    wall-8
    {
        type            noSlip;
    }
    frontAndBackPlanes
    {
        type            empty;
    }
}


// ************************************************************************* //
