/*--------------------------------*- C++ -*----------------------------------*\
  =========                 |
  \\      /  F ield         | OpenFOAM: The Open Source CFD Toolbox
   \\    /   O peration     | Website:  https://openfoam.org
    \\  /    A nd           | Version:  9
     \\/     M anipulation  |
\*---------------------------------------------------------------------------*/
FoamFile
{
    format      ascii;
    class       volScalarField;
    location    "15";
    object      p;
}
// * * * * * * * * * * * * * * * * * * * * * * * * * * * * * * * * * * * * * //

dimensions      [0 2 -2 0 0 0 0];

internalField   nonuniform List<scalar> 
2200
(
0.377712
0.356248
0.340395
0.324793
0.310289
0.297948
0.28777
0.279761
0.274122
0.271123
0.271407
0.274875
0.28085
0.289112
0.299467
0.311936
0.326527
0.342179
0.358063
0.379544
0.31003
0.306781
0.303929
0.299901
0.29456
0.288233
0.281776
0.276013
0.271645
0.269244
0.269487
0.272405
0.277143
0.283177
0.289826
0.296281
0.301716
0.305813
0.308707
0.311969
0.269834
0.27014
0.272347
0.27389
0.274533
0.273847
0.271966
0.269418
0.266935
0.265379
0.265681
0.267785
0.270676
0.273515
0.275602
0.276436
0.275898
0.274429
0.272277
0.271994
0.247109
0.248604
0.251528
0.254331
0.257016
0.259271
0.260664
0.261066
0.260681
0.260181
0.260573
0.261681
0.26251
0.262446
0.261297
0.259217
0.256658
0.25394
0.251071
0.249593
0.233031
0.234994
0.237938
0.240883
0.243902
0.246914
0.24966
0.251812
0.253219
0.253953
0.254375
0.254348
0.253501
0.251748
0.249294
0.246487
0.243617
0.240775
0.237897
0.235943
0.226022
0.227545
0.229827
0.232611
0.235489
0.238251
0.240788
0.243161
0.245286
0.246808
0.247282
0.24663
0.245213
0.243335
0.241131
0.238607
0.235893
0.233222
0.231008
0.229488
0.22354
0.224418
0.225944
0.228485
0.231174
0.233636
0.235745
0.237725
0.239576
0.241054
0.241661
0.241266
0.240263
0.238886
0.237171
0.235007
0.232516
0.230101
0.228635
0.22777
0.22339
0.223785
0.224772
0.226808
0.229078
0.23126
0.233199
0.234971
0.23651
0.237768
0.238514
0.238536
0.237958
0.236947
0.235568
0.233777
0.231766
0.229901
0.228983
0.2286
0.223652
0.223761
0.22429
0.225489
0.226931
0.228537
0.230243
0.231983
0.23356
0.234917
0.23584
0.236071
0.235664
0.234876
0.233887
0.232751
0.231623
0.230632
0.230195
0.230068
0.222288
0.222319
0.222514
0.223012
0.223688
0.224609
0.225823
0.22735
0.228985
0.230597
0.231833
0.232384
0.232325
0.231842
0.231402
0.231016
0.230696
0.230439
0.23034
0.23032
0.219327
0.219301
0.219424
0.21972
0.220188
0.220802
0.221662
0.222877
0.224365
0.22608
0.227626
0.228679
0.229233
0.229404
0.229393
0.229411
0.229391
0.229372
0.229374
0.229378
0.215925
0.215886
0.216073
0.216426
0.216984
0.217716
0.218679
0.219886
0.22139
0.223211
0.225016
0.226445
0.227415
0.228029
0.228362
0.228507
0.228521
0.228501
0.2285
0.228505
0.212386
0.212398
0.212563
0.212957
0.21355
0.214389
0.215532
0.216969
0.218786
0.220974
0.223216
0.224984
0.226226
0.227049
0.227608
0.227896
0.228016
0.228063
0.228088
0.228093
0.208239
0.208248
0.208389
0.208731
0.209322
0.210162
0.211396
0.213048
0.215234
0.21797
0.220881
0.223219
0.224882
0.226021
0.226798
0.227304
0.22762
0.227813
0.227907
0.227905
0.203327
0.203314
0.203513
0.203846
0.204424
0.205334
0.206683
0.208587
0.211194
0.214566
0.218272
0.221363
0.223569
0.225134
0.226227
0.226961
0.227441
0.227736
0.227877
0.227876
0.197513
0.197497
0.197737
0.198215
0.198962
0.200101
0.201748
0.204071
0.207258
0.211421
0.216046
0.219982
0.222828
0.224883
0.226281
0.227222
0.227837
0.228208
0.22838
0.228376
0.190937
0.190925
0.1912
0.191806
0.192775
0.194209
0.196299
0.19924
0.203247
0.208466
0.214249
0.219171
0.222776
0.22533
0.22706
0.228222
0.228966
0.229402
0.2296
0.229591
0.18321
0.183207
0.183588
0.184362
0.185594
0.18741
0.19004
0.193744
0.198799
0.205369
0.212607
0.218733
0.223213
0.226357
0.228515
0.229971
0.230919
0.231489
0.231748
0.231736
0.174167
0.174154
0.17461
0.17554
0.177077
0.1794
0.182755
0.18747
0.193867
0.202131
0.211164
0.218765
0.224309
0.228219
0.230915
0.232731
0.233907
0.234597
0.234903
0.234881
0.16311
0.163123
0.163766
0.165022
0.167023
0.169996
0.1743
0.180334
0.188465
0.198857
0.210076
0.219454
0.226274
0.231079
0.234384
0.236604
0.238056
0.238928
0.23932
0.2393
0.149757
0.149744
0.150538
0.152144
0.15477
0.158729
0.16436
0.172164
0.182535
0.195572
0.209433
0.220928
0.229271
0.235162
0.239235
0.241993
0.243784
0.244834
0.245294
0.245249
0.132787
0.132875
0.134058
0.136299
0.139868
0.14515
0.152624
0.162839
0.176097
0.19239
0.209395
0.223372
0.233497
0.240666
0.245627
0.24898
0.251183
0.252497
0.253076
0.253032
0.111626
0.111657
0.113251
0.116406
0.121384
0.128735
0.13883
0.15223
0.169133
0.189347
0.210008
0.226828
0.239003
0.24767
0.253754
0.257935
0.260687
0.262323
0.26302
0.262922
0.083449
0.083901
0.0864612
0.091209
0.0985456
0.108922
0.122737
0.140378
0.161801
0.186649
0.211505
0.231539
0.246051
0.25647
0.263853
0.269001
0.272454
0.274502
0.275408
0.275288
0.0459963
0.0467072
0.0509742
0.0589318
0.0703414
0.0853924
0.104426
0.127489
0.154355
0.18454
0.214026
0.237545
0.254588
0.26695
0.275892
0.282283
0.28673
0.289508
0.29072
0.290442
-0.00382143
-0.00317214
0.00487585
0.0183019
0.0363371
0.058307
0.0841704
0.113844
0.147077
0.183201
0.217636
0.244838
0.264627
0.279153
0.289884
0.297808
0.303466
0.306955
0.3082
0.307805
-0.0723325
-0.0683143
-0.0510404
-0.0281241
-0.00121289
0.0290449
0.0627369
0.0999149
0.140245
0.183005
0.223111
0.254752
0.278095
0.295637
0.308966
0.319195
0.327026
0.332476
0.334372
0.334254
-0.153502
-0.139239
-0.109428
-0.0760106
-0.0394055
-0.00066323
0.0412745
0.0862942
0.133945
0.183749
0.230178
0.266979
0.294531
0.315764
0.332586
0.34604
0.356862
0.364744
0.369864
0.370596
-0.218908
-0.201727
-0.163667
-0.122114
-0.0769093
-0.0295548
0.0206745
0.0732818
0.128025
0.18461
0.23694
0.278397
0.30957
0.333675
0.352757
0.368118
0.380198
0.389412
0.394188
0.394711
-0.267649
-0.252372
-0.209552
-0.162982
-0.111054
-0.056321
0.00118464
0.0607137
0.122207
0.185219
0.243004
0.288419
0.322194
0.347993
0.367997
0.383826
0.39625
0.405267
0.41
0.410675
-0.307585
-0.292697
-0.247585
-0.19797
-0.140764
-0.0803626
-0.0169054
0.0487407
0.116387
0.18515
0.247592
0.295979
0.331413
0.35806
0.378397
0.394199
0.406585
0.415752
0.420661
0.421332
-0.341801
-0.326618
-0.279531
-0.227637
-0.166434
-0.101804
-0.0335699
0.0373057
0.110243
0.18397
0.250442
0.301409
0.338179
0.365458
0.386173
0.402075
0.414598
0.423516
0.428743
0.429167
-0.371885
-0.356713
-0.307388
-0.25313
-0.188854
-0.121118
-0.0490523
0.0262118
0.1037
0.181985
0.252372
0.305802
0.343951
0.372003
0.393119
0.409108
0.421547
0.430621
0.43537
0.435905
-0.398986
-0.384045
-0.332672
-0.275899
-0.208999
-0.138806
-0.0635893
0.0153814
0.0968838
0.179411
0.253522
0.309523
0.349293
0.378162
0.399729
0.415971
0.428291
0.43734
0.441966
0.442454
-0.423805
-0.408978
-0.356389
-0.297195
-0.227845
-0.155359
-0.0773649
0.00480723
0.089904
0.176483
0.254514
0.313464
0.354857
0.384636
0.406487
0.422706
0.434978
0.443844
0.448524
0.449068
-0.447173
-0.431883
-0.379023
-0.317796
-0.246184
-0.171321
-0.0906659
-0.00560006
0.0828257
0.173309
0.255236
0.316816
0.359877
0.390546
0.413006
0.429602
0.441977
0.45075
0.455395
0.455868
-0.469106
-0.4536
-0.400526
-0.33788
-0.26441
-0.187196
-0.103944
-0.016168
0.0753167
0.169338
0.254781
0.319528
0.364935
0.397051
0.420036
0.436822
0.449171
0.457773
0.462419
0.462934
-0.489839
-0.474432
-0.420895
-0.357273
-0.282454
-0.203191
-0.117575
-0.0273034
0.0669955
0.164405
0.253826
0.3221
0.369739
0.403223
0.427096
0.444284
0.456857
0.465483
0.469952
0.470378
-0.509899
-0.494324
-0.440288
-0.375892
-0.300073
-0.219208
-0.131611
-0.0390881
0.0579267
0.158708
0.252087
0.323647
0.374236
0.409784
0.434777
0.452491
0.465085
0.473353
0.477828
0.478226
-0.529649
-0.51345
-0.458961
-0.393839
-0.317135
-0.235025
-0.145818
-0.0513086
0.0481978
0.151993
0.248833
0.324439
0.378676
0.416794
0.443117
0.461248
0.473838
0.482255
0.486344
0.486539
-0.549047
-0.532053
-0.477192
-0.411291
-0.333674
-0.250508
-0.15997
-0.0638
0.037817
0.144305
0.244833
0.324529
0.382025
0.42326
0.451748
0.470917
0.48355
0.491133
0.49491
0.494982
-0.567977
-0.550308
-0.495098
-0.428362
-0.349826
-0.26569
-0.174023
-0.0764717
0.0269353
0.135855
0.239765
0.323189
0.384986
0.429783
0.461141
0.481685
0.494152
0.501048
0.503961
0.503684
-0.586337
-0.568226
-0.51264
-0.445059
-0.365673
-0.280652
-0.188
-0.0892638
0.0156844
0.126604
0.233201
0.320526
0.386487
0.435727
0.47105
0.494202
0.506967
0.511604
0.512122
0.511735
-0.604084
-0.585666
-0.52968
-0.461317
-0.381211
-0.295424
-0.201911
-0.102169
0.00404523
0.116604
0.225598
0.316537
0.38669
0.440568
0.480727
0.508311
0.522883
0.525505
0.521362
0.518484
-0.621166
-0.602497
-0.546098
-0.477046
-0.396364
-0.309945
-0.215722
-0.11517
-0.00795769
0.105959
0.216908
0.310567
0.384562
0.443689
0.490015
0.524065
0.544192
0.54458
0.536165
0.540639
-0.637544
-0.618618
-0.561806
-0.492171
-0.411035
-0.324121
-0.229341
-0.128148
-0.020151
0.0948322
0.207217
0.30292
0.380458
0.444106
0.496529
0.538777
0.570195
0.567725
0.524559
0.472701
-0.653153
-0.634075
-0.576852
-0.506755
-0.425292
-0.338032
-0.242876
-0.14125
-0.0327069
0.0830348
0.196304
0.293394
0.373337
0.441001
0.49896
0.550904
0.597592
0.628294
0.656449
0.707818
-0.667926
-0.648925
-0.591343
-0.520939
-0.439292
-0.351868
-0.256575
-0.154827
-0.0461049
0.0698414
0.18338
0.280691
0.361546
0.431896
0.491537
0.5421
0.579349
0.601877
0.588319
0.592985
-0.681868
-0.663123
-0.605256
-0.534682
-0.452962
-0.365544
-0.270316
-0.168693
-0.0602017
0.0554372
0.168781
0.265605
0.345317
0.413546
0.470347
0.512729
0.521222
0.490079
0.440614
0.434976
-0.695058
-0.676647
-0.618599
-0.547999
-0.466314
-0.379059
-0.284076
-0.182828
-0.0749212
0.0400027
0.15246
0.247338
0.323225
0.385208
0.434495
0.450284
0.420966
0.355194
0.285329
0.278861
-0.707551
-0.689513
-0.631393
-0.560914
-0.479374
-0.392437
-0.297867
-0.197245
-0.0902155
0.0233504
0.13385
0.226021
0.295568
0.344756
0.369369
0.35692
0.310838
0.209279
0.120993
0.106498
-0.719766
-0.702147
-0.644025
-0.573781
-0.49249
-0.40598
-0.311956
-0.212134
-0.106273
0.00545684
0.113414
0.201779
0.264468
0.298847
0.287996
0.247177
0.140202
0.0139865
-0.0968741
-0.118791
-0.732525
-0.715302
-0.657154
-0.587186
-0.506208
-0.420147
-0.326725
-0.227839
-0.12335
-0.0137838
0.0907616
0.174246
0.230272
0.240087
0.193808
0.100773
-0.0670746
-0.227201
-0.3591
-0.383894
-0.746296
-0.729383
-0.671076
-0.601332
-0.52069
-0.435045
-0.342258
-0.244399
-0.141444
-0.0343963
0.0659163
0.143919
0.188633
0.173401
0.0974148
-0.0660566
-0.288275
-0.518409
-0.709074
-0.756809
-0.761113
-0.744403
-0.685811
-0.616215
-0.535896
-0.450631
-0.358486
-0.261738
-0.16049
-0.0561994
0.0395729
0.113106
0.143054
0.0902556
-0.0221798
-0.240537
-0.507328
-0.833161
-1.18319
-1.32339
-0.777027
-0.760455
-0.701423
-0.631912
-0.551854
-0.466927
-0.375442
-0.279887
-0.1805
-0.0791605
0.0112423
0.0770409
0.0929663
0.000267074
-0.167396
-0.419372
-0.701854
-1.10248
-1.7466
-2.34808
-0.794017
-0.777459
-0.717871
-0.648503
-0.568557
-0.483904
-0.393077
-0.298708
-0.201283
-0.103042
-0.0174967
0.0413924
0.0392429
-0.0851381
-0.314008
-0.610328
-0.871578
-1.17586
-1.83552
-3.54656
-0.812119
-0.795483
-0.735206
-0.666124
-0.586095
-0.501701
-0.411549
-0.318422
-0.223116
-0.128368
-0.0479959
0.00242297
-0.01584
-0.155656
-0.43157
-0.747427
-0.959752
-1.05471
-1.10713
-1.5513
-0.831215
-0.814369
-0.753611
-0.685016
-0.60475
-0.520704
-0.431403
-0.339627
-0.246722
-0.155836
-0.080113
-0.0390392
-0.0827098
-0.211725
-0.499315
-0.78901
-0.964542
-1.00936
-0.971121
-1.02315
-0.851278
-0.834093
-0.773202
-0.705139
-0.624479
-0.540968
-0.452645
-0.362355
-0.272082
-0.185861
-0.115141
-0.0790185
-0.142824
-0.266542
-0.545178
-0.789664
-0.932923
-0.979611
-1.00916
-1.02888
-0.871869
-0.85444
-0.794151
-0.726337
-0.645182
-0.562399
-0.475207
-0.386497
-0.299071
-0.217919
-0.151695
-0.122186
-0.201119
-0.330476
-0.5865
-0.792233
-0.912965
-0.909199
-0.937958
-0.935375
-0.892869
-0.875304
-0.816091
-0.748268
-0.666643
-0.584867
-0.498881
-0.411776
-0.327343
-0.251286
-0.189655
-0.160422
-0.257328
-0.41369
-0.635641
-0.79548
-0.89653
-0.90029
-0.910342
-0.915782
-0.913957
-0.896495
-0.838349
-0.770482
-0.688656
-0.608119
-0.523153
-0.437838
-0.356312
-0.28537
-0.231099
-0.205651
-0.309678
-0.50185
-0.692506
-0.802516
-0.863638
-0.923427
-0.893342
-0.904944
-0.934828
-0.917624
-0.860279
-0.792201
-0.71104
-0.631733
-0.54755
-0.464082
-0.38514
-0.318737
-0.272474
-0.249695
-0.373586
-0.605572
-0.770625
-0.829666
-0.799667
-0.891742
-0.870579
-0.889813
-0.954781
-0.938076
-0.881255
-0.813224
-0.733279
-0.655065
-0.571304
-0.490158
-0.413756
-0.350147
-0.314326
-0.283164
-0.431396
-0.707854
-0.87128
-0.867892
-0.796484
-0.842248
-0.881693
-0.892867
-0.97317
-0.957058
-0.900723
-0.832829
-0.754963
-0.67705
-0.593821
-0.515754
-0.441235
-0.378182
-0.357905
-0.318882
-0.487978
-0.811228
-1.05012
-1.10988
-1.08926
-1.06952
-1.083
-1.07715
-0.988744
-0.973486
-0.918192
-0.85078
-0.774515
-0.696127
-0.615164
-0.538841
-0.466077
-0.401077
-0.398608
-0.348617
-0.543158
-0.914452
-1.33942
-1.70876
-1.7905
-1.70842
-1.64412
-1.57921
-1.00062
-0.986334
-0.932471
-0.865549
-0.790194
-0.71242
-0.633924
-0.558136
-0.487181
-0.419325
-0.419323
-0.362454
-0.552973
-0.934358
-1.45852
-2.03035
-2.2434
-2.13858
-2.01717
-1.93029
-1.00709
-0.993932
-0.941894
-0.875573
-0.801046
-0.724618
-0.648029
-0.573953
-0.50197
-0.434631
-0.420048
-0.370516
-0.512852
-0.789236
-1.1484
-1.50909
-1.60679
-1.54792
-1.39222
-1.30802
-1.00666
-0.994582
-0.94467
-0.87927
-0.80591
-0.731555
-0.656798
-0.585235
-0.511613
-0.441857
-0.39826
-0.338366
-0.362161
-0.350229
-0.321337
-0.299037
-0.241421
-0.162496
-0.104832
-0.0424574
-0.997103
-0.986512
-0.939334
-0.875288
-0.803701
-0.731924
-0.660148
-0.591983
-0.52074
-0.432515
-0.355613
-0.260737
-0.10867
0.135677
0.428431
0.675791
0.860846
0.987307
1.04082
1.0599
-0.976458
-0.967314
-0.923865
-0.862155
-0.792791
-0.724238
-0.656976
-0.591904
-0.525871
-0.441847
-0.324876
-0.179218
0.0811581
0.427756
0.830881
1.18069
1.45492
1.59527
1.63638
1.64714
-0.943368
-0.935906
-0.896174
-0.837885
-0.772544
-0.708376
-0.647224
-0.588173
-0.533068
-0.470534
-0.334604
-0.162372
0.118041
0.490915
0.895843
1.25064
1.5265
1.66688
1.70924
1.71999
-0.896851
-0.891413
-0.856279
-0.803262
-0.743407
-0.685415
-0.633531
-0.589663
-0.562264
-0.545929
-0.474054
-0.321035
-0.016548
0.361718
0.757193
1.10617
1.35055
1.47654
1.5172
1.53119
-0.83775
-0.833116
-0.80405
-0.758282
-0.705744
-0.656931
-0.619183
-0.601032
-0.626628
-0.701758
-0.781805
-0.631395
-0.293264
0.107615
0.524923
0.844807
1.04549
1.14102
1.18476
1.20103
-0.769455
-0.765008
-0.74059
-0.702106
-0.658509
-0.621196
-0.597381
-0.602342
-0.675566
-0.852328
-1.11761
-0.958014
-0.519423
-0.10197
0.267478
0.51533
0.684169
0.754136
0.794576
0.80929
-0.679955
-0.6781
-0.659609
-0.631005
-0.597371
-0.568846
-0.552404
-0.563639
-0.639521
-0.800263
-1.12584
-0.978925
-0.544411
-0.170984
0.125129
0.312674
0.425335
0.460244
0.49815
0.505675
-0.564472
-0.565472
-0.555851
-0.537892
-0.515598
-0.496775
-0.482712
-0.491022
-0.550103
-0.683043
-0.898018
-0.734628
-0.376538
-0.113687
0.0920731
0.211609
0.275314
0.30457
0.320791
0.324895
-0.45022
-0.449683
-0.443973
-0.433881
-0.420283
-0.406271
-0.394874
-0.395523
-0.426535
-0.505004
-0.603439
-0.421204
-0.183237
-0.0312545
0.0860225
0.149678
0.183363
0.200913
0.211122
0.214821
-0.335607
-0.336093
-0.333548
-0.327874
-0.319739
-0.309791
-0.299139
-0.292129
-0.297341
-0.323086
-0.335997
-0.184884
-0.0568544
0.0287152
0.0872389
0.115551
0.133387
0.143316
0.149103
0.150714
-0.232216
-0.233105
-0.232081
-0.22891
-0.224061
-0.217066
-0.206992
-0.194891
-0.182157
-0.171836
-0.130645
-0.0369028
0.025353
0.0713504
0.0923657
0.102863
0.110716
0.11505
0.117207
0.117564
-0.145965
-0.146816
-0.146911
-0.145297
-0.141959
-0.136654
-0.127474
-0.113485
-0.0922029
-0.0577836
-0.0108759
0.044341
0.0770677
0.0951683
0.0990306
0.101046
0.102843
0.10353
0.10348
0.102699
-0.0800101
-0.0807626
-0.0817387
-0.0814171
-0.0791044
-0.0746127
-0.0662917
-0.0531253
-0.0322775
0.00218147
0.0448445
0.0828748
0.0980329
0.103651
0.10213
0.100695
0.0994655
0.0980404
0.0967663
0.095525
-0.0327155
-0.0333133
-0.0346254
-0.0354987
-0.0344993
-0.031093
-0.0240094
-0.0125361
0.00537902
0.0337721
0.0674272
0.0952665
0.101942
0.103266
0.100517
0.0978752
0.0953459
0.0930033
0.0912779
0.0901449
-0.000687005
-0.00114158
-0.00235476
-0.00377719
-0.00389101
-0.00196346
0.00322908
0.0126498
0.027401
0.0498048
0.074472
0.094298
0.0980515
0.0981238
0.0954197
0.0925451
0.0897104
0.0872321
0.0856041
0.0847069
0.0195924
0.0192624
0.0183083
0.0170025
0.016423
0.0170961
0.0202812
0.0272044
0.0386098
0.0557874
0.0738991
0.0878028
0.090644
0.0905001
0.0882848
0.0857719
0.0833291
0.0812464
0.0799536
0.079271
0.0316633
0.0314127
0.0307507
0.0298438
0.0293844
0.0295612
0.031355
0.035798
0.0437819
0.0562999
0.0695405
0.0793866
0.0817958
0.0818069
0.0802668
0.078408
0.0766291
0.075095
0.0741661
0.0736666
0.0389872
0.0387824
0.0383498
0.0377586
0.0375325
0.0377105
0.0389271
0.0416433
0.0467813
0.0551998
0.0644107
0.0711922
0.073131
0.0732992
0.0723663
0.0710869
0.0698152
0.0686755
0.0680166
0.0676605
0.0437015
0.0435339
0.0431868
0.0426414
0.042353
0.042443
0.0433877
0.0452113
0.0485748
0.0539314
0.0598963
0.0642758
0.0656559
0.06582
0.0652181
0.0642432
0.063204
0.062259
0.0617486
0.0614926
0.0461761
0.0460303
0.0456598
0.044992
0.0444333
0.0442033
0.0446996
0.04593
0.0483029
0.0518608
0.0557106
0.0584607
0.0593552
0.0593866
0.0588639
0.0580082
0.0570806
0.0562545
0.0558293
0.0556372
0.0462895
0.0461584
0.0457699
0.0450386
0.0443175
0.0438118
0.0437947
0.0444118
0.0460056
0.048512
0.051204
0.0530392
0.0536161
0.0535152
0.0530048
0.0522562
0.0514661
0.0507751
0.0504284
0.0502809
0.0445233
0.0444162
0.0440736
0.0434156
0.0427383
0.0421836
0.0418721
0.0420079
0.0428791
0.0445252
0.0464212
0.0476885
0.0480561
0.047897
0.0474421
0.0468394
0.0462184
0.0456758
0.0454098
0.0452986
0.0417064
0.0416306
0.0413645
0.0408283
0.0402742
0.0397924
0.0394212
0.0393361
0.039689
0.0406041
0.0417752
0.0425535
0.0427341
0.042556
0.0421759
0.0417089
0.041234
0.040817
0.0406186
0.0405362
0.0382972
0.0382475
0.0380416
0.0376006
0.0371459
0.0367251
0.0363674
0.0362159
0.0362906
0.0367298
0.0373391
0.037724
0.0377477
0.0375563
0.0372293
0.0368532
0.036478
0.0361496
0.0359974
0.0359351
0.0344321
0.034399
0.0342305
0.0338549
0.0334693
0.0330819
0.0327315
0.0325428
0.0324798
0.0326765
0.0329612
0.0331108
0.033035
0.0328298
0.0325331
0.0322145
0.0319064
0.0316398
0.0315185
0.0314712
0.0301999
0.0301758
0.03004
0.029732
0.029415
0.0290704
0.0287392
0.0285246
0.0283781
0.0284419
0.0285542
0.0285826
0.0284576
0.0282554
0.0279949
0.0277304
0.0274827
0.0272716
0.027176
0.0271391
0.0257441
0.0257269
0.025621
0.0253789
0.0251293
0.0248432
0.0245532
0.0243387
0.0241472
0.0241219
0.0241305
0.0240955
0.023956
0.0237738
0.0235557
0.0233422
0.0231463
0.022981
0.0229059
0.0228772
0.0211669
0.0211551
0.0210779
0.0208979
0.0207087
0.0204845
0.0202491
0.0200629
0.019869
0.019791
0.0197296
0.019655
0.019517
0.0193598
0.0191815
0.0190113
0.0188582
0.0187315
0.0186744
0.0186537
0.0165338
0.0165248
0.0164676
0.0163359
0.0161946
0.0160261
0.0158446
0.0156956
0.015527
0.015439
0.0153513
0.015263
0.0151367
0.0150072
0.0148676
0.0147365
0.0146195
0.0145232
0.0144789
0.0144628
0.0118636
0.0118592
0.0118184
0.011724
0.0116203
0.0114982
0.0113637
0.0112521
0.0111201
0.011045
0.0109647
0.0108898
0.0107912
0.0106935
0.0105895
0.0104921
0.0104058
0.0103355
0.0103038
0.0102931
0.00715247
0.00714948
0.00712357
0.00706347
0.0069976
0.00692298
0.00683803
0.00677143
0.00668159
0.00663302
0.00657619
0.00652619
0.00646193
0.0064022
0.00633685
0.00627542
0.00621995
0.00617382
0.00615336
0.00614614
0.0024135
0.00241244
0.00239993
0.00237091
0.00234275
0.00231666
0.0022816
0.00226464
0.00222485
0.00221262
0.00219212
0.00217832
0.00215165
0.00213167
0.0021067
0.00208353
0.00205954
0.00203586
0.00202621
0.00202245
-1.66408
-0.733962
-0.457423
-0.15548
0.0509467
0.23086
0.384007
0.539855
0.705317
0.783577
-0.607808
-0.159785
-0.12165
0.0820459
0.22784
0.358393
0.472846
0.573146
0.609147
0.562765
-0.178701
0.058411
0.112239
0.256146
0.358572
0.451077
0.527892
0.585059
0.59223
0.602796
0.0821461
0.243767
0.283037
0.397779
0.462749
0.528861
0.579662
0.615358
0.626676
0.649219
0.28243
0.394531
0.423782
0.505756
0.55081
0.598486
0.633947
0.659999
0.671379
0.70193
0.435798
0.513331
0.543834
0.594739
0.632573
0.666035
0.692543
0.714068
0.729337
0.756835
0.563485
0.618546
0.645422
0.676945
0.706899
0.732377
0.753726
0.773563
0.788962
0.814981
0.672381
0.712235
0.734448
0.756595
0.778991
0.799471
0.817548
0.83608
0.85129
0.87486
0.77014
0.799893
0.817612
0.833636
0.850668
0.867348
0.883323
0.900803
0.914575
0.936903
0.860261
0.881497
0.896914
0.910553
0.924636
0.938887
0.952624
0.967398
0.978893
0.998525
0.947191
0.963225
0.97742
0.989649
1.00192
1.01368
1.02482
1.03642
1.04398
1.06081
1.03313
1.0462
1.06012
1.07192
1.08254
1.09227
1.101
1.10922
1.11292
1.12417
1.12266
1.1336
1.14714
1.15634
1.16379
1.17103
1.17833
1.18504
1.18606
1.19345
1.22117
1.22593
1.23398
1.23852
1.24182
1.24631
1.2523
1.26002
1.26392
1.27379
1.33468
1.32098
1.31354
1.30784
1.30514
1.30651
1.31304
1.32549
1.34018
1.36982
1.45541
1.39981
1.36887
1.35179
1.34366
1.34369
1.35235
1.37173
1.40374
1.47293
)
;

boundaryField
{
    wall-4
    {
        type            zeroGradient;
    }
    pressure-outlet-7
    {
        type            fixedValue;
        value           uniform 0;
    }
    velocity-inlet-6
    {
        type            zeroGradient;
    }
    velocity-inlet-5
    {
        type            zeroGradient;
    }
    frontAndBackPlanes
    {
        type            empty;
    }
}


// ************************************************************************* //
