/*--------------------------------*- C++ -*----------------------------------*\
  =========                 |
  \\      /  F ield         | OpenFOAM: The Open Source CFD Toolbox
   \\    /   O peration     | Website:  https://openfoam.org
    \\  /    A nd           | Version:  9
     \\/     M anipulation  |
\*---------------------------------------------------------------------------*/
FoamFile
{
    format      ascii;
    class       volScalarField;
    location    "0.6";
    object      p;
}
// * * * * * * * * * * * * * * * * * * * * * * * * * * * * * * * * * * * * * //

dimensions      [0 2 -2 0 0 0 0];

internalField   nonuniform List<scalar> 
400
(
4.29525e-06
-0.00582266
-0.0129605
-0.0184129
-0.0204305
-0.0182369
-0.0117723
-0.00148217
0.0118389
0.0271507
0.043246
0.0588248
0.0725805
0.0833104
0.0900548
0.0922689
0.0900277
0.0842457
0.0768825
0.0710689
0.00578336
-0.000215787
-0.00580175
-0.00954057
-0.0105971
-0.00843102
-0.0029683
0.00547574
0.0163045
0.0287133
0.0417514
0.0543876
0.0655882
0.0744118
0.0801222
0.0823177
0.0810792
0.0770567
0.0712759
0.0653196
0.0133376
0.00503603
-0.000993123
-0.00442111
-0.00527111
-0.00326226
0.00160394
0.00902916
0.0185036
0.0293509
0.040767
0.0518713
0.0617702
0.0696381
0.0748089
0.07688
0.0758435
0.0720877
0.0658073
0.0575372
0.0201418
0.00869825
0.00122804
-0.00266649
-0.00372026
-0.00188364
0.00273283
0.00978609
0.0187819
0.0290966
0.0399936
0.0506556
0.0602346
0.0679177
0.0730049
0.0750033
0.0737676
0.0694579
0.0616047
0.0501042
0.0245044
0.00977537
0.00059195
-0.00398483
-0.00530029
-0.00350558
0.00117633
0.00833605
0.0174635
0.0279506
0.0390866
0.0500716
0.0600505
0.0681667
0.073628
0.0757994
0.0743707
0.0692915
0.0595272
0.0445387
0.0251802
0.00715225
-0.00379987
-0.0090551
-0.0105101
-0.00849808
-0.00335509
0.00443099
0.0143148
0.0256805
0.0378154
0.0499049
0.0610498
0.0703048
0.0767363
0.0795185
0.0781405
0.0723352
0.0605409
0.0418916
0.0210958
-0.00026018
-0.0129324
-0.0187072
-0.0200277
-0.0174119
-0.0113165
-0.00231797
0.00899202
0.0219777
0.0359112
0.049946
0.0631138
0.074347
0.0825235
0.0865711
0.0857223
0.0794487
0.065622
0.0430733
0.0111451
-0.013616
-0.027873
-0.0338522
-0.0346014
-0.0308554
-0.0232108
-0.0123433
0.00110661
0.0164855
0.0330541
0.0499352
0.066085
0.0802916
0.0912024
0.0974317
0.0978719
0.0916377
0.0758979
0.0491182
-0.00596495
-0.0342643
-0.049868
-0.0555466
-0.0550881
-0.0495125
-0.0395914
-0.0261113
-0.00975516
0.00882481
0.0289027
0.0495952
0.0697992
0.0881563
0.103049
0.112703
0.115552
0.110194
0.092836
0.0614132
-0.031855
-0.063874
-0.0804148
-0.0850051
-0.0824181
-0.0740763
-0.0609788
-0.0440345
-0.0239494
-0.0013349
0.0231475
0.0486628
0.0740974
0.0979741
0.118398
0.133128
0.13999
0.13682
0.118443
0.0819356
-0.0686653
-0.104601
-0.121342
-0.123588
-0.117513
-0.105125
-0.0877162
-0.0663234
-0.0416348
-0.0141535
0.0156076
0.0469552
0.0788577
0.109795
0.137626
0.159588
0.172729
0.17378
0.155522
0.113573
-0.1194
-0.159355
-0.174913
-0.172755
-0.161146
-0.142927
-0.119757
-0.0927748
-0.0625752
-0.0294454
0.00637537
0.0444757
0.0840573
0.123705
0.161138
0.193088
0.21567
0.224079
0.208053
0.160635
-0.188626
-0.23224
-0.243936
-0.233945
-0.213692
-0.187152
-0.15637
-0.122499
-0.0858955
-0.0464697
-0.004012
0.0415413
0.0898446
0.139832
0.189321
0.234692
0.271077
0.291667
0.281745
0.229778
-0.283972
-0.329302
-0.331829
-0.308277
-0.274706
-0.236437
-0.195762
-0.153607
-0.109837
-0.0637424
-0.0144351
0.0388662
0.0965571
0.158279
0.222377
0.285291
0.3414
0.381578
0.384917
0.331837
-0.419315
-0.459668
-0.442347
-0.395789
-0.342126
-0.287736
-0.234612
-0.182927
-0.131606
-0.0789817
-0.0232108
0.0374785
0.104556
0.178841
0.259864
0.344973
0.428619
0.499703
0.529678
0.485394
-0.620528
-0.63674
-0.578673
-0.494189
-0.411237
-0.335654
-0.267777
-0.205974
-0.147533
-0.0893792
-0.0284223
0.038352
0.113811
0.200475
0.299979
0.412029
0.533033
0.651779
0.732775
0.722399
-0.93592
-0.878511
-0.741737
-0.597944
-0.474389
-0.372655
-0.288864
-0.217758
-0.153949
-0.0924597
-0.0287131
0.0416998
0.123268
0.220722
0.33893
0.482159
0.652001
0.841346
1.01527
1.09751
-1.47642
-1.20663
-0.920499
-0.691384
-0.517301
-0.38754
-0.290057
-0.213333
-0.148119
-0.0872111
-0.0245733
0.0454618
0.128942
0.233075
0.367107
0.542682
0.771297
1.05932
1.40329
1.73015
-2.53964
-1.63054
-1.04443
-0.710954
-0.495746
-0.352089
-0.254526
-0.183579
-0.126165
-0.0735908
-0.0192647
0.0427912
0.119217
0.218787
0.354816
0.547988
0.826397
1.23658
1.91168
2.9242
-4.36666
-2.04463
-0.973538
-0.563176
-0.357842
-0.240142
-0.170115
-0.123779
-0.087477
-0.053506
-0.0166502
0.0276649
0.0846117
0.161734
0.272415
0.442103
0.718223
1.22571
2.41104
4.84854
)
;

boundaryField
{
    movingWall
    {
        type            zeroGradient;
    }
    fixedWalls
    {
        type            zeroGradient;
    }
    frontAndBack
    {
        type            empty;
    }
}


// ************************************************************************* //
